 Gaussian 09, Revision D.01,
 Gaussian 09:  ES64L-G09RevD.01 24-Apr-2013

 -----------------------------
 # b3lyp 6-31G(2df,p) opt Freq
 -----------------------------

 -----
 titel
 -----
 Symbolic Z-matrix:
 Charge =  0 Multiplicity = 1

 SCF Done:  E(RB3LYP) =  -423.183437924     A.U. after   14 cycles
 SCF Done:  E(RB3LYP) =  -423.183438415     A.U. after    7 cycles
 SCF Done:  E(RB3LYP) =  -423.183437954     A.U. after    8 cycles
 SCF Done:  E(RB3LYP) =  -423.183439177     A.U. after    7 cycles
 SCF Done:  E(RB3LYP) =  -423.183439849     A.U. after    7 cycles
 SCF Done:  E(RB3LYP) =  -423.183440994     A.U. after    9 cycles
 SCF Done:  E(RB3LYP) =  -423.183441165     A.U. after    7 cycles
 SCF Done:  E(RB3LYP) =  -423.183441248     A.U. after    7 cycles
 Optimization completed.
    -- Stationary point found.
 Normal termination of Gaussian 09 at Mon Jan 27 13:58:12 2020.

 ----------------------------------------------------------------------
 #N Geom=AllCheck Guess=TCheck SCRF=Check GenChk RB3LYP/6-31G(2df,p) Fr
 eq
 ----------------------------------------------------------------------

 Structure from the checkpoint file:  "/scratch/puck/g09_63ab5afc-e76b-4a7d-b413-0128991a4239/Gau-155400.chk"
 -----
 titel
 -----
 Charge =  0 Multiplicity = 1

                         Standard orientation:
 ---------------------------------------------------------------------
 Center     Atomic      Atomic             Coordinates (Angstroms)
 Number     Number       Type             X           Y           Z
 ---------------------------------------------------------------------
      1          8           0       -3.426961   -0.442351    0.111311
      2          6           0       -2.346727   -0.187071   -0.352557
      3          6           0       -1.069217   -0.031486    0.437445
      4          6           0       -0.416735    1.367856    0.195401
      5          8           0        0.796458    1.146993   -0.508414
      6          6           0        1.260028   -0.123165   -0.124753
      7          6           0        2.604116   -0.532574   -0.610868
      8          6           0        2.396488   -0.211033    0.863518
      9          6           0        0.031600   -1.012021   -0.053096
     10          1           0       -2.210407   -0.035125   -1.450974
     11          1           0       -1.303054   -0.177367    1.493345
     12          1           0       -1.034557    2.036281   -0.413220
     13          1           0       -0.229889    1.856157    1.161301
     14          1           0        2.754020   -1.567165   -0.900576
     15          1           0        3.152228    0.189531   -1.205298
     16          1           0        2.411934   -1.027806    1.577849
     17          1           0        2.808759    0.724241    1.225144
     18          1           0       -0.211470   -1.390228   -1.053809
     19          1           0        0.149150   -1.868689    0.612524
 ---------------------------------------------------------------------

 SCF Done:  E(RB3LYP) =  -423.183441248     A.U. after    1 cycles

 The electronic state is 1-A.
 Alpha  occ. eigenvalues --  -19.15164 -19.14159 -10.27261 -10.24655 -10.24268
 Alpha  occ. eigenvalues --  -10.20511 -10.20317 -10.19149 -10.18911  -1.05524
 Alpha  occ. eigenvalues --   -1.04841  -0.85726  -0.80677  -0.71247  -0.64601
 Alpha  occ. eigenvalues --   -0.61149  -0.58260  -0.55894  -0.50895  -0.49402
 Alpha  occ. eigenvalues --   -0.48229  -0.46376  -0.44079  -0.43169  -0.40634
 Alpha  occ. eigenvalues --   -0.39925  -0.38163  -0.37287  -0.35809  -0.33647
 Alpha  occ. eigenvalues --   -0.31916  -0.29991  -0.25628  -0.24454
 Alpha virt. eigenvalues --   -0.02360   0.07284   0.09680   0.10502   0.11415
 Alpha virt. eigenvalues --    0.12722   0.13099   0.14155   0.14715   0.15832
 Alpha virt. eigenvalues --    0.18026   0.18447   0.19312   0.21340   0.22151

 Mulliken charges:
               1
     1  O   -0.252061
     2  C    0.153635
     3  C   -0.083653
     4  C   -0.123106
     5  O   -0.274617
     6  C    0.459062
     7  C   -0.341342
     8  C   -0.329456
     9  C   -0.325803
    10  H    0.078043
    11  H    0.098698
    12  H    0.116113
    13  H    0.108512
    14  H    0.118006
    15  H    0.129809
    16  H    0.112654
    17  H    0.122942
    18  H    0.112731
    19  H    0.119830
 Sum of Mulliken charges =   0.00000

 Dipole moment (field-independent basis, Debye):
    X=              2.1539    Y=             -0.3165    Z=              0.2862  Tot=              2.1958
 Quadrupole moment (field-independent basis, Debye-Ang):
   XX=            -65.3187   YY=            -51.7386   ZZ=            -52.2260
   XY=             -4.0374   XZ=              2.0603   YZ=              1.3222

  Exact polarizability:  95.324  -1.477  67.807  -0.522   0.909  68.665
 Approx polarizability: 125.652   1.141 100.194  -5.012  -1.117 106.699

                      1                      2                      3
                      A                      A                      A
 Frequencies --     30.6313                76.8592               134.0203
 Red. masses --      3.4187                 5.2654                 2.8918
 Frc consts  --      0.0019                 0.0183                 0.0306
 IR Inten    --      3.0194                 5.6471                 3.0342

                      4                      5                      6
                      A                      A                      A
 Frequencies --    268.9572               282.3109               323.5097
 Red. masses --      2.5191                 2.3011                 2.1898
 Frc consts  --      0.1074                 0.1081                 0.1350
 IR Inten    --      1.1265                 1.6208                 2.9625

                      7                      8                      9
                      A                      A                      A
 Frequencies --    367.8997               404.1231               461.6396
 Red. masses --      2.1453                 5.1804                 3.1794
 Frc consts  --      0.1711                 0.4985                 0.3992
 IR Inten    --      0.8597                 9.2634                 2.2228

                     10                     11                     12
                      A                      A                      A
 Frequencies --    561.8895               724.7831               758.4348
 Red. masses --      4.0034                 3.3215                 1.9640
 Frc consts  --      0.7447                 1.0280                 0.6656
 IR Inten    --      0.1930                13.8149                 5.4879

                     13                     14                     15
                      A                      A                      A
 Frequencies --    776.9045               862.9230               872.6407
 Red. masses --      1.4305                 2.4714                 1.7625
 Frc consts  --      0.5087                 1.0843                 0.7908
 IR Inten    --      1.4727                 3.7529                21.6459

                     16                     17                     18
                      A                      A                      A
 Frequencies --    898.9984               923.4091               952.0336
 Red. masses --      1.9014                 1.4165                 2.5842
 Frc consts  --      0.9054                 0.7116                 1.3800
 IR Inten    --      9.2557                 3.5951                15.2659

                     19                     20                     21
                      A                      A                      A
 Frequencies --    968.7798               986.7650              1002.3347
 Red. masses --      1.9604                 2.9423                 2.6240
 Frc consts  --      1.0840                 1.6880                 1.5532
 IR Inten    --     10.9452                 1.0773                14.6223

                     22                     23                     24
                      A                      A                      A
 Frequencies --   1044.2030              1072.4352              1078.3989
 Red. masses --      1.4670                 3.8446                 1.4765
 Frc consts  --      0.9424                 2.6052                 1.0117
 IR Inten    --      2.0481                70.8773                 0.5089

                     25                     26                     27
                      A                      A                      A
 Frequencies --   1095.0752              1145.3556              1187.8500
 Red. masses --      2.6979                 2.2322                 1.2785
 Frc consts  --      1.9062                 1.7253                 1.0628
 IR Inten    --     16.8127                39.2495                 0.4940

                     28                     29                     30
                      A                      A                      A
 Frequencies --   1193.0654              1240.2162              1264.0491
 Red. masses --      1.5940                 1.3386                 1.6427
 Frc consts  --      1.3368                 1.2131                 1.5464
 IR Inten    --     16.7503                 6.7866                16.4071

                     31                     32                     33
                      A                      A                      A
 Frequencies --   1268.9593              1293.4425              1330.9752
 Red. masses --      1.4217                 1.2397                 1.4226
 Frc consts  --      1.3488                 1.2220                 1.4848
 IR Inten    --     26.5880                 1.1736                 5.9503

                     34                     35                     36
                      A                      A                      A
 Frequencies --   1373.8397              1391.3042              1425.6920
 Red. masses --      1.9536                 1.4819                 1.1934
 Frc consts  --      2.1725                 1.6901                 1.4292
 IR Inten    --     21.5784                 3.8034                 2.7944

                     37                     38                     39
                      A                      A                      A
 Frequencies --   1451.8103              1488.0600              1500.1422
 Red. masses --      1.0914                 1.0952                 1.4809
 Frc consts  --      1.3553                 1.4288                 1.9635
 IR Inten    --      2.0818                 2.7408                16.0489

                     40                     41                     42
                      A                      A                      A
 Frequencies --   1515.6603              1835.2666              2842.1240
 Red. masses --      1.1903                10.2929                 1.0814
 Frc consts  --      1.6111                20.4261                 5.1467
 IR Inten    --      2.0074               231.0828                87.8612

                     43                     44                     45
                      A                      A                      A
 Frequencies --   3009.6484              3030.8786              3072.6479
 Red. masses --      1.0656                 1.0685                 1.0983
 Frc consts  --      5.6869                 5.7829                 6.1094
 IR Inten    --     50.2266                20.1843                25.0114

                     46                     47                     48
                      A                      A                      A
 Frequencies --   3099.1994              3119.2669              3130.3371
 Red. masses --      1.0876                 1.0951                 1.0525
 Frc consts  --      6.1547                 6.2776                 6.0767
 IR Inten    --      9.4931                14.8752                13.6672

                     49                     50                     51
                      A                      A                      A
 Frequencies --   3136.4724              3216.7815              3230.6438
 Red. masses --      1.0569                 1.1182                 1.1156
 Frc consts  --      6.1256                 6.8176                 6.8601
 IR Inten    --      7.0853                 0.4855                 9.6876

 - Thermochemistry -
 -------------------
 Temperature   298.150 Kelvin.  Pressure   1.00000 Atm.
 Atom     1 has atomic number  8 and mass  15.99491

 Molecular mass:   126.06808 amu.
 Principal axes and moments of inertia in atomic units:
                           1         2         3
     Eigenvalues --   416.072561871.893372032.07185
           X            0.99986  -0.01589   0.00546
           Y            0.01566   0.99907   0.04021
           Z           -0.00610  -0.04012   0.99918
 This molecule is an asymmetric top.
 Rotational symmetry number  1.
 Rotational temperatures (Kelvin)      0.20817     0.04627     0.04262
 Rotational constants (GHZ):           4.33756     0.96413     0.88813
 Zero-point vibrational energy     417040.0 (Joules/Mol)
                                   99.67496 (Kcal/Mol)
 Warning -- explicit consideration of  10 degrees of freedom as
           vibrations may cause significant error
 Vibrational temperatures:     44.07   110.58   192.83   386.97   406.18
          (Kelvin)            465.46   529.33   581.44   664.20   808.43
                             1042.80  1091.22  1117.79  1241.55  1255.53
                             1293.46  1328.58  1369.76  1393.86  1419.73
                             1442.13  1502.37  1542.99  1551.57  1575.57
                             1647.91  1709.05  1716.55  1784.39  1818.68
                             1825.75  1860.97  1914.97  1976.65  2001.77
                             2051.25  2088.83  2140.98  2158.37  2180.69
                             2640.54  4089.18  4330.21  4360.75  4420.85
                             4459.05  4487.92  4503.85  4512.68  4628.23
                             4648.17

 Zero-point correction=                           0.158842 (Hartree/Particle)
 Thermal correction to Energy=                    0.167320
 Thermal correction to Enthalpy=                  0.168264
 Thermal correction to Gibbs Free Energy=         0.124526
 Sum of electronic and zero-point Energies=           -423.024599
 Sum of electronic and thermal Energies=              -423.016121
 Sum of electronic and thermal Enthalpies=            -423.015177
 Sum of electronic and thermal Free Energies=         -423.058916

                     E (Thermal)             CV                S
                      KCal/Mol        Cal/Mol-Kelvin    Cal/Mol-Kelvin
 Total                  104.995             31.548             92.055
 Electronic               0.000              0.000              0.000
 Translational            0.889              2.981             40.409
 Rotational               0.889              2.981             28.850
 Vibrational            103.217             25.586             22.797
 Vibration     1          0.594              1.984              5.788
 Vibration     2          0.599              1.965              3.970
 Vibration     3          0.613              1.919              2.888
 Vibration     4          0.673              1.730              1.603
 Vibration     5          0.681              1.706              1.520
 Vibration     6          0.708              1.628              1.292
 Vibration     7          0.741              1.538              1.089
 Vibration     8          0.769              1.461              0.948
 Vibration     9          0.819              1.335              0.761
 Vibration    10          0.918              1.114              0.520

 Optimization completed.
    -- Stationary point found.
 Normal termination of Gaussian 09 at Mon Jan 27 14:41:29 2020.
