 Gaussian 09, Revision D.01,
 Gaussian 09:  ES64L-G09RevD.01 24-Apr-2013

 -----------------------------
 # b3lyp 6-31G(2df,p) opt Freq
 -----------------------------

 -----
 titel
 -----
 Symbolic Z-matrix:
 Charge =  0 Multiplicity = 1

 SCF Done:  E(RB3LYP) =  -423.128835989     A.U. after   14 cycles
 Optimization completed.
    -- Stationary point found.
 Normal termination of Gaussian 09 at Mon Jan 27 14:05:04 2020.

 ----------------------------------------------------------------------
 #N Geom=AllCheck Guess=TCheck SCRF=Check GenChk RB3LYP/6-31G(2df,p) Fr
 eq
 ----------------------------------------------------------------------

 Structure from the checkpoint file:  "/scratch/puck/g09_38486277-d60a-4e86-94da-894d69c09965/Gau-171730.chk"
 -----
 titel
 -----
 Charge =  0 Multiplicity = 1

                         Standard orientation:
 ---------------------------------------------------------------------
 Center     Atomic      Atomic             Coordinates (Angstroms)
 Number     Number       Type             X           Y           Z
 ---------------------------------------------------------------------
      1          6           0       -1.994292   -0.965627   -0.803763
      2          6           0       -1.346680    0.002456    0.162812
      3          8           0       -1.932194    0.451426    1.121564
      4          6           0        0.088028    0.472535   -0.121968
      5          6           0        0.062925    1.937124   -0.549670
      6          6           0        1.097400   -0.060699    0.941593
      7          6           0        2.263047    0.050386   -0.065155
      8          6           0        1.041647   -0.577911   -0.775507
      9          8           0        0.841239   -1.433313    0.422098
     10          1           0       -1.873080   -0.626376   -1.838890
     11          1           0       -1.495095   -1.935651   -0.716820
     12          1           0       -3.053935   -1.072100   -0.567764
     13          1           0       -0.436211    2.529862    0.221735
     14          1           0        1.059005    2.351634   -0.715953
     15          1           0       -0.505680    2.057235   -1.478968
     16          1           0        1.081030    0.077358    2.022100
     17          1           0        2.616974    1.035215   -0.371169
     18          1           0        3.078417   -0.649708    0.117914
     19          1           0        0.983765   -1.061967   -1.751523
 ---------------------------------------------------------------------

 SCF Done:  E(RB3LYP) =  -423.128835989     A.U. after    1 cycles

 The electronic state is 1-A.
 Alpha  occ. eigenvalues --  -19.14175 -19.12581 -10.26744 -10.25639 -10.25528
 Alpha  occ. eigenvalues --  -10.21275 -10.20013 -10.18942 -10.18405  -1.06518
 Alpha  occ. eigenvalues --   -1.03559  -0.81406  -0.75306  -0.72634  -0.66282
 Alpha  occ. eigenvalues --   -0.65767  -0.57354  -0.52850  -0.49615  -0.47844
 Alpha  occ. eigenvalues --   -0.45201  -0.44478  -0.42051  -0.41665  -0.40961
 Alpha  occ. eigenvalues --   -0.39762  -0.39511  -0.36542  -0.35433  -0.33675
 Alpha  occ. eigenvalues --   -0.32975  -0.31287  -0.25220  -0.23774
 Alpha virt. eigenvalues --   -0.00966   0.08062   0.08830   0.10552   0.11851
 Alpha virt. eigenvalues --    0.12419   0.12727   0.13503   0.15415   0.15778
 Alpha virt. eigenvalues --    0.16045   0.17819   0.18077   0.19635   0.21210

 Mulliken charges:
               1
     1  C   -0.487509
     2  C    0.354980
     3  O   -0.322950
     4  C    0.249516
     5  C   -0.496759
     6  C    0.029321
     7  C   -0.244084
     8  C   -0.006247
     9  O   -0.321248
    10  H    0.127309
    11  H    0.162582
    12  H    0.137453
    13  H    0.150294
    14  H    0.121777
    15  H    0.123797
    16  H    0.108598
    17  H    0.103237
    18  H    0.115271
    19  H    0.094661
 Sum of Mulliken charges =   0.00000

 Dipole moment (field-independent basis, Debye):
    X=              1.7137    Y=              0.8617    Z=             -2.4530  Tot=              3.1139
 Quadrupole moment (field-independent basis, Debye-Ang):
   XX=            -54.5050   YY=            -54.8596   ZZ=            -52.7002
   XY=              3.4244   XZ=              4.1785   YZ=              0.6751

  Exact polarizability:  83.437   0.788  71.717  -0.298   2.855  70.315
 Approx polarizability: 111.825  -1.362 109.679  -5.980   6.125 115.984

                      1                      2                      3
                      A                      A                      A
 Frequencies --     51.7914               166.7539               181.6209
 Red. masses --      4.1953                 2.3195                 1.5010
 Frc consts  --      0.0066                 0.0380                 0.0292
 IR Inten    --      5.1037                 1.3607                 0.0814

                      4                      5                      6
                      A                      A                      A
 Frequencies --    188.2122               202.1811               266.8863
 Red. masses --      1.4339                 1.5679                 2.7294
 Frc consts  --      0.0299                 0.0378                 0.1145
 IR Inten    --      1.3234                 1.7953                 1.7139

                      7                      8                      9
                      A                      A                      A
 Frequencies --    309.6225               387.2723               472.5510
 Red. masses --      3.2280                 3.0564                 3.5747
 Frc consts  --      0.1823                 0.2701                 0.4703
 IR Inten    --      0.8040                 3.6201                 0.6695

                     10                     11                     12
                      A                      A                      A
 Frequencies --    531.9559               568.3706               636.7908
 Red. masses --      2.9670                 2.6932                 3.1391
 Frc consts  --      0.4947                 0.5126                 0.7500
 IR Inten    --      4.8434                17.4842                 3.4727

                     13                     14                     15
                      A                      A                      A
 Frequencies --    647.8436               746.3878               798.9886
 Red. masses --      3.2348                 5.7183                 2.6422
 Frc consts  --      0.7999                 1.8769                 0.9938
 IR Inten    --      3.3273                12.9266                 3.2598

                     16                     17                     18
                      A                      A                      A
 Frequencies --    864.4590               872.8677               888.3217
 Red. masses --      2.4728                 2.5119                 2.0051
 Frc consts  --      1.0887                 1.1276                 0.9323
 IR Inten    --     16.4246                 6.9127                11.4849

                     19                     20                     21
                      A                      A                      A
 Frequencies --    921.1523               975.9479              1012.8076
 Red. masses --      3.0152                 1.7669                 1.6889
 Frc consts  --      1.5074                 0.9916                 1.0207
 IR Inten    --      5.7564                16.0999                 5.7947

                     22                     23                     24
                      A                      A                      A
 Frequencies --   1024.6978              1036.6648              1099.8175
 Red. masses --      1.0676                 1.6784                 3.6881
 Frc consts  --      0.6605                 1.0627                 2.6284
 IR Inten    --      0.2325                 2.4943                 3.5278

                     25                     26                     27
                      A                      A                      A
 Frequencies --   1124.5368              1130.3872              1142.9540
 Red. masses --      1.5642                 2.1231                 1.9319
 Frc consts  --      1.1654                 1.5984                 1.4869
 IR Inten    --      8.5484                29.7949                21.1364

                     28                     29                     30
                      A                      A                      A
 Frequencies --   1170.2367              1198.1350              1208.6204
 Red. masses --      1.3034                 2.7249                 1.5095
 Frc consts  --      1.0516                 2.3047                 1.2992
 IR Inten    --      1.1975                10.4968                10.5928

                     31                     32                     33
                      A                      A                      A
 Frequencies --   1257.9094              1280.0884              1307.5004
 Red. masses --      2.2255                 1.9395                 2.8138
 Frc consts  --      2.0748                 1.8725                 2.8341
 IR Inten    --     16.6683                14.0347                 9.4162

                     34                     35                     36
                      A                      A                      A
 Frequencies --   1372.3978              1406.1209              1465.5958
 Red. masses --      1.3428                 1.2276                 1.0576
 Frc consts  --      1.4901                 1.4300                 1.3384
 IR Inten    --     43.2863                 6.5511                 8.1495

                     37                     38                     39
                      A                      A                      A
 Frequencies --   1478.3628              1484.1022              1491.3630
 Red. masses --      1.0506                 1.1249                 1.0506
 Frc consts  --      1.3529                 1.4598                 1.3767
 IR Inten    --      8.4018                 0.3125                 8.8195

                     40                     41                     42
                      A                      A                      A
 Frequencies --   1507.9330              1804.4551              3037.7493
 Red. masses --      1.0798                11.1907                 1.0375
 Frc consts  --      1.4467                21.4685                 5.6407
 IR Inten    --      7.4235               142.1217                 1.8718

                     43                     44                     45
                      A                      A                      A
 Frequencies --   3039.5816              3083.8670              3105.1878
 Red. masses --      1.0389                 1.0568                 1.0948
 Frc consts  --      5.6555                 5.9217                 6.2193
 IR Inten    --     18.9350                23.9925                22.9995

                     46                     47                     48
                      A                      A                      A
 Frequencies --   3107.5622              3108.9269              3131.4414
 Red. masses --      1.0965                 1.0912                 1.0998
 Frc consts  --      6.2388                 6.2139                 6.3542
 IR Inten    --      6.3800                40.6404                19.6032

                     49                     50                     51
                      A                      A                      A
 Frequencies --   3133.3208              3151.3327              3158.7742
 Red. masses --      1.0953                 1.1030                 1.1106
 Frc consts  --      6.3354                 6.4540                 6.5288
 IR Inten    --     20.9967                12.0829                20.9861

 - Thermochemistry -
 -------------------
 Temperature   298.150 Kelvin.  Pressure   1.00000 Atm.
 Atom     1 has atomic number  6 and mass  12.00000

 Molecular mass:   126.06808 amu.
 Principal axes and moments of inertia in atomic units:
                           1         2         3
     Eigenvalues --   677.394141186.533131387.15074
           X            0.99822   0.05148   0.03010
           Y           -0.05184   0.99859   0.01148
           Z           -0.02947  -0.01302   0.99948
 This molecule is an asymmetric top.
 Rotational symmetry number  1.
 Warning -- assumption of classical behavior for rotation
           may cause significant error
 Rotational temperatures (Kelvin)      0.12786     0.07300     0.06244
 Rotational constants (GHZ):           2.66424     1.52102     1.30104
 Zero-point vibrational energy     411170.9 (Joules/Mol)
                                   98.27220 (Kcal/Mol)
 Warning -- explicit consideration of  11 degrees of freedom as
           vibrations may cause significant error
 Vibrational temperatures:     74.52   239.92   261.31   270.80   290.89
          (Kelvin)            383.99   445.48   557.20   679.89   765.37
                              817.76   916.20   932.10  1073.88  1149.56
                             1243.76  1255.86  1278.10  1325.33  1404.17
                             1457.20  1474.31  1491.53  1582.39  1617.96
                             1626.37  1644.45  1683.71  1723.85  1738.93
                             1809.85  1841.76  1881.20  1974.57  2023.09
                             2108.66  2127.03  2135.29  2145.74  2169.58
                             2596.21  4370.64  4373.27  4436.99  4467.67
                             4471.08  4473.05  4505.44  4508.14  4534.06
                             4544.77

 Zero-point correction=                           0.156607 (Hartree/Particle)
 Thermal correction to Energy=                    0.165471
 Thermal correction to Enthalpy=                  0.166416
 Thermal correction to Gibbs Free Energy=         0.123019
 Sum of electronic and zero-point Energies=           -422.972229
 Sum of electronic and thermal Energies=              -422.963365
 Sum of electronic and thermal Enthalpies=            -422.962420
 Sum of electronic and thermal Free Energies=         -423.005817

                     E (Thermal)             CV                S
                      KCal/Mol        Cal/Mol-Kelvin    Cal/Mol-Kelvin
 Total                  103.835             33.456             91.336
 Electronic               0.000              0.000              0.000
 Translational            0.889              2.981             40.409
 Rotational               0.889              2.981             28.502
 Vibrational            102.057             27.495             22.425
 Vibration     1          0.596              1.977              4.748
 Vibration     2          0.624              1.883              2.472
 Vibration     3          0.630              1.865              2.312
 Vibration     4          0.633              1.856              2.245
 Vibration     5          0.639              1.837              2.113
 Vibration     6          0.672              1.734              1.616
 Vibration     7          0.699              1.655              1.364
 Vibration     8          0.756              1.497              1.011
 Vibration     9          0.829              1.311              0.730
 Vibration    10          0.887              1.179              0.583
 Vibration    11          0.924              1.100              0.507

 Normal termination of Gaussian 09 at Mon Jan 27 14:49:41 2020.
