 Gaussian 09, Revision D.01,
 Gaussian 09:  ES64L-G09RevD.01 24-Apr-2013

 -----------------------------
 # b3lyp 6-31G(2df,p) opt Freq
 -----------------------------

 -----
 titel
 -----
 Symbolic Z-matrix:
 Charge =  0 Multiplicity = 1

 SCF Done:  E(RB3LYP) =  -423.154417210     A.U. after   14 cycles
 Optimization completed.
    -- Stationary point found.
 Normal termination of Gaussian 09 at Mon Jan 27 16:23:26 2020.

 ----------------------------------------------------------------------
 #N Geom=AllCheck Guess=TCheck SCRF=Check GenChk RB3LYP/6-31G(2df,p) Fr
 eq
 ----------------------------------------------------------------------

 Structure from the checkpoint file:  "/scratch/puck/g09_99ce723f-9c95-4ee0-95f1-1a2e60c70978/Gau-165350.chk"
 -----
 titel
 -----
 Charge =  0 Multiplicity = 1

                         Standard orientation:
 ---------------------------------------------------------------------
 Center     Atomic      Atomic             Coordinates (Angstroms)
 Number     Number       Type             X           Y           Z
 ---------------------------------------------------------------------
      1          6           0        2.558261   -0.433385    0.283740
      2          6           0        1.073282   -0.255901   -0.006581
      3          8           0        0.642264   -1.483833   -0.585885
      4          6           0        0.769388    0.944447   -0.934339
      5          8           0       -0.474492    1.520796   -0.516260
      6          6           0       -0.999208    0.794293    0.597049
      7          6           0        0.224329    0.106130    1.231576
      8          6           0       -2.034315   -0.160551    0.168006
      9          6           0       -2.875431   -0.941373   -0.194334
     10          1           0        2.979140    0.460676    0.751755
     11          1           0        2.709862   -1.286623    0.950347
     12          1           0        3.102412   -0.632702   -0.644274
     13          1           0       -0.313529   -1.446290   -0.719531
     14          1           0        1.544077    1.718321   -0.867930
     15          1           0        0.697945    0.606568   -1.973908
     16          1           0       -1.457418    1.523963    1.273402
     17          1           0        0.750972    0.831552    1.858817
     18          1           0       -0.023978   -0.772885    1.827647
     19          1           0       -3.629497   -1.620247   -0.509871
 ---------------------------------------------------------------------

 SCF Done:  E(RB3LYP) =  -423.154417210     A.U. after    1 cycles

 The electronic state is 1-A.
 Alpha  occ. eigenvalues --  -19.14385 -19.12921 -10.26265 -10.24333 -10.22395
 Alpha  occ. eigenvalues --  -10.19348 -10.19234 -10.18924 -10.17790  -1.04489
 Alpha  occ. eigenvalues --   -1.01044  -0.79662  -0.78197  -0.73271  -0.69027
 Alpha  occ. eigenvalues --   -0.62785  -0.57732  -0.54326  -0.52223  -0.50619
 Alpha  occ. eigenvalues --   -0.46713  -0.45645  -0.42397  -0.41869  -0.40924
 Alpha  occ. eigenvalues --   -0.38559  -0.36789  -0.35809  -0.34483  -0.32022
 Alpha  occ. eigenvalues --   -0.28846  -0.27890  -0.26857  -0.25307
 Alpha virt. eigenvalues --    0.02797   0.03658   0.08687   0.11257   0.11494
 Alpha virt. eigenvalues --    0.12260   0.13539   0.14125   0.14530   0.16105
 Alpha virt. eigenvalues --    0.17458   0.19126   0.19177   0.20002   0.22203

 Mulliken charges:
               1
     1  C   -0.429164
     2  C    0.355906
     3  O   -0.478390
     4  C   -0.106199
     5  O   -0.260663
     6  C   -0.082811
     7  C   -0.273206
     8  C    0.334951
     9  C   -0.471147
    10  H    0.112630
    11  H    0.127828
    12  H    0.127749
    13  H    0.282142
    14  H    0.097826
    15  H    0.112214
    16  H    0.112198
    17  H    0.107177
    18  H    0.122758
    19  H    0.208203
 Sum of Mulliken charges =   0.00000

 Dipole moment (field-independent basis, Debye):
    X=             -0.0172    Y=              0.0180    Z=              1.1328  Tot=              1.1331
 Quadrupole moment (field-independent basis, Debye-Ang):
   XX=            -49.0577   YY=            -56.4030   ZZ=            -52.1479
   XY=              5.9313   XZ=              0.7563   YZ=              1.7723

  Exact polarizability:  93.801  10.380  71.026   1.988   3.821  65.269
 Approx polarizability: 125.218  20.605 114.147   5.797   9.647  97.777

                      1                      2                      3
                      A                      A                      A
 Frequencies --     33.1187               116.3676               171.0820
 Red. masses --      3.3132                 4.2616                 3.8596
 Frc consts  --      0.0021                 0.0340                 0.0666
 IR Inten    --      3.2211                 0.1068                 3.2641

                      4                      5                      6
                      A                      A                      A
 Frequencies --    227.1909               249.2905               295.1955
 Red. masses --      1.0950                 4.5723                 2.2075
 Frc consts  --      0.0333                 0.1674                 0.1133
 IR Inten    --      0.3451                 1.5898                 1.0794

                      7                      8                      9
                      A                      A                      A
 Frequencies --    367.1531               392.4948               408.0341
 Red. masses --      3.2378                 1.0753                 2.2815
 Frc consts  --      0.2572                 0.0976                 0.2238
 IR Inten    --      2.5130                65.3322                 4.0079

                     10                     11                     12
                      A                      A                      A
 Frequencies --    448.6627               464.6441               541.8630
 Red. masses --      2.9668                 3.7435                 5.8611
 Frc consts  --      0.3519                 0.4762                 1.0139
 IR Inten    --      4.9882                 5.1551                 8.2828

                     13                     14                     15
                      A                      A                      A
 Frequencies --    619.1064               637.5201               669.9031
 Red. masses --      4.0478                 1.2579                 1.2594
 Frc consts  --      0.9141                 0.3012                 0.3330
 IR Inten    --      6.5496                38.6744                38.4517

                     16                     17                     18
                      A                      A                      A
 Frequencies --    767.6291               788.2202               836.0089
 Red. masses --      5.4989                 3.2467                 3.1101
 Frc consts  --      1.9091                 1.1885                 1.2807
 IR Inten    --     10.1722                 3.3061                 0.4751

                     19                     20                     21
                      A                      A                      A
 Frequencies --    914.7496               924.9363               938.5798
 Red. masses --      2.3140                 3.8389                 2.5527
 Frc consts  --      1.1408                 1.9350                 1.3249
 IR Inten    --      5.7544                30.1710                18.4603

                     22                     23                     24
                      A                      A                      A
 Frequencies --    984.2607               988.7591              1014.1317
 Red. masses --      1.8996                 1.6603                 1.6487
 Frc consts  --      1.0842                 0.9563                 0.9990
 IR Inten    --     12.1135                 4.3129                10.4075

                     25                     26                     27
                      A                      A                      A
 Frequencies --   1065.6219              1126.7987              1158.1196
 Red. masses --      4.6071                 2.3110                 1.5067
 Frc consts  --      3.0824                 1.7288                 1.1906
 IR Inten    --     94.8084                41.6671                31.4482

                     28                     29                     30
                      A                      A                      A
 Frequencies --   1187.4776              1219.6033              1263.3161
 Red. masses --      1.7853                 1.6089                 1.7336
 Frc consts  --      1.4832                 1.4100                 1.6301
 IR Inten    --     19.7521                 8.3376                 5.0833

                     31                     32                     33
                      A                      A                      A
 Frequencies --   1279.5105              1310.1766              1355.3213
 Red. masses --      1.6487                 1.3054                 1.2836
 Frc consts  --      1.5903                 1.3202                 1.3892
 IR Inten    --     34.2934                 1.0758                17.3663

                     34                     35                     36
                      A                      A                      A
 Frequencies --   1366.6908              1405.7137              1430.1982
 Red. masses --      1.2789                 1.2629                 1.6908
 Frc consts  --      1.4074                 1.4703                 2.0377
 IR Inten    --     18.1885                 8.6802                39.8330

                     37                     38                     39
                      A                      A                      A
 Frequencies --   1471.6496              1483.0089              1500.6407
 Red. masses --      1.1090                 1.0513                 1.0547
 Frc consts  --      1.4150                 1.3623                 1.3994
 IR Inten    --      5.6832                 2.9430                 1.3174

                     40                     41                     42
                      A                      A                      A
 Frequencies --   1516.7477              2220.4961              3020.5964
 Red. masses --      1.0844                 5.9060                 1.0592
 Frc consts  --      1.4698                17.1571                 5.6941
 IR Inten    --      1.6044                 1.2548                51.9247

                     43                     44                     45
                      A                      A                      A
 Frequencies --   3044.6285              3047.6540              3066.0152
 Red. masses --      1.0366                 1.0805                 1.0671
 Frc consts  --      5.6617                 5.9127                 5.9102
 IR Inten    --     15.1012                18.0344                14.4720

                     46                     47                     48
                      A                      A                      A
 Frequencies --   3070.6347              3117.1797              3124.3051
 Red. masses --      1.1047                 1.1015                 1.1024
 Frc consts  --      6.1371                 6.3063                 6.3399
 IR Inten    --     33.6494                17.6499                14.4162

                     49                     50                     51
                      A                      A                      A
 Frequencies --   3134.9619              3498.1797              3758.9358
 Red. masses --      1.1027                 1.1617                 1.0662
 Frc consts  --      6.3854                 8.3761                 8.8761
 IR Inten    --     15.4902                68.1815                82.1832

 - Thermochemistry -
 -------------------
 Temperature   298.150 Kelvin.  Pressure   1.00000 Atm.
 Atom     1 has atomic number  6 and mass  12.00000

 Molecular mass:   126.06808 amu.
 Principal axes and moments of inertia in atomic units:
                           1         2         3
     Eigenvalues --   638.625631343.364231551.56672
           X            0.99980   0.01856   0.00706
           Y           -0.01866   0.99973   0.01360
           Z           -0.00680  -0.01373   0.99988
 This molecule is an asymmetric top.
 Rotational symmetry number  1.
 Warning -- assumption of classical behavior for rotation
           may cause significant error
 Rotational temperatures (Kelvin)      0.13563     0.06448     0.05582
 Rotational constants (GHZ):           2.82598     1.34345     1.16317
 Zero-point vibrational energy     412969.3 (Joules/Mol)
                                   98.70204 (Kcal/Mol)
 Warning -- explicit consideration of  13 degrees of freedom as
           vibrations may cause significant error
 Vibrational temperatures:     47.65   167.43   246.15   326.88   358.67
          (Kelvin)            424.72   528.25   564.71   587.07   645.52
                              668.52   779.62   890.75   917.25   963.84
                             1104.45  1134.07  1202.83  1316.12  1330.78
                             1350.41  1416.13  1422.60  1459.11  1533.19
                             1621.21  1666.27  1708.51  1754.73  1817.63
                             1840.93  1885.05  1950.00  1966.36  2022.51
                             2057.73  2117.37  2133.72  2159.08  2182.26
                             3194.79  4345.96  4380.54  4384.89  4411.31
                             4417.95  4484.92  4495.17  4510.51  5033.09
                             5408.26

 Zero-point correction=                           0.157292 (Hartree/Particle)
 Thermal correction to Energy=                    0.166517
 Thermal correction to Enthalpy=                  0.167461
 Thermal correction to Gibbs Free Energy=         0.123069
 Sum of electronic and zero-point Energies=           -422.997125
 Sum of electronic and thermal Energies=              -422.987900
 Sum of electronic and thermal Enthalpies=            -422.986956
 Sum of electronic and thermal Free Energies=         -423.031348

                     E (Thermal)             CV                S
                      KCal/Mol        Cal/Mol-Kelvin    Cal/Mol-Kelvin
 Total                  104.491             35.110             93.432
 Electronic               0.000              0.000              0.000
 Translational            0.889              2.981             40.409
 Rotational               0.889              2.981             28.678
 Vibrational            102.714             29.148             24.345
 Vibration     1          0.594              1.983              5.633
 Vibration     2          0.608              1.936              3.160
 Vibration     3          0.626              1.878              2.424
 Vibration     4          0.651              1.800              1.901
 Vibration     5          0.662              1.764              1.736
 Vibration     6          0.689              1.683              1.444
 Vibration     7          0.740              1.540              1.092
 Vibration     8          0.760              1.486              0.991
 Vibration     9          0.773              1.453              0.934
 Vibration    10          0.808              1.364              0.800
 Vibration    11          0.822              1.328              0.753
 Vibration    12          0.897              1.158              0.561
 Vibration    13          0.979              0.992              0.418

 Optimization completed.
    -- Stationary point found.
 Normal termination of Gaussian 09 at Mon Jan 27 17:05:50 2020.
