 Gaussian 09, Revision D.01,
 Gaussian 09:  ES64L-G09RevD.01 24-Apr-2013

 -----------------------------
 # b3lyp 6-31G(2df,p) opt Freq
 -----------------------------

 -----
 titel
 -----
 Symbolic Z-matrix:
 Charge =  0 Multiplicity = 1

 SCF Done:  E(RB3LYP) =  -423.147580826     A.U. after   14 cycles
 Optimization completed.
    -- Stationary point found.
 Normal termination of Gaussian 09 at Tue Jan 28 12:09:32 2020.

 ----------------------------------------------------------------------
 #N Geom=AllCheck Guess=TCheck SCRF=Check GenChk RB3LYP/6-31G(2df,p) Fr
 eq
 ----------------------------------------------------------------------

 Structure from the checkpoint file:  "/scratch/puck/g09_0477db72-d99a-464a-8bd9-953ca06569f3/Gau-128759.chk"
 -----
 titel
 -----
 Charge =  0 Multiplicity = 1

                         Standard orientation:
 ---------------------------------------------------------------------
 Center     Atomic      Atomic             Coordinates (Angstroms)
 Number     Number       Type             X           Y           Z
 ---------------------------------------------------------------------
      1          8           0       -2.537177   -0.906622    0.029732
      2          6           0       -2.129132    0.446573    0.131511
      3          6           0       -0.673276    0.544236   -0.173531
      4          6           0        0.202733   -0.405059   -0.486106
      5          6           0        0.597220   -1.823636   -0.137776
      6          6           0        1.864748   -1.162207    0.529711
      7          6           0        1.595245    0.113536   -0.353097
      8          8           0        1.495903    1.426813    0.166284
      9          6           0        0.122443    1.831347    0.035909
     10          1           0       -3.484404   -0.945766    0.189542
     11          1           0       -2.699350    1.091053   -0.561837
     12          1           0       -2.317255    0.848689    1.144138
     13          1           0       -0.093151   -2.383551    0.492071
     14          1           0        0.872759   -2.433234   -1.003750
     15          1           0        1.691249   -0.943509    1.584971
     16          1           0        2.823891   -1.669042    0.398469
     17          1           0        2.220424    0.104558   -1.257721
     18          1           0        0.020103    2.553751   -0.791054
     19          1           0       -0.183967    2.346778    0.957320
 ---------------------------------------------------------------------

 SCF Done:  E(RB3LYP) =  -423.147580826     A.U. after    1 cycles

 The electronic state is 1-A.
 Alpha  occ. eigenvalues --  -19.14098 -19.12957 -10.23884 -10.22818 -10.22025
 Alpha  occ. eigenvalues --  -10.18927 -10.18406 -10.18211 -10.17580  -1.02721
 Alpha  occ. eigenvalues --   -1.02204  -0.84176  -0.77796  -0.68094  -0.67041
 Alpha  occ. eigenvalues --   -0.63220  -0.57105  -0.52452  -0.51626  -0.47735
 Alpha  occ. eigenvalues --   -0.46215  -0.45419  -0.43979  -0.41985  -0.40439
 Alpha  occ. eigenvalues --   -0.36438  -0.35576  -0.34979  -0.33372  -0.32788
 Alpha  occ. eigenvalues --   -0.29615  -0.27744  -0.24885  -0.21869
 Alpha virt. eigenvalues --    0.01590   0.06831   0.10166   0.11275   0.11960
 Alpha virt. eigenvalues --    0.13376   0.14499   0.15936   0.17070   0.17462
 Alpha virt. eigenvalues --    0.17814   0.19083   0.19460   0.20897   0.22396

 Mulliken charges:
               1
     1  O   -0.412303
     2  C   -0.184819
     3  C    0.142725
     4  C    0.137730
     5  C   -0.305553
     6  C   -0.253537
     7  C    0.097725
     8  O   -0.279414
     9  C   -0.155922
    10  H    0.289855
    11  H    0.098408
    12  H    0.095317
    13  H    0.125469
    14  H    0.111382
    15  H    0.115372
    16  H    0.098524
    17  H    0.075065
    18  H    0.099080
    19  H    0.104896
 Sum of Mulliken charges =   0.00000

 Dipole moment (field-independent basis, Debye):
    X=             -2.2106    Y=             -0.2465    Z=              0.2153  Tot=              2.2347
 Quadrupole moment (field-independent basis, Debye-Ang):
   XX=            -46.3838   YY=            -53.5823   ZZ=            -53.1010
   XY=             -5.0252   XZ=             -2.7704   YZ=             -0.5323

  Exact polarizability:  91.690 -12.600  88.033  -4.019   1.769  59.699
 Approx polarizability: 126.947 -21.250 128.938  -7.836   7.019  93.495

                      1                      2                      3
                      A                      A                      A
 Frequencies --     68.1913               125.0135               165.1390
 Red. masses --      3.6535                 3.3085                 2.2922
 Frc consts  --      0.0100                 0.0305                 0.0368
 IR Inten    --     10.3656                 6.4790                 2.9753

                      4                      5                      6
                      A                      A                      A
 Frequencies --    174.6927               244.4385               267.8194
 Red. masses --      2.6297                 1.1517                 2.3496
 Frc consts  --      0.0473                 0.0405                 0.0993
 IR Inten    --      5.7654                91.3837                 5.1717

                      7                      8                      9
                      A                      A                      A
 Frequencies --    377.9022               385.0304               449.2510
 Red. masses --      3.9900                 3.1717                 3.3934
 Frc consts  --      0.3357                 0.2770                 0.4035
 IR Inten    --      0.3451                 4.6855                 0.3762

                     10                     11                     12
                      A                      A                      A
 Frequencies --    646.7705               668.5460               704.2673
 Red. masses --      3.3145                 3.5665                 2.7468
 Frc consts  --      0.8169                 0.9392                 0.8027
 IR Inten    --      9.6645                 4.6748                19.2510

                     13                     14                     15
                      A                      A                      A
 Frequencies --    749.4656               798.9046               878.5929
 Red. masses --      3.3147                 1.5336                 3.1083
 Frc consts  --      1.0970                 0.5767                 1.4137
 IR Inten    --      2.5978                 3.4271                 3.9965

                     16                     17                     18
                      A                      A                      A
 Frequencies --    908.0460               960.6883               977.2039
 Red. masses --      2.5513                 2.0977                 2.1338
 Frc consts  --      1.2394                 1.1406                 1.2005
 IR Inten    --      9.6874                 6.2585                 4.3154

                     19                     20                     21
                      A                      A                      A
 Frequencies --    993.4135              1053.1317              1059.4409
 Red. masses --      2.5109                 4.1774                 2.4420
 Frc consts  --      1.4599                 2.7297                 1.6149
 IR Inten    --     16.7623                15.9761                 4.1683

                     22                     23                     24
                      A                      A                      A
 Frequencies --   1074.5447              1098.4582              1117.8701
 Red. masses --      1.9800                 2.7895                 3.3295
 Frc consts  --      1.3470                 1.9831                 2.4514
 IR Inten    --     15.1954                24.2719                63.3154

                     25                     26                     27
                      A                      A                      A
 Frequencies --   1132.8291              1170.8015              1187.6762
 Red. masses --      1.9635                 1.3208                 1.3742
 Frc consts  --      1.4846                 1.0667                 1.1421
 IR Inten    --     33.2524                10.2205                 2.3396

                     28                     29                     30
                      A                      A                      A
 Frequencies --   1205.6906              1222.2021              1242.6484
 Red. masses --      1.2895                 1.4014                 1.2952
 Frc consts  --      1.1044                 1.2334                 1.1784
 IR Inten    --      1.1058                 0.1060                13.5375

                     31                     32                     33
                      A                      A                      A
 Frequencies --   1250.3471              1255.0768              1284.0220
 Red. masses --      1.3324                 1.2200                 1.9925
 Frc consts  --      1.2273                 1.1322                 1.9355
 IR Inten    --      1.5709                42.3953                 7.3417

                     34                     35                     36
                      A                      A                      A
 Frequencies --   1343.4509              1380.3555              1467.4398
 Red. masses --      1.3332                 1.4191                 1.5273
 Frc consts  --      1.4177                 1.5931                 1.9378
 IR Inten    --      0.6782                16.0116                18.5679

                     37                     38                     39
                      A                      A                      A
 Frequencies --   1470.4649              1487.4508              1508.6856
 Red. masses --      1.1005                 1.1233                 1.0824
 Frc consts  --      1.4020                 1.4644                 1.4516
 IR Inten    --      3.1258                 1.0468                 3.8778

                     40                     41                     42
                      A                      A                      A
 Frequencies --   1520.1667              1771.2226              2931.1587
 Red. masses --      1.0909                 9.5654                 1.0565
 Frc consts  --      1.4853                17.6807                 5.3482
 IR Inten    --      2.2780                 1.6445                62.5375

                     43                     44                     45
                      A                      A                      A
 Frequencies --   2942.2943              2961.2859              2994.6079
 Red. masses --      1.1007                 1.0691                 1.0838
 Frc consts  --      5.6142                 5.5239                 5.7262
 IR Inten    --     48.0614               114.5844                69.0991

                     46                     47                     48
                      A                      A                      A
 Frequencies --   3012.5901              3059.4968              3065.7596
 Red. masses --      1.0919                 1.0637                 1.0593
 Frc consts  --      5.8387                 5.8663                 5.8659
 IR Inten    --     49.6521                28.1899                56.6457

                     49                     50                     51
                      A                      A                      A
 Frequencies --   3131.8601              3143.6535              3835.4280
 Red. masses --      1.1051                 1.1039                 1.0664
 Frc consts  --      6.3865                 6.4278                 9.2428
 IR Inten    --     12.8142                26.1468                24.4388

 - Thermochemistry -
 -------------------
 Temperature   298.150 Kelvin.  Pressure   1.00000 Atm.
 Atom     1 has atomic number  8 and mass  15.99491

 Molecular mass:   126.06808 amu.
 Principal axes and moments of inertia in atomic units:
                           1         2         3
     Eigenvalues --   705.276871199.618311778.36114
           X            0.99742  -0.07147  -0.00619
           Y            0.07145   0.99744  -0.00346
           Z            0.00642   0.00301   0.99997
 This molecule is an asymmetric top.
 Rotational symmetry number  1.
 Warning -- assumption of classical behavior for rotation
           may cause significant error
 Rotational temperatures (Kelvin)      0.12281     0.07220     0.04870
 Rotational constants (GHZ):           2.55891     1.50443     1.01483
 Zero-point vibrational energy     418247.3 (Joules/Mol)
                                   99.96350 (Kcal/Mol)
 Warning -- explicit consideration of   9 degrees of freedom as
           vibrations may cause significant error
 Vibrational temperatures:     98.11   179.87   237.60   251.34   351.69
          (Kelvin)            385.33   543.72   553.97   646.37   930.56
                              961.89  1013.28  1078.31  1149.44  1264.10
                             1306.47  1382.21  1405.98  1429.30  1515.22
                             1524.30  1546.03  1580.43  1608.36  1629.89
                             1684.52  1708.80  1734.72  1758.47  1787.89
                             1798.97  1805.77  1847.42  1932.92  1986.02
                             2111.32  2115.67  2140.11  2170.66  2187.18
                             2548.39  4217.28  4233.30  4260.62  4308.57
                             4334.44  4401.93  4410.94  4506.04  4523.01
                             5518.32

 Zero-point correction=                           0.159302 (Hartree/Particle)
 Thermal correction to Energy=                    0.167816
 Thermal correction to Enthalpy=                  0.168760
 Thermal correction to Gibbs Free Energy=         0.125792
 Sum of electronic and zero-point Energies=           -422.988279
 Sum of electronic and thermal Energies=              -422.979765
 Sum of electronic and thermal Enthalpies=            -422.978821
 Sum of electronic and thermal Free Energies=         -423.021788

                     E (Thermal)             CV                S
                      KCal/Mol        Cal/Mol-Kelvin    Cal/Mol-Kelvin
 Total                  105.306             31.679             90.433
 Electronic               0.000              0.000              0.000
 Translational            0.889              2.981             40.409
 Rotational               0.889              2.981             28.800
 Vibrational            103.529             25.718             21.225
 Vibration     1          0.598              1.969              4.205
 Vibration     2          0.610              1.928              3.021
 Vibration     3          0.624              1.885              2.490
 Vibration     4          0.627              1.874              2.384
 Vibration     5          0.660              1.772              1.770
 Vibration     6          0.673              1.732              1.610
 Vibration     7          0.748              1.517              1.048
 Vibration     8          0.754              1.502              1.019
 Vibration     9          0.808              1.363              0.798

 Normal termination of Gaussian 09 at Tue Jan 28 13:00:03 2020.
