 Gaussian 09, Revision D.01,
 Gaussian 09:  ES64L-G09RevD.01 24-Apr-2013

 -----------------------------
 # b3lyp 6-31G(2df,p) opt Freq
 -----------------------------

 -----
 titel
 -----
 Symbolic Z-matrix:
 Charge =  0 Multiplicity = 1

 SCF Done:  E(RB3LYP) =  -423.210329419     A.U. after   14 cycles
 Optimization completed.
    -- Stationary point found.
 Normal termination of Gaussian 09 at Mon Jan 27 22:13:58 2020.

 ----------------------------------------------------------------------
 #N Geom=AllCheck Guess=TCheck SCRF=Check GenChk RB3LYP/6-31G(2df,p) Fr
 eq
 ----------------------------------------------------------------------

 Structure from the checkpoint file:  "/scratch/puck/g09_203b6d91-e2c0-45b5-affa-7d07c1558e40/Gau-28363.chk"
 -----
 titel
 -----
 Charge =  0 Multiplicity = 1

                         Standard orientation:
 ---------------------------------------------------------------------
 Center     Atomic      Atomic             Coordinates (Angstroms)
 Number     Number       Type             X           Y           Z
 ---------------------------------------------------------------------
      1          6           0        2.273726   -1.290489    0.467645
      2          6           0        0.944809   -0.587804    0.639019
      3          6           0       -0.066458   -0.678413   -0.523833
      4          6           0       -1.504919   -0.534505   -0.176886
      5          8           0       -2.417012   -1.213883   -0.582831
      6          6           0       -1.654711    0.697461    0.735770
      7          6           0       -0.425765    1.579787    0.434239
      8          6           0        0.631689    0.635559   -0.139291
      9          8           0        1.660311    1.186245   -0.892382
     10          1           0        2.659383   -1.164039   -0.545788
     11          1           0        3.016551   -0.877754    1.158169
     12          1           0        2.176362   -2.360669    0.675076
     13          1           0        0.530295   -0.652714    1.642625
     14          1           0        0.218344   -1.270354   -1.384974
     15          1           0       -2.612445    1.186283    0.549360
     16          1           0       -1.666125    0.361550    1.779577
     17          1           0       -0.678848    2.321358   -0.334084
     18          1           0       -0.054324    2.129851    1.304533
     19          1           0        1.274189    1.618017   -1.662763
 ---------------------------------------------------------------------

 SCF Done:  E(RB3LYP) =  -423.210329419     A.U. after    1 cycles

 The electronic state is 1-A.
 Alpha  occ. eigenvalues --  -19.15954 -19.11831 -10.26161 -10.25399 -10.20858
 Alpha  occ. eigenvalues --  -10.19856 -10.19293 -10.19234 -10.18386  -1.04739
 Alpha  occ. eigenvalues --   -1.02932  -0.88502  -0.78260  -0.71351  -0.68349
 Alpha  occ. eigenvalues --   -0.61631  -0.57818  -0.54609  -0.51541  -0.47508
 Alpha  occ. eigenvalues --   -0.45807  -0.44073  -0.42270  -0.40852  -0.40166
 Alpha  occ. eigenvalues --   -0.39589  -0.39173  -0.37645  -0.36769  -0.34675
 Alpha  occ. eigenvalues --   -0.32309  -0.29290  -0.26264  -0.23107
 Alpha virt. eigenvalues --   -0.00737   0.06465   0.08823   0.09909   0.12083
 Alpha virt. eigenvalues --    0.12394   0.14422   0.15909   0.16724   0.17559
 Alpha virt. eigenvalues --    0.18208   0.18802   0.19889   0.20859   0.22331

 Mulliken charges:
               1
     1  C   -0.416699
     2  C   -0.055957
     3  C   -0.253192
     4  C    0.418173
     5  O   -0.336674
     6  C   -0.346183
     7  C   -0.284748
     8  C    0.403643
     9  O   -0.465323
    10  H    0.134699
    11  H    0.125940
    12  H    0.122808
    13  H    0.091647
    14  H    0.103879
    15  H    0.128856
    16  H    0.131633
    17  H    0.099892
    18  H    0.111628
    19  H    0.285979
 Sum of Mulliken charges =   0.00000

 Dipole moment (field-independent basis, Debye):
    X=              1.6073    Y=              1.9338    Z=              0.5139  Tot=              2.5665
 Quadrupole moment (field-independent basis, Debye-Ang):
   XX=            -62.6373   YY=            -53.2750   ZZ=            -48.8636
   XY=             -7.1757   XZ=             -2.6968   YZ=             -3.2348

  Exact polarizability:  88.497  -0.797  75.276   1.824   1.278  66.424
 Approx polarizability: 125.843   9.475 110.251   7.140   3.001 104.250

                      1                      2                      3
                      A                      A                      A
 Frequencies --    109.3337               179.5513               187.4984
 Red. masses --      4.7570                 1.4901                 1.6575
 Frc consts  --      0.0335                 0.0283                 0.0343
 IR Inten    --      4.7916                 0.4851                 1.7387

                      4                      5                      6
                      A                      A                      A
 Frequencies --    213.7914               231.6405               303.1466
 Red. masses --      2.1799                 2.5333                 1.3407
 Frc consts  --      0.0587                 0.0801                 0.0726
 IR Inten    --      1.4284                 0.9445                42.3290

                      7                      8                      9
                      A                      A                      A
 Frequencies --    351.8520               394.3124               460.4445
 Red. masses --      2.7991                 2.7948                 4.0670
 Frc consts  --      0.2042                 0.2560                 0.5080
 IR Inten    --     59.1138                 8.4501                 1.7538

                     10                     11                     12
                      A                      A                      A
 Frequencies --    496.8824               520.2770               611.8014
 Red. masses --      3.5986                 3.1399                 2.8865
 Frc consts  --      0.5235                 0.5008                 0.6366
 IR Inten    --      4.1305                 3.8457                 7.3361

                     13                     14                     15
                      A                      A                      A
 Frequencies --    644.7468               677.7467               782.6572
 Red. masses --      4.7918                 3.6078                 2.4691
 Frc consts  --      1.1736                 0.9764                 0.8911
 IR Inten    --      5.6001                 5.2103                16.7532

                     16                     17                     18
                      A                      A                      A
 Frequencies --    814.1940               876.1863               920.8289
 Red. masses --      2.6622                 2.1157                 2.1001
 Frc consts  --      1.0398                 0.9570                 1.0492
 IR Inten    --      2.3893                 7.2302                28.1749

                     19                     20                     21
                      A                      A                      A
 Frequencies --    965.0572               985.7743              1014.3896
 Red. masses --      1.4150                 2.0210                 1.3778
 Frc consts  --      0.7765                 1.1571                 0.8353
 IR Inten    --      4.9989                 0.8961                12.2745

                     22                     23                     24
                      A                      A                      A
 Frequencies --   1040.0081              1056.4355              1115.1145
 Red. masses --      1.6522                 2.7553                 3.0548
 Frc consts  --      1.0529                 1.8118                 2.2381
 IR Inten    --      2.9286                21.8034                11.3948

                     25                     26                     27
                      A                      A                      A
 Frequencies --   1130.2618              1150.1661              1178.6798
 Red. masses --      1.5496                 1.2618                 2.1431
 Frc consts  --      1.1664                 0.9834                 1.7542
 IR Inten    --     13.4005                 3.5455                48.6154

                     28                     29                     30
                      A                      A                      A
 Frequencies --   1208.1283              1228.2251              1258.6781
 Red. masses --      1.4930                 1.7945                 1.6968
 Frc consts  --      1.2839                 1.5950                 1.5839
 IR Inten    --     10.2348                 5.4141                26.9886

                     31                     32                     33
                      A                      A                      A
 Frequencies --   1275.7867              1285.2144              1330.5499
 Red. masses --      1.4680                 1.9767                 1.5759
 Frc consts  --      1.4078                 1.9237                 1.6437
 IR Inten    --     58.9419               114.8696                43.2623

                     34                     35                     36
                      A                      A                      A
 Frequencies --   1368.7353              1415.9923              1459.4697
 Red. masses --      1.5936                 1.2882                 1.4890
 Frc consts  --      1.7590                 1.5217                 1.8687
 IR Inten    --      6.2812                 0.5922                 2.1620

                     37                     38                     39
                      A                      A                      A
 Frequencies --   1466.8059              1492.2046              1496.1144
 Red. masses --      1.3409                 1.0462                 1.0722
 Frc consts  --      1.6998                 1.3725                 1.4141
 IR Inten    --     10.4850                 2.5188                 2.3504

                     40                     41                     42
                      A                      A                      A
 Frequencies --   1509.8344              1825.1129              3027.5928
 Red. masses --      1.2896                12.2049                 1.0645
 Frc consts  --      1.7320                23.9533                 5.7490
 IR Inten    --      6.6711               300.1456                37.2481

                     43                     44                     45
                      A                      A                      A
 Frequencies --   3041.5413              3045.3151              3079.4781
 Red. masses --      1.0370                 1.0686                 1.0981
 Frc consts  --      5.6521                 5.8389                 6.1356
 IR Inten    --     28.8092                 9.1109                23.3926

                     46                     47                     48
                      A                      A                      A
 Frequencies --   3101.7351              3119.6660              3122.3023
 Red. masses --      1.1014                 1.0948                 1.0912
 Frc consts  --      6.2430                 6.2779                 6.2675
 IR Inten    --     18.8695                10.2535                 3.4571

                     49                     50                     51
                      A                      A                      A
 Frequencies --   3139.7330              3196.5295              3794.6448
 Red. masses --      1.0968                 1.0913                 1.0660
 Frc consts  --      6.3705                 6.5700                 9.0436
 IR Inten    --     22.6003                 2.6360                21.5557

 - Thermochemistry -
 -------------------
 Temperature   298.150 Kelvin.  Pressure   1.00000 Atm.
 Atom     1 has atomic number  6 and mass  12.00000

 Molecular mass:   126.06808 amu.
 Principal axes and moments of inertia in atomic units:
                           1         2         3
     Eigenvalues --   698.634541302.579481621.75602
           X            0.99618  -0.08700  -0.00801
           Y            0.08696   0.99620  -0.00581
           Z            0.00848   0.00510   0.99995
 This molecule is an asymmetric top.
 Rotational symmetry number  1.
 Warning -- assumption of classical behavior for rotation
           may cause significant error
 Rotational temperatures (Kelvin)      0.12398     0.06649     0.05341
 Rotational constants (GHZ):           2.58324     1.38551     1.11283
 Zero-point vibrational energy     416911.5 (Joules/Mol)
                                   99.64425 (Kcal/Mol)
 Warning -- explicit consideration of  12 degrees of freedom as
           vibrations may cause significant error
 Vibrational temperatures:    157.31   258.33   269.77   307.60   333.28
          (Kelvin)            436.16   506.24   567.33   662.48   714.90
                              748.56   880.24   927.65   975.13  1126.07
                             1171.44  1260.64  1324.87  1388.50  1418.31
                             1459.48  1496.34  1519.97  1604.40  1626.19
                             1654.83  1695.86  1738.22  1767.14  1810.95
                             1835.57  1849.13  1914.36  1969.30  2037.29
                             2099.85  2110.40  2146.95  2152.57  2172.31
                             2625.93  4356.03  4376.09  4381.52  4430.68
                             4462.70  4488.50  4492.29  4517.37  4599.09
                             5459.64

 Zero-point correction=                           0.158793 (Hartree/Particle)
 Thermal correction to Energy=                    0.167413
 Thermal correction to Enthalpy=                  0.168357
 Thermal correction to Gibbs Free Energy=         0.125923
 Sum of electronic and zero-point Energies=           -423.051536
 Sum of electronic and thermal Energies=              -423.042917
 Sum of electronic and thermal Enthalpies=            -423.041973
 Sum of electronic and thermal Free Energies=         -423.084407

                     E (Thermal)             CV                S
                      KCal/Mol        Cal/Mol-Kelvin    Cal/Mol-Kelvin
 Total                  105.053             33.344             89.310
 Electronic               0.000              0.000              0.000
 Translational            0.889              2.981             40.409
 Rotational               0.889              2.981             28.780
 Vibrational            103.276             27.383             20.121
 Vibration     1          0.606              1.942              3.281
 Vibration     2          0.629              1.867              2.333
 Vibration     3          0.632              1.857              2.252
 Vibration     4          0.644              1.820              2.011
 Vibration     5          0.653              1.793              1.866
 Vibration     6          0.695              1.668              1.399
 Vibration     7          0.728              1.571              1.158
 Vibration     8          0.761              1.482              0.984
 Vibration     9          0.818              1.338              0.765
 Vibration    10          0.852              1.257              0.666
 Vibration    11          0.875              1.205              0.609
 Vibration    12          0.971              1.007              0.430

 Optimization completed.
    -- Stationary point found.
 Normal termination of Gaussian 09 at Tue Jan 28 00:24:49 2020.
