 Gaussian 09, Revision D.01,
 Gaussian 09:  ES64L-G09RevD.01 24-Apr-2013

 -----------------------------
 # b3lyp 6-31G(2df,p) opt Freq
 -----------------------------

 -----
 titel
 -----
 Symbolic Z-matrix:
 Charge =  0 Multiplicity = 1

 SCF Done:  E(RB3LYP) =  -423.157503489     A.U. after   12 cycles
 Optimization completed.
    -- Stationary point found.
 Normal termination of Gaussian 09 at Mon Jan 27 22:05:21 2020.

 ----------------------------------------------------------------------
 #N Geom=AllCheck Guess=TCheck SCRF=Check GenChk RB3LYP/6-31G(2df,p) Fr
 eq
 ----------------------------------------------------------------------

 Structure from the checkpoint file:  "/scratch/puck/g09_c0899bee-31a9-47d5-91f4-1cc0e377108f/Gau-111367.chk"
 -----
 titel
 -----
 Charge =  0 Multiplicity = 1

                         Standard orientation:
 ---------------------------------------------------------------------
 Center     Atomic      Atomic             Coordinates (Angstroms)
 Number     Number       Type             X           Y           Z
 ---------------------------------------------------------------------
      1          8           0       -2.543414   -0.839860   -0.069151
      2          6           0       -1.310738   -0.306963   -0.511450
      3          6           0       -1.152302    1.092198    0.067004
      4          6           0        0.306670    1.517172    0.059011
      5          6           0        1.275112    0.807264   -0.886745
      6          6           0        1.227024   -0.678134   -0.426891
      7          8           0        2.344413   -1.036801    0.374643
      8          6           0       -0.088006   -0.762540    0.355801
      9          6           0       -0.193818    0.585001    1.131910
     10          1           0       -2.561203   -1.774357   -0.300650
     11          1           0       -1.206628   -0.424799   -1.602224
     12          1           0       -1.957113    1.812143    0.155666
     13          1           0        0.476717    2.557058    0.315216
     14          1           0        0.990241    0.921518   -1.938263
     15          1           0        2.297728    1.182227   -0.784481
     16          1           0        1.250307   -1.372096   -1.273298
     17          1           0        2.329309   -0.474073    1.157679
     18          1           0       -0.231841   -1.698557    0.895544
     19          1           0       -0.179159    0.760240    2.199026
 ---------------------------------------------------------------------

 SCF Done:  E(RB3LYP) =  -423.157503489     A.U. after    1 cycles

 The electronic state is 1-A.
 Alpha  occ. eigenvalues --  -19.13654 -19.13162 -10.23381 -10.22837 -10.19503
 Alpha  occ. eigenvalues --  -10.19022 -10.18990 -10.18488 -10.17967  -1.02162
 Alpha  occ. eigenvalues --   -1.01440  -0.90626  -0.74662  -0.72879  -0.65678
 Alpha  occ. eigenvalues --   -0.60462  -0.55953  -0.53552  -0.52233  -0.49651
 Alpha  occ. eigenvalues --   -0.48906  -0.45423  -0.42962  -0.41738  -0.38404
 Alpha  occ. eigenvalues --   -0.37217  -0.36157  -0.34715  -0.33932  -0.29812
 Alpha  occ. eigenvalues --   -0.28501  -0.28232  -0.26555  -0.24262
 Alpha virt. eigenvalues --    0.07645   0.07883   0.09598   0.10382   0.13292
 Alpha virt. eigenvalues --    0.13844   0.14770   0.15512   0.16170   0.17209
 Alpha virt. eigenvalues --    0.17916   0.18438   0.20066   0.21468   0.22801

 Mulliken charges:
               1
     1  O   -0.444155
     2  C    0.121327
     3  C   -0.066008
     4  C   -0.054328
     5  C   -0.277232
     6  C    0.138783
     7  O   -0.440473
     8  C   -0.116507
     9  C   -0.101198
    10  H    0.280362
    11  H    0.056578
    12  H    0.090965
    13  H    0.087158
    14  H    0.102855
    15  H    0.104926
    16  H    0.081001
    17  H    0.279756
    18  H    0.069616
    19  H    0.086574
 Sum of Mulliken charges =   0.00000

 Dipole moment (field-independent basis, Debye):
    X=             -0.0864    Y=              0.3977    Z=             -0.0328  Tot=              0.4083
 Quadrupole moment (field-independent basis, Debye-Ang):
   XX=            -60.8064   YY=            -49.7174   ZZ=            -50.4552
   XY=              5.5728   XZ=              2.4295   YZ=              2.1194

  Exact polarizability:  78.730   1.929  73.909  -0.082   1.205  67.861
 Approx polarizability: 110.933   1.053 108.561   1.930   0.520 106.336

                      1                      2                      3
                      A                      A                      A
 Frequencies --    126.5622               179.5383               261.7842
 Red. masses --      3.4333                 3.6693                 2.9823
 Frc consts  --      0.0324                 0.0697                 0.1204
 IR Inten    --      5.0371                 1.0801                 6.2762

                      4                      5                      6
                      A                      A                      A
 Frequencies --    282.8058               329.7219               362.9587
 Red. masses --      1.1457                 1.2010                 3.2323
 Frc consts  --      0.0540                 0.0769                 0.2509
 IR Inten    --     78.3899                95.9227                 8.0290

                      7                      8                      9
                      A                      A                      A
 Frequencies --    404.3813               426.2988               509.4090
 Red. masses --      4.1444                 3.5357                 2.9934
 Frc consts  --      0.3993                 0.3786                 0.4577
 IR Inten    --      1.6214                 2.5282                 9.0438

                     10                     11                     12
                      A                      A                      A
 Frequencies --    704.5159               752.6184               766.9375
 Red. masses --      5.0506                 2.4831                 3.6015
 Frc consts  --      1.4770                 0.8287                 1.2481
 IR Inten    --      1.7476                 8.9729                 1.0648

                     13                     14                     15
                      A                      A                      A
 Frequencies --    781.4972               828.7869               851.1939
 Red. masses --      2.0945                 2.2209                 2.6053
 Frc consts  --      0.7537                 0.8988                 1.1122
 IR Inten    --     18.0275                 4.5271                10.7158

                     16                     17                     18
                      A                      A                      A
 Frequencies --    894.6166               933.6051               946.4456
 Red. masses --      1.9661                 1.7741                 2.0780
 Frc consts  --      0.9271                 0.9111                 1.0967
 IR Inten    --      1.3578                 0.2109                 2.3929

                     19                     20                     21
                      A                      A                      A
 Frequencies --    968.2360               980.9895               993.5627
 Red. masses --      1.9100                 1.9055                 2.8128
 Frc consts  --      1.0550                 1.0804                 1.6360
 IR Inten    --      5.7265                12.2651                 3.8651

                     22                     23                     24
                      A                      A                      A
 Frequencies --   1046.8746              1055.1638              1059.0927
 Red. masses --      1.7400                 2.4427                 1.8048
 Frc consts  --      1.1235                 1.6024                 1.1928
 IR Inten    --     64.2697                41.0569                 2.5338

                     25                     26                     27
                      A                      A                      A
 Frequencies --   1076.2156              1099.3979              1125.2004
 Red. masses --      1.8319                 1.3710                 2.8439
 Frc consts  --      1.2501                 0.9763                 2.1214
 IR Inten    --     34.9175                16.6903                35.6768

                     28                     29                     30
                      A                      A                      A
 Frequencies --   1183.8930              1192.0018              1199.9684
 Red. masses --      1.3546                 1.6560                 1.2462
 Frc consts  --      1.1186                 1.3864                 1.0573
 IR Inten    --     10.9547                15.4605                51.1087

                     31                     32                     33
                      A                      A                      A
 Frequencies --   1224.7724              1240.0678              1271.8882
 Red. masses --      1.6138                 1.4800                 1.6059
 Frc consts  --      1.4263                 1.3409                 1.5306
 IR Inten    --      2.1984                17.5329                 9.0878

                     34                     35                     36
                      A                      A                      A
 Frequencies --   1298.0263              1303.1880              1327.3794
 Red. masses --      1.4983                 1.5401                 1.5004
 Frc consts  --      1.4873                 1.5410                 1.5576
 IR Inten    --      3.1061                 3.6338                10.1898

                     37                     38                     39
                      A                      A                      A
 Frequencies --   1340.0514              1396.7315              1427.2062
 Red. masses --      1.4907                 2.5929                 1.2688
 Frc consts  --      1.5772                 2.9803                 1.5227
 IR Inten    --     18.5405                 8.9370                47.2733

                     40                     41                     42
                      A                      A                      A
 Frequencies --   1436.5245              1487.5138              2963.5825
 Red. masses --      1.4835                 1.0892                 1.0830
 Frc consts  --      1.8037                 1.4199                 5.6040
 IR Inten    --     26.6109                 3.3408                72.3729

                     43                     44                     45
                      A                      A                      A
 Frequencies --   3042.2174              3065.3207              3090.2223
 Red. masses --      1.0640                 1.0842                 1.1026
 Frc consts  --      5.8018                 6.0019                 6.2037
 IR Inten    --     25.0847                43.3237                21.0919

                     46                     47                     48
                      A                      A                      A
 Frequencies --   3118.1419              3174.4241              3184.8756
 Red. masses --      1.0891                 1.0895                 1.0899
 Frc consts  --      6.2390                 6.4686                 6.5134
 IR Inten    --     23.9996                 7.8955                19.9374

                     49                     50                     51
                      A                      A                      A
 Frequencies --   3204.9939              3788.7043              3808.9771
 Red. masses --      1.0980                 1.0657                 1.0661
 Frc consts  --      6.6451                 9.0128                 9.1131
 IR Inten    --     15.0653                10.6527                17.3321

 - Thermochemistry -
 -------------------
 Temperature   298.150 Kelvin.  Pressure   1.00000 Atm.
 Atom     1 has atomic number  8 and mass  15.99491

 Molecular mass:   126.06808 amu.
 Principal axes and moments of inertia in atomic units:
                           1         2         3
     Eigenvalues --   596.139341224.109221463.68776
           X            0.99976   0.02154  -0.00255
           Y           -0.02151   0.99968   0.01348
           Z            0.00284  -0.01342   0.99991
 This molecule is an asymmetric top.
 Rotational symmetry number  1.
 Warning -- assumption of classical behavior for rotation
           may cause significant error
 Rotational temperatures (Kelvin)      0.14529     0.07076     0.05918
 Rotational constants (GHZ):           3.02738     1.47433     1.23301
 Zero-point vibrational energy     421797.8 (Joules/Mol)
                                  100.81209 (Kcal/Mol)
 Warning -- explicit consideration of   9 degrees of freedom as
           vibrations may cause significant error
 Vibrational temperatures:    182.09   258.32   376.65   406.89   474.40
          (Kelvin)            522.22   581.81   613.35   732.93  1013.64
                             1082.85  1103.45  1124.40  1192.44  1224.68
                             1287.15  1343.25  1361.72  1393.07  1411.42
                             1429.51  1506.22  1518.14  1523.80  1548.43
                             1581.79  1618.91  1703.36  1715.02  1726.48
                             1762.17  1784.18  1829.96  1867.57  1874.99
                             1909.80  1928.03  2009.58  2053.43  2066.84
                             2140.20  4263.93  4377.07  4410.31  4446.14
                             4486.31  4567.28  4582.32  4611.27  5451.09
                             5480.26

 Zero-point correction=                           0.160654 (Hartree/Particle)
 Thermal correction to Energy=                    0.168321
 Thermal correction to Enthalpy=                  0.169265
 Thermal correction to Gibbs Free Energy=         0.128858
 Sum of electronic and zero-point Energies=           -422.996849
 Sum of electronic and thermal Energies=              -422.989182
 Sum of electronic and thermal Enthalpies=            -422.988238
 Sum of electronic and thermal Free Energies=         -423.028646

                     E (Thermal)             CV                S
                      KCal/Mol        Cal/Mol-Kelvin    Cal/Mol-Kelvin
 Total                  105.623             31.091             85.045
 Electronic               0.000              0.000              0.000
 Translational            0.889              2.981             40.409
 Rotational               0.889              2.981             28.459
 Vibrational            103.846             25.130             16.177
 Vibration     1          0.611              1.927              2.998
 Vibration     2          0.629              1.867              2.333
 Vibration     3          0.669              1.743              1.650
 Vibration     4          0.682              1.706              1.517
 Vibration     5          0.713              1.616              1.261
 Vibration     6          0.737              1.549              1.109
 Vibration     7          0.770              1.461              0.947
 Vibration     8          0.788              1.413              0.871
 Vibration     9          0.865              1.229              0.635

 Normal termination of Gaussian 09 at Mon Jan 27 23:03:05 2020.
