 Gaussian 09, Revision D.01,
 Gaussian 09:  ES64L-G09RevD.01 24-Apr-2013

 -----------------------------
 # b3lyp 6-31G(2df,p) opt Freq
 -----------------------------

 -----
 titel
 -----
 Symbolic Z-matrix:
 Charge =  0 Multiplicity = 1

 SCF Done:  E(RB3LYP) =  -423.118762477     A.U. after   14 cycles
 SCF Done:  E(RB3LYP) =  -423.118762494     A.U. after    6 cycles
 SCF Done:  E(RB3LYP) =  -423.118762390     A.U. after    7 cycles
 SCF Done:  E(RB3LYP) =  -423.118762490     A.U. after    7 cycles
 Optimization completed.
    -- Stationary point found.
 Normal termination of Gaussian 09 at Tue Jan 28 08:33:54 2020.

 ----------------------------------------------------------------------
 #N Geom=AllCheck Guess=TCheck SCRF=Check GenChk RB3LYP/6-31G(2df,p) Fr
 eq
 ----------------------------------------------------------------------

 Structure from the checkpoint file:  "/scratch/puck/g09_a859f384-8f03-4cf3-a443-3cc25eff1e5b/Gau-106662.chk"
 -----
 titel
 -----
 Charge =  0 Multiplicity = 1

                         Standard orientation:
 ---------------------------------------------------------------------
 Center     Atomic      Atomic             Coordinates (Angstroms)
 Number     Number       Type             X           Y           Z
 ---------------------------------------------------------------------
      1          8           0       -0.736800    2.218201   -0.292388
      2          6           0        0.146644    1.379307    0.419402
      3          6           0        0.063966   -0.087221   -0.041877
      4          6           0        1.240202   -0.937020    0.497278
      5          6           0        2.538085   -0.531414   -0.026809
      6          6           0        3.600388   -0.190643   -0.473770
      7          6           0       -1.243834   -0.713781    0.404349
      8          6           0       -2.169415   -1.377771   -0.522356
      9          8           0       -2.452480   -0.064408   -0.025875
     10          1           0       -1.599247    1.784402   -0.300028
     11          1           0        1.157219    1.758875    0.239804
     12          1           0       -0.031648    1.425924    1.509292
     13          1           0        0.103117   -0.081861   -1.136917
     14          1           0        1.254441   -0.880404    1.594639
     15          1           0        1.064542   -1.992554    0.252418
     16          1           0        4.542231    0.108281   -0.862434
     17          1           0       -1.276193   -1.015329    1.453832
     18          1           0       -1.916911   -1.430605   -1.580011
     19          1           0       -2.839529   -2.155815   -0.161787
 ---------------------------------------------------------------------

 SCF Done:  E(RB3LYP) =  -423.118762490     A.U. after    1 cycles

 The electronic state is 1-A.
 Alpha  occ. eigenvalues --  -19.16955 -19.11923 -10.25261 -10.24895 -10.22327
 Alpha  occ. eigenvalues --  -10.22068 -10.20438 -10.18698 -10.17613  -1.08629
 Alpha  occ. eigenvalues --   -1.00417  -0.82577  -0.75066  -0.69013  -0.68394
 Alpha  occ. eigenvalues --   -0.65062  -0.59361  -0.53534  -0.51845  -0.50263
 Alpha  occ. eigenvalues --   -0.48463  -0.46020  -0.44351  -0.43714  -0.41483
 Alpha  occ. eigenvalues --   -0.39364  -0.37599  -0.36758  -0.34258  -0.30628
 Alpha  occ. eigenvalues --   -0.28388  -0.26951  -0.26804  -0.25596
 Alpha virt. eigenvalues --    0.04659   0.05063   0.07853   0.08851   0.10171
 Alpha virt. eigenvalues --    0.10524   0.11704   0.12705   0.14313   0.16020
 Alpha virt. eigenvalues --    0.16155   0.16451   0.17926   0.18424   0.23345

 Mulliken charges:
               1
     1  O   -0.432061
     2  C   -0.048917
     3  C   -0.055616
     4  C   -0.382094
     5  C    0.296451
     6  C   -0.427714
     7  C    0.082943
     8  C   -0.187027
     9  O   -0.254306
    10  H    0.296378
    11  H    0.120001
    12  H    0.077836
    13  H    0.097929
    14  H    0.133683
    15  H    0.134275
    16  H    0.198751
    17  H    0.099064
    18  H    0.126214
    19  H    0.124209
 Sum of Mulliken charges =   0.00000

 Dipole moment (field-independent basis, Debye):
    X=              0.1672    Y=             -3.0897    Z=              0.4875  Tot=              3.1324
 Quadrupole moment (field-independent basis, Debye-Ang):
   XX=            -52.1916   YY=            -56.9783   ZZ=            -51.6130
   XY=              5.3101   XZ=             -0.6860   YZ=              1.0150

  Exact polarizability:  99.173   8.950  69.322  -3.867  -0.390  63.735
 Approx polarizability: 136.768  12.619 100.713  -9.905  -3.410  99.856

                      1                      2                      3
                      A                      A                      A
 Frequencies --     61.0666                82.4243               108.3468
 Red. masses --      4.2707                 2.9652                 4.4727
 Frc consts  --      0.0094                 0.0119                 0.0309
 IR Inten    --      0.6967                 0.6606                 1.0930

                      4                      5                      6
                      A                      A                      A
 Frequencies --    175.7779               215.1688               234.8225
 Red. masses --      3.1670                 3.4764                 3.1467
 Frc consts  --      0.0577                 0.0948                 0.1022
 IR Inten    --      3.2026                 3.9418                 1.2201

                      7                      8                      9
                      A                      A                      A
 Frequencies --    306.3676               342.7850               385.0081
 Red. masses --      3.1439                 3.0535                 5.4013
 Frc consts  --      0.1739                 0.2114                 0.4717
 IR Inten    --      2.4883                 2.9031                 6.4023

                     10                     11                     12
                      A                      A                      A
 Frequencies --    411.3615               478.1647               487.2788
 Red. masses --      3.9509                 1.1828                 2.7400
 Frc consts  --      0.3939                 0.1593                 0.3833
 IR Inten    --      5.5704               105.3775                 2.8891

                     13                     14                     15
                      A                      A                      A
 Frequencies --    591.6075               623.1985               645.6843
 Red. masses --      3.8301                 1.2032                 1.2165
 Frc consts  --      0.7898                 0.2753                 0.2988
 IR Inten    --      9.5512                43.9756                46.5246

                     16                     17                     18
                      A                      A                      A
 Frequencies --    803.1512               843.0554               858.5073
 Red. masses --      2.1866                 4.3447                 2.0415
 Frc consts  --      0.8310                 1.8194                 0.8865
 IR Inten    --      9.1315                 9.5538                20.0349

                     19                     20                     21
                      A                      A                      A
 Frequencies --    939.5714               958.1764               969.0970
 Red. masses --      2.7142                 1.3532                 3.5907
 Frc consts  --      1.4117                 0.7320                 1.9869
 IR Inten    --     31.2801                 2.4994                 1.0021

                     22                     23                     24
                      A                      A                      A
 Frequencies --   1053.5391              1079.0036              1091.8589
 Red. masses --      3.2213                 1.7447                 3.9831
 Frc consts  --      2.1066                 1.1968                 2.7977
 IR Inten    --      5.3791                 2.8446                90.7122

                     25                     26                     27
                      A                      A                      A
 Frequencies --   1118.2664              1139.8077              1157.2346
 Red. masses --      1.7446                 1.8201                 1.3496
 Frc consts  --      1.2854                 1.3932                 1.0649
 IR Inten    --     17.7355                 2.2440                 2.3659

                     28                     29                     30
                      A                      A                      A
 Frequencies --   1178.4884              1214.1734              1243.9158
 Red. masses --      1.4519                 1.2228                 1.2036
 Frc consts  --      1.1881                 1.0621                 1.0973
 IR Inten    --      1.0563                 2.3181                12.1486

                     31                     32                     33
                      A                      A                      A
 Frequencies --   1291.1304              1297.9557              1324.3708
 Red. masses --      1.2778                 1.5440                 1.2740
 Frc consts  --      1.2551                 1.5326                 1.3165
 IR Inten    --     20.0742                 3.7280                 3.3443

                     34                     35                     36
                      A                      A                      A
 Frequencies --   1361.7149              1390.7906              1447.1089
 Red. masses --      1.4602                 1.2652                 1.6169
 Frc consts  --      1.5952                 1.4419                 1.9949
 IR Inten    --      7.8733                 1.9478                14.0229

                     37                     38                     39
                      A                      A                      A
 Frequencies --   1460.1181              1472.5673              1513.9445
 Red. masses --      1.2656                 1.0935                 1.0852
 Frc consts  --      1.5898                 1.3970                 1.4654
 IR Inten    --     57.8975                 9.7275                 1.5264

                     40                     41                     42
                      A                      A                      A
 Frequencies --   1525.8226              2240.3687              2938.9112
 Red. masses --      1.3314                 5.9259                 1.0721
 Frc consts  --      1.8263                17.5243                 5.4560
 IR Inten    --      1.5890                 1.6341                60.5549

                     43                     44                     45
                      A                      A                      A
 Frequencies --   3011.2047              3040.7271              3055.7346
 Red. masses --      1.0597                 1.0950                 1.0878
 Frc consts  --      5.6614                 5.9652                 5.9845
 IR Inten    --     15.8426                 5.0428                14.5264

                     46                     47                     48
                      A                      A                      A
 Frequencies --   3081.2297              3087.7740              3092.5854
 Red. masses --      1.0894                 1.0770                 1.0608
 Frc consts  --      6.0936                 6.0501                 5.9775
 IR Inten    --     24.2881                34.5892                17.9861

                     49                     50                     51
                      A                      A                      A
 Frequencies --   3181.8396              3506.2683              3773.6016
 Red. masses --      1.1199                 1.1625                 1.0657
 Frc consts  --      6.6801                 8.4202                 8.9412
 IR Inten    --     20.3176                69.7069                89.7916

 - Thermochemistry -
 -------------------
 Temperature   298.150 Kelvin.  Pressure   1.00000 Atm.
 Atom     1 has atomic number  8 and mass  15.99491

 Molecular mass:   126.06808 amu.
 Principal axes and moments of inertia in atomic units:
                           1         2         3
     Eigenvalues --   685.374191781.279872279.58504
           X            0.99978   0.02112   0.00142
           Y           -0.02114   0.99974   0.00889
           Z           -0.00123  -0.00891   0.99996
 This molecule is an asymmetric top.
 Rotational symmetry number  1.
 Warning -- assumption of classical behavior for rotation
           may cause significant error
 Rotational temperatures (Kelvin)      0.12637     0.04862     0.03800
 Rotational constants (GHZ):           2.63322     1.01317     0.79170
 Zero-point vibrational energy     412069.7 (Joules/Mol)
                                   98.48703 (Kcal/Mol)
 Warning -- explicit consideration of  13 degrees of freedom as
           vibrations may cause significant error
 Vibrational temperatures:     87.86   118.59   155.89   252.90   309.58
          (Kelvin)            337.86   440.79   493.19   553.94   591.86
                              687.97   701.08   851.19   896.64   928.99
                             1155.55  1212.97  1235.20  1351.83  1378.60
                             1394.31  1515.81  1552.44  1570.94  1608.93
                             1639.93  1665.00  1695.58  1746.92  1789.72
                             1857.65  1867.47  1905.47  1959.20  2001.04
                             2082.06  2100.78  2118.69  2178.23  2195.32
                             3223.39  4228.43  4332.45  4374.92  4396.52
                             4433.20  4442.61  4449.54  4577.95  5044.73
                             5429.36

 Zero-point correction=                           0.156949 (Hartree/Particle)
 Thermal correction to Energy=                    0.166664
 Thermal correction to Enthalpy=                  0.167608
 Thermal correction to Gibbs Free Energy=         0.121844
 Sum of electronic and zero-point Energies=           -422.961813
 Sum of electronic and thermal Energies=              -422.952099
 Sum of electronic and thermal Enthalpies=            -422.951154
 Sum of electronic and thermal Free Energies=         -422.996918

                     E (Thermal)             CV                S
                      KCal/Mol        Cal/Mol-Kelvin    Cal/Mol-Kelvin
 Total                  104.583             35.454             96.319
 Electronic               0.000              0.000              0.000
 Translational            0.889              2.981             40.409
 Rotational               0.889              2.981             29.411
 Vibrational            102.806             29.492             26.499
 Vibration     1          0.597              1.973              4.422
 Vibration     2          0.600              1.961              3.832
 Vibration     3          0.606              1.943              3.298
 Vibration     4          0.628              1.872              2.373
 Vibration     5          0.645              1.818              1.999
 Vibration     6          0.655              1.788              1.842
 Vibration     7          0.697              1.662              1.382
 Vibration     8          0.722              1.590              1.199
 Vibration     9          0.754              1.502              1.019
 Vibration    10          0.775              1.446              0.922
 Vibration    11          0.835              1.298              0.715
 Vibration    12          0.843              1.278              0.691
 Vibration    13          0.949              1.050              0.464

 Optimization completed.
    -- Stationary point found.
 Normal termination of Gaussian 09 at Tue Jan 28 09:15:30 2020.
