 Gaussian 09, Revision D.01,
 Gaussian 09:  ES64L-G09RevD.01 24-Apr-2013

 -----------------------------
 # b3lyp 6-31G(2df,p) opt Freq
 -----------------------------

 -----
 titel
 -----
 Symbolic Z-matrix:
 Charge =  0 Multiplicity = 1

 SCF Done:  E(RB3LYP) =  -423.199822087     A.U. after   14 cycles
 Optimization completed.
    -- Stationary point found.
 Normal termination of Gaussian 09 at Mon Jan 27 13:01:55 2020.

 ----------------------------------------------------------------------
 #N Geom=AllCheck Guess=TCheck SCRF=Check GenChk RB3LYP/6-31G(2df,p) Fr
 eq
 ----------------------------------------------------------------------

 Structure from the checkpoint file:  "/scratch/puck/g09_a1a48040-5d8b-49c1-aada-6b7ea7668baf/Gau-46791.chk"
 -----
 titel
 -----
 Charge =  0 Multiplicity = 1

                         Standard orientation:
 ---------------------------------------------------------------------
 Center     Atomic      Atomic             Coordinates (Angstroms)
 Number     Number       Type             X           Y           Z
 ---------------------------------------------------------------------
      1          8           0        2.855463    0.533513   -0.166606
      2          6           0        1.756177    0.073033   -0.061455
      3          6           0        1.083343   -1.218320   -0.554091
      4          6           0        0.024671   -1.005310    0.570687
      5          6           0       -1.453831   -1.214138    0.264579
      6          8           0       -1.973352   -0.237803   -0.619922
      7          6           0       -1.834982    1.070316   -0.088037
      8          6           0       -0.366617    1.492035   -0.068153
      9          6           0        0.500342    0.484357    0.729190
     10          1           0        0.652609   -1.082322   -1.552303
     11          1           0        1.688063   -2.127605   -0.547377
     12          1           0        0.295621   -1.585924    1.457285
     13          1           0       -1.621850   -2.184322   -0.214445
     14          1           0       -2.027689   -1.201164    1.207318
     15          1           0       -2.419111    1.731254   -0.734881
     16          1           0       -2.270735    1.113878    0.924872
     17          1           0       -0.024416    1.549094   -1.107781
     18          1           0       -0.255892    2.495681    0.353133
     19          1           0        0.671891    0.833916    1.750076
 ---------------------------------------------------------------------

 SCF Done:  E(RB3LYP) =  -423.199822087     A.U. after    1 cycles

 The electronic state is 1-A.
 Alpha  occ. eigenvalues --  -19.14568 -19.13522 -10.26778 -10.23431 -10.23422
 Alpha  occ. eigenvalues --  -10.20201 -10.19892 -10.19619 -10.19178  -1.04455
 Alpha  occ. eigenvalues --   -1.03982  -0.85638  -0.77876  -0.71102  -0.66841
 Alpha  occ. eigenvalues --   -0.62913  -0.56403  -0.52649  -0.50618  -0.48364
 Alpha  occ. eigenvalues --   -0.47972  -0.45505  -0.43656  -0.42267  -0.40997
 Alpha  occ. eigenvalues --   -0.39706  -0.38104  -0.36512  -0.36267  -0.34186
 Alpha  occ. eigenvalues --   -0.31917  -0.30364  -0.25941  -0.23834
 Alpha virt. eigenvalues --   -0.01637   0.07607   0.09681   0.11144   0.11557
 Alpha virt. eigenvalues --    0.12462   0.13388   0.15416   0.15901   0.17015
 Alpha virt. eigenvalues --    0.17121   0.18159   0.19881   0.21124   0.22451

 Mulliken charges:
               1
     1  O   -0.303476
     2  C    0.404172
     3  C   -0.362706
     4  C   -0.009718
     5  C   -0.108467
     6  O   -0.241174
     7  C   -0.076580
     8  C   -0.221384
     9  C   -0.146576
    10  H    0.140749
    11  H    0.125184
    12  H    0.084717
    13  H    0.111237
    14  H    0.088465
    15  H    0.110993
    16  H    0.087053
    17  H    0.115168
    18  H    0.112436
    19  H    0.089909
 Sum of Mulliken charges =   0.00000

 Dipole moment (field-independent basis, Debye):
    X=             -2.0424    Y=             -0.5994    Z=              1.2216  Tot=              2.4542
 Quadrupole moment (field-independent basis, Debye-Ang):
   XX=            -65.4660   YY=            -49.3417   ZZ=            -52.0563
   XY=             -4.5003   XZ=             -1.1517   YZ=             -0.4372

  Exact polarizability:  82.916  -0.762  78.417  -2.576   1.052  64.132
 Approx polarizability: 116.774   3.576 111.184  -2.598   2.024 101.811

                      1                      2                      3
                      A                      A                      A
 Frequencies --     90.2942               145.7774               195.7883
 Red. masses --      4.7478                 2.5323                 3.4952
 Frc consts  --      0.0228                 0.0317                 0.0789
 IR Inten    --      4.7236                 2.6998                 2.2781

                      4                      5                      6
                      A                      A                      A
 Frequencies --    294.1732               349.1906               406.5817
 Red. masses --      2.2680                 4.7982                 2.2498
 Frc consts  --      0.1156                 0.3447                 0.2191
 IR Inten    --      1.5629                 2.7428                 3.4835

                      7                      8                      9
                      A                      A                      A
 Frequencies --    469.3539               510.1437               523.5468
 Red. masses --      2.7567                 3.1390                 2.1295
 Frc consts  --      0.3578                 0.4813                 0.3439
 IR Inten    --      1.2471                 1.7940                 1.8565

                     10                     11                     12
                      A                      A                      A
 Frequencies --    645.9223               669.1265               752.5228
 Red. masses --      4.3060                 2.3881                 2.2447
 Frc consts  --      1.0585                 0.6300                 0.7489
 IR Inten    --      9.1677                 2.1111                 1.9030

                     13                     14                     15
                      A                      A                      A
 Frequencies --    792.5911               836.9341               868.8600
 Red. masses --      3.2468                 1.9845                 2.6954
 Frc consts  --      1.2017                 0.8190                 1.1989
 IR Inten    --      0.3486                 5.6530                 6.0499

                     16                     17                     18
                      A                      A                      A
 Frequencies --    916.8746               941.4636               995.9993
 Red. masses --      2.7473                 2.3839                 1.7544
 Frc consts  --      1.3607                 1.2449                 1.0254
 IR Inten    --      7.1932                14.7620                 7.5643

                     19                     20                     21
                      A                      A                      A
 Frequencies --   1032.4306              1046.8250              1067.8103
 Red. masses --      2.3135                 2.2546                 2.0247
 Frc consts  --      1.4529                 1.4557                 1.3602
 IR Inten    --      7.3917                 5.0322                42.8972

                     22                     23                     24
                      A                      A                      A
 Frequencies --   1091.9494              1110.6400              1134.7320
 Red. masses --      2.0211                 2.3303                 1.9504
 Frc consts  --      1.4198                 1.6936                 1.4797
 IR Inten    --     33.7997                 2.3828                15.0364

                     25                     26                     27
                      A                      A                      A
 Frequencies --   1149.9856              1194.6717              1217.2165
 Red. masses --      4.6217                 1.3656                 1.7053
 Frc consts  --      3.6011                 1.1484                 1.4887
 IR Inten    --     57.6162                13.1314                 0.4699

                     28                     29                     30
                      A                      A                      A
 Frequencies --   1234.3956              1249.1918              1287.9849
 Red. masses --      1.5305                 1.2430                 1.3676
 Frc consts  --      1.3740                 1.1429                 1.3367
 IR Inten    --      1.4549                 4.2708                16.0328

                     31                     32                     33
                      A                      A                      A
 Frequencies --   1310.4976              1334.2064              1351.7612
 Red. masses --      1.3083                 1.2576                 1.5733
 Frc consts  --      1.3238                 1.3190                 1.6938
 IR Inten    --      1.7233                 6.2878                 0.9828

                     34                     35                     36
                      A                      A                      A
 Frequencies --   1372.9194              1386.5968              1423.3121
 Red. masses --      1.3134                 1.2447                 1.2901
 Frc consts  --      1.4586                 1.4100                 1.5398
 IR Inten    --      1.3518                 5.0168                16.5522

                     37                     38                     39
                      A                      A                      A
 Frequencies --   1442.2483              1484.6324              1489.2841
 Red. masses --      1.1283                 1.0863                 1.0789
 Frc consts  --      1.3828                 1.4107                 1.4098
 IR Inten    --     10.0362                 5.3760                 0.5435

                     40                     41                     42
                      A                      A                      A
 Frequencies --   1501.2369              1891.1218              2955.9598
 Red. masses --      1.1054                12.3977                 1.0707
 Frc consts  --      1.4679                26.1234                 5.5123
 IR Inten    --      2.6980               285.1539                33.4002

                     43                     44                     45
                      A                      A                      A
 Frequencies --   2963.0633              3040.4034              3054.3232
 Red. masses --      1.0703                 1.0626                 1.0625
 Frc consts  --      5.5363                 5.7874                 5.8398
 IR Inten    --     85.3074                14.2473                 3.9575

                     46                     47                     48
                      A                      A                      A
 Frequencies --   3063.5462              3071.4510              3077.4942
 Red. masses --      1.0841                 1.0914                 1.0900
 Frc consts  --      5.9946                 6.0660                 6.0821
 IR Inten    --     16.5971                32.5412                19.2871

                     49                     50                     51
                      A                      A                      A
 Frequencies --   3085.7052              3094.5132              3120.6965
 Red. masses --      1.0927                 1.0972                 1.1035
 Frc consts  --      6.1298                 6.1906                 6.3318
 IR Inten    --     30.8255                36.0959                13.0107

 - Thermochemistry -
 -------------------
 Temperature   298.150 Kelvin.  Pressure   1.00000 Atm.
 Atom     1 has atomic number  8 and mass  15.99491

 Molecular mass:   126.06808 amu.
 Principal axes and moments of inertia in atomic units:
                           1         2         3
     Eigenvalues --   565.232701320.356781644.22573
           X            0.99961  -0.02625  -0.00945
           Y            0.02625   0.99966  -0.00020
           Z            0.00945  -0.00005   0.99996
 This molecule is an asymmetric top.
 Rotational symmetry number  1.
 Warning -- assumption of classical behavior for rotation
           may cause significant error
 Rotational temperatures (Kelvin)      0.15324     0.06560     0.05268
 Rotational constants (GHZ):           3.19292     1.36686     1.09762
 Zero-point vibrational energy     423106.9 (Joules/Mol)
                                  101.12498 (Kcal/Mol)
 Warning -- explicit consideration of   9 degrees of freedom as
           vibrations may cause significant error
 Vibrational temperatures:    129.91   209.74   281.70   423.25   502.41
          (Kelvin)            584.98   675.29   733.98   753.27   929.34
                              962.72  1082.71  1140.36  1204.16  1250.09
                             1319.18  1354.55  1433.02  1485.44  1506.15
                             1536.34  1571.07  1597.96  1632.62  1654.57
                             1718.86  1751.30  1776.02  1797.31  1853.12
                             1885.51  1919.62  1944.88  1975.32  1995.00
                             2047.83  2075.07  2136.05  2142.74  2159.94
                             2720.90  4252.96  4263.18  4374.46  4394.48
                             4407.75  4419.13  4427.82  4439.64  4452.31
                             4489.98

 Zero-point correction=                           0.161153 (Hartree/Particle)
 Thermal correction to Energy=                    0.168752
 Thermal correction to Enthalpy=                  0.169696
 Thermal correction to Gibbs Free Energy=         0.128940
 Sum of electronic and zero-point Energies=           -423.038669
 Sum of electronic and thermal Energies=              -423.031070
 Sum of electronic and thermal Enthalpies=            -423.030126
 Sum of electronic and thermal Free Energies=         -423.070882

                     E (Thermal)             CV                S
                      KCal/Mol        Cal/Mol-Kelvin    Cal/Mol-Kelvin
 Total                  105.893             29.804             85.777
 Electronic               0.000              0.000              0.000
 Translational            0.889              2.981             40.409
 Rotational               0.889              2.981             28.597
 Vibrational            104.116             23.843             16.771
 Vibration     1          0.602              1.956              3.654
 Vibration     2          0.617              1.907              2.727
 Vibration     3          0.636              1.846              2.172
 Vibration     4          0.689              1.685              1.450
 Vibration     5          0.726              1.577              1.170
 Vibration     6          0.771              1.456              0.939
 Vibration     7          0.826              1.318              0.739
 Vibration     8          0.865              1.228              0.633
 Vibration     9          0.879              1.198              0.602

 Optimization completed.
    -- Stationary point found.
 Normal termination of Gaussian 09 at Mon Jan 27 13:45:41 2020.
