 Gaussian 09, Revision D.01,
 Gaussian 09:  ES64L-G09RevD.01 24-Apr-2013

 -----------------------------
 # b3lyp 6-31G(2df,p) opt Freq
 -----------------------------

 -----
 titel
 -----
 Symbolic Z-matrix:
 Charge =  0 Multiplicity = 1

 SCF Done:  E(RB3LYP) =  -423.202250613     A.U. after   13 cycles
 Optimization completed.
    -- Stationary point found.
 Normal termination of Gaussian 09 at Mon Jan 27 12:48:31 2020.

 ----------------------------------------------------------------------
 #N Geom=AllCheck Guess=TCheck SCRF=Check GenChk RB3LYP/6-31G(2df,p) Fr
 eq
 ----------------------------------------------------------------------

 Structure from the checkpoint file:  "/scratch/puck/g09_e220a9c4-cd71-46d2-9fca-ee19408283f6/Gau-99314.chk"
 -----
 titel
 -----
 Charge =  0 Multiplicity = 1

                         Standard orientation:
 ---------------------------------------------------------------------
 Center     Atomic      Atomic             Coordinates (Angstroms)
 Number     Number       Type             X           Y           Z
 ---------------------------------------------------------------------
      1          6           0       -2.234804   -0.352921   -0.506927
      2          6           0       -2.024521    0.536787    0.715249
      3          8           0       -0.709281    0.183191    1.111903
      4          6           0        0.024398   -0.084103   -0.075831
      5          6           0        0.891645    1.133714   -0.505112
      6          6           0        2.289216    0.733287   -0.113854
      7          6           0        2.361996   -0.542973    0.262537
      8          6           0        1.025299   -1.233456    0.204619
      9          8           0       -0.935991   -0.403912   -1.081294
     10          1           0       -2.574298   -1.357065   -0.214983
     11          1           0       -2.932394    0.060195   -1.241135
     12          1           0       -2.091955    1.602572    0.448593
     13          1           0       -2.704158    0.331608    1.545358
     14          1           0        0.798641    1.293578   -1.585921
     15          1           0        0.542331    2.045714   -0.007903
     16          1           0        3.127508    1.419150   -0.163959
     17          1           0        3.268303   -1.055769    0.564438
     18          1           0        0.974002   -1.969611   -0.606459
     19          1           0        0.754828   -1.746619    1.133014
 ---------------------------------------------------------------------

 SCF Done:  E(RB3LYP) =  -423.202250613     A.U. after    1 cycles

 The electronic state is 1-A.
 Alpha  occ. eigenvalues --  -19.14460 -19.14090 -10.27820 -10.23354 -10.23199
 Alpha  occ. eigenvalues --  -10.17682 -10.17643 -10.17628 -10.17584  -1.08398
 Alpha  occ. eigenvalues --   -0.98885  -0.83740  -0.75357  -0.70868  -0.66450
 Alpha  occ. eigenvalues --   -0.63085  -0.56242  -0.54078  -0.50625  -0.50244
 Alpha  occ. eigenvalues --   -0.47449  -0.45911  -0.42047  -0.40321  -0.38896
 Alpha  occ. eigenvalues --   -0.38210  -0.37525  -0.37248  -0.34573  -0.33892
 Alpha  occ. eigenvalues --   -0.33054  -0.26560  -0.24465  -0.23943
 Alpha virt. eigenvalues --    0.02886   0.09450   0.10854   0.11913   0.12274
 Alpha virt. eigenvalues --    0.13067   0.15179   0.16295   0.16692   0.17070
 Alpha virt. eigenvalues --    0.17716   0.18944   0.19404   0.21016   0.21625

 Mulliken charges:
               1
     1  C   -0.096357
     2  C   -0.109316
     3  O   -0.282677
     4  C    0.484267
     5  C   -0.308529
     6  C   -0.064415
     7  C   -0.063012
     8  C   -0.319935
     9  O   -0.305100
    10  H    0.100331
    11  H    0.109692
    12  H    0.097503
    13  H    0.114475
    14  H    0.117766
    15  H    0.108089
    16  H    0.091268
    17  H    0.091613
    18  H    0.118942
    19  H    0.115397
 Sum of Mulliken charges =   0.00000

 Dipole moment (field-independent basis, Debye):
    X=             -0.9403    Y=              0.3213    Z=              0.0434  Tot=              0.9946
 Quadrupole moment (field-independent basis, Debye-Ang):
   XX=            -46.4857   YY=            -51.0149   ZZ=            -56.8848
   XY=             -0.7580   XZ=             -0.7188   YZ=             -1.5007

  Exact polarizability:  90.437  -0.527  78.067   0.889  -4.990  59.669
 Approx polarizability: 111.964  -1.690 122.888   1.682  -9.570  95.047

                      1                      2                      3
                      A                      A                      A
 Frequencies --     44.2516                55.2989               210.8836
 Red. masses --      3.3508                 2.7394                 1.9106
 Frc consts  --      0.0039                 0.0049                 0.0501
 IR Inten    --      5.1136                 0.0859                 0.4237

                      4                      5                      6
                      A                      A                      A
 Frequencies --    316.3551               378.1494               385.4578
 Red. masses --      4.3046                 1.9887                 2.3511
 Frc consts  --      0.2538                 0.1676                 0.2058
 IR Inten    --      0.7725                 0.3602                 4.0492

                      7                      8                      9
                      A                      A                      A
 Frequencies --    435.9866               479.4338               650.9653
 Red. masses --      5.2837                 3.5067                 2.1581
 Frc consts  --      0.5917                 0.4749                 0.5388
 IR Inten    --      2.7766                 4.1225                 2.9853

                     10                     11                     12
                      A                      A                      A
 Frequencies --    676.6828               746.2729               778.8421
 Red. masses --      1.2703                 4.2816                 5.7803
 Frc consts  --      0.3427                 1.4049                 2.0659
 IR Inten    --     13.5119                 8.7676                 4.9597

                     13                     14                     15
                      A                      A                      A
 Frequencies --    800.0847               856.3617               913.1148
 Red. masses --      4.8583                 2.2355                 1.8944
 Frc consts  --      1.8324                 0.9659                 0.9306
 IR Inten    --      3.6156                51.9783                 9.9732

                     16                     17                     18
                      A                      A                      A
 Frequencies --    932.3422               953.3130               965.5344
 Red. masses --      1.6615                 2.3133                 1.7784
 Frc consts  --      0.8510                 1.2386                 0.9768
 IR Inten    --      0.7987                 8.4307                17.4044

                     19                     20                     21
                      A                      A                      A
 Frequencies --    978.2450               987.2980              1044.8190
 Red. masses --      1.2605                 2.7014                 4.6133
 Frc consts  --      0.7107                 1.5514                 2.9672
 IR Inten    --      0.3942                 0.7639                26.5210

                     22                     23                     24
                      A                      A                      A
 Frequencies --   1062.9927              1076.0188              1125.2531
 Red. masses --      2.3846                 4.2828                 1.9205
 Frc consts  --      1.5875                 2.9216                 1.4327
 IR Inten    --     26.3205                11.2597                39.4629

                     25                     26                     27
                      A                      A                      A
 Frequencies --   1128.9516              1148.0889              1166.4288
 Red. masses --      1.4754                 1.7437                 1.5572
 Frc consts  --      1.1079                 1.3542                 1.2483
 IR Inten    --     12.9514                36.6183                50.1029

                     28                     29                     30
                      A                      A                      A
 Frequencies --   1182.6720              1215.8082              1239.2496
 Red. masses --      2.3112                 1.2809                 1.3336
 Frc consts  --      1.9046                 1.1156                 1.2067
 IR Inten    --    107.9532                26.6707                13.1924

                     31                     32                     33
                      A                      A                      A
 Frequencies --   1251.3586              1287.7731              1350.3436
 Red. masses --      1.2216                 1.5510                 2.1237
 Frc consts  --      1.1271                 1.5154                 2.2816
 IR Inten    --     15.8489                 9.3632                72.7223

                     34                     35                     36
                      A                      A                      A
 Frequencies --   1373.1085              1375.7993              1384.9364
 Red. masses --      1.6971                 1.3795                 1.3273
 Frc consts  --      1.8852                 1.5384                 1.5000
 IR Inten    --      0.1953                 5.3486                 5.9687

                     37                     38                     39
                      A                      A                      A
 Frequencies --   1463.4778              1469.9843              1509.6086
 Red. masses --      1.0876                 1.1040                 1.0956
 Frc consts  --      1.3724                 1.4055                 1.4710
 IR Inten    --      3.4035                 2.4899                 1.3114

                     40                     41                     42
                      A                      A                      A
 Frequencies --   1521.0954              1688.0522              2988.0048
 Red. masses --      1.0998                 6.0744                 1.0719
 Frc consts  --      1.4993                10.1983                 5.6383
 IR Inten    --      0.7761                 3.5231                41.2448

                     43                     44                     45
                      A                      A                      A
 Frequencies --   3002.9457              3032.1899              3037.6258
 Red. masses --      1.0661                 1.0591                 1.0611
 Frc consts  --      5.6644                 5.7370                 5.7684
 IR Inten    --     72.3482                29.6629                15.5393

                     46                     47                     48
                      A                      A                      A
 Frequencies --   3069.8673              3080.2819              3086.5637
 Red. masses --      1.1032                 1.1011                 1.0957
 Frc consts  --      6.1253                 6.1554                 6.1505
 IR Inten    --     15.8201                10.3805                39.6763

                     49                     50                     51
                      A                      A                      A
 Frequencies --   3107.1700              3182.9092              3207.7526
 Red. masses --      1.0955                 1.0845                 1.1037
 Frc consts  --      6.2318                 6.4731                 6.6909
 IR Inten    --     32.0198                 5.9574                27.7224

 - Thermochemistry -
 -------------------
 Temperature   298.150 Kelvin.  Pressure   1.00000 Atm.
 Atom     1 has atomic number  6 and mass  12.00000

 Molecular mass:   126.06808 amu.
 Principal axes and moments of inertia in atomic units:
                           1         2         3
     Eigenvalues --   476.797941407.163421450.75414
           X            0.99999  -0.00432  -0.00144
           Y            0.00398   0.98288  -0.18420
           Z            0.00221   0.18419   0.98289
 This molecule is an asymmetric top.
 Rotational symmetry number  1.
 Warning -- assumption of classical behavior for rotation
           may cause significant error
 Rotational temperatures (Kelvin)      0.18166     0.06155     0.05970
 Rotational constants (GHZ):           3.78513     1.28254     1.24400
 Zero-point vibrational energy     421121.4 (Joules/Mol)
                                  100.65044 (Kcal/Mol)
 Warning -- explicit consideration of   8 degrees of freedom as
           vibrations may cause significant error
 Vibrational temperatures:     63.67    79.56   303.41   455.16   544.07
          (Kelvin)            554.59   627.29   689.80   936.59   973.59
                             1073.72  1120.58  1151.14  1232.11  1313.77
                             1341.43  1371.60  1389.19  1407.47  1420.50
                             1503.26  1529.41  1548.15  1618.99  1624.31
                             1651.84  1678.23  1701.60  1749.27  1783.00
                             1800.42  1852.82  1942.84  1975.59  1979.47
                             1992.61  2105.62  2114.98  2171.99  2188.51
                             2428.73  4299.07  4320.56  4362.64  4370.46
                             4416.85  4431.83  4440.87  4470.52  4579.49
                             4615.23

 Zero-point correction=                           0.160397 (Hartree/Particle)
 Thermal correction to Energy=                    0.168159
 Thermal correction to Enthalpy=                  0.169103
 Thermal correction to Gibbs Free Energy=         0.127095
 Sum of electronic and zero-point Energies=           -423.041854
 Sum of electronic and thermal Energies=              -423.034092
 Sum of electronic and thermal Enthalpies=            -423.033148
 Sum of electronic and thermal Free Energies=         -423.075156

                     E (Thermal)             CV                S
                      KCal/Mol        Cal/Mol-Kelvin    Cal/Mol-Kelvin
 Total                  105.521             29.779             88.414
 Electronic               0.000              0.000              0.000
 Translational            0.889              2.981             40.409
 Rotational               0.889              2.981             28.367
 Vibrational            103.744             23.817             19.638
 Vibration     1          0.595              1.980              5.059
 Vibration     2          0.596              1.975              4.618
 Vibration     3          0.643              1.824              2.036
 Vibration     4          0.703              1.642              1.329
 Vibration     5          0.748              1.517              1.047
 Vibration     6          0.754              1.501              1.018
 Vibration     7          0.796              1.392              0.839
 Vibration     8          0.836              1.296              0.712

 Optimization completed.
    -- Stationary point found.
 Normal termination of Gaussian 09 at Mon Jan 27 13:31:21 2020.
