 Gaussian 09, Revision D.01,
 Gaussian 09:  ES64L-G09RevD.01 24-Apr-2013

 -----------------------------
 # b3lyp 6-31G(2df,p) opt Freq
 -----------------------------

 -----
 titel
 -----
 Symbolic Z-matrix:
 Charge =  0 Multiplicity = 1

 SCF Done:  E(RB3LYP) =  -423.173100374     A.U. after   13 cycles
 Optimization completed.
    -- Stationary point found.
 Normal termination of Gaussian 09 at Mon Jan 27 21:59:07 2020.

 ----------------------------------------------------------------------
 #N Geom=AllCheck Guess=TCheck SCRF=Check GenChk RB3LYP/6-31G(2df,p) Fr
 eq
 ----------------------------------------------------------------------

 Structure from the checkpoint file:  "/scratch/puck/g09_ccc72b30-cacf-4a03-9e6b-ca37cc49dd5c/Gau-99231.chk"
 -----
 titel
 -----
 Charge =  0 Multiplicity = 1

                         Standard orientation:
 ---------------------------------------------------------------------
 Center     Atomic      Atomic             Coordinates (Angstroms)
 Number     Number       Type             X           Y           Z
 ---------------------------------------------------------------------
      1          6           0       -2.671251   -1.190732    0.018937
      2          6           0       -1.381542   -0.422696   -0.011651
      3          6           0       -0.175263   -0.995425   -0.013695
      4          6           0        1.066135   -0.189397    0.020849
      5          6           0        2.271855   -0.602712   -0.718052
      6          8           0        2.192144   -0.778308    0.697421
      7          6           0        0.814662    1.266738    0.366323
      8          8           0       -0.300612    1.757061   -0.354499
      9          6           0       -1.500052    1.084364   -0.026856
     10          1           0       -3.282479   -0.903910    0.884466
     11          1           0       -3.277735   -0.986494   -0.872721
     12          1           0       -2.493485   -2.267564    0.073076
     13          1           0       -0.059598   -2.076274   -0.011213
     14          1           0        2.258279   -1.521134   -1.304056
     15          1           0        2.975794    0.155460   -1.060769
     16          1           0        0.649860    1.348174    1.453599
     17          1           0        1.667507    1.896491    0.101905
     18          1           0       -1.881190    1.427210    0.954055
     19          1           0       -2.236475    1.397180   -0.776848
 ---------------------------------------------------------------------

 SCF Done:  E(RB3LYP) =  -423.173100374     A.U. after    1 cycles

 The electronic state is 1-A.
 Alpha  occ. eigenvalues --  -19.15021 -19.14432 -10.24146 -10.23564 -10.23200
 Alpha  occ. eigenvalues --  -10.23061 -10.19755 -10.18972 -10.18239  -1.07000
 Alpha  occ. eigenvalues --   -1.03891  -0.81536  -0.75831  -0.70485  -0.66082
 Alpha  occ. eigenvalues --   -0.65348  -0.59785  -0.52620  -0.50642  -0.50331
 Alpha  occ. eigenvalues --   -0.47446  -0.45315  -0.42714  -0.41979  -0.41179
 Alpha  occ. eigenvalues --   -0.40000  -0.38562  -0.38070  -0.36227  -0.33330
 Alpha  occ. eigenvalues --   -0.30922  -0.27597  -0.25182  -0.23803
 Alpha virt. eigenvalues --    0.00829   0.08655   0.09998   0.10444   0.11647
 Alpha virt. eigenvalues --    0.12542   0.14535   0.14939   0.15595   0.16708
 Alpha virt. eigenvalues --    0.17365   0.18468   0.18849   0.20223   0.22302

 Mulliken charges:
               1
     1  C   -0.476767
     2  C    0.257208
     3  C   -0.214958
     4  C    0.393333
     5  C   -0.230123
     6  O   -0.283090
     7  C   -0.181887
     8  O   -0.242129
     9  C   -0.155906
    10  H    0.129477
    11  H    0.128740
    12  H    0.129359
    13  H    0.090802
    14  H    0.112664
    15  H    0.114409
    16  H    0.100116
    17  H    0.112810
    18  H    0.099476
    19  H    0.116468
 Sum of Mulliken charges =   0.00000

 Dipole moment (field-independent basis, Debye):
    X=             -1.4412    Y=             -0.3960    Z=             -0.6769  Tot=              1.6408
 Quadrupole moment (field-independent basis, Debye-Ang):
   XX=            -50.2567   YY=            -54.5514   ZZ=            -54.2892
   XY=              2.3274   XZ=             -3.9958   YZ=              3.0397

  Exact polarizability: 106.919  -3.186  74.024  -4.721   3.104  58.658
 Approx polarizability: 149.191 -13.096 105.651  -3.557   0.686  94.429

                      1                      2                      3
                      A                      A                      A
 Frequencies --    102.9852               143.9248               187.2181
 Red. masses --      2.6987                 2.0574                 1.2558
 Frc consts  --      0.0169                 0.0251                 0.0259
 IR Inten    --      1.2124                 0.8024                 0.2075

                      4                      5                      6
                      A                      A                      A
 Frequencies --    240.1105               271.9148               363.5891
 Red. masses --      2.9384                 3.5860                 2.3952
 Frc consts  --      0.0998                 0.1562                 0.1866
 IR Inten    --      2.6564                 9.0053                 3.1529

                      7                      8                      9
                      A                      A                      A
 Frequencies --    390.9302               396.1403               448.4032
 Red. masses --      2.5555                 2.8479                 5.4953
 Frc consts  --      0.2301                 0.2633                 0.6510
 IR Inten    --      2.9250                 0.3207                 3.0004

                     10                     11                     12
                      A                      A                      A
 Frequencies --    469.1091               526.8975               585.2892
 Red. masses --      3.3084                 2.6973                 5.8917
 Frc consts  --      0.4290                 0.4412                 1.1891
 IR Inten    --      0.5761                 4.6738                 3.6336

                     13                     14                     15
                      A                      A                      A
 Frequencies --    803.5543               842.8829               864.0434
 Red. masses --      3.0580                 3.5208                 1.6823
 Frc consts  --      1.1634                 1.4737                 0.7400
 IR Inten    --     18.0217                10.7079                 7.2744

                     16                     17                     18
                      A                      A                      A
 Frequencies --    899.5605               926.4993               954.9278
 Red. masses --      3.0942                 1.4143                 2.6389
 Frc consts  --      1.4752                 0.7153                 1.4178
 IR Inten    --     13.2620                 7.9737                26.7597

                     19                     20                     21
                      A                      A                      A
 Frequencies --    964.9623              1000.4905              1032.5807
 Red. masses --      3.5500                 1.5628                 1.7066
 Frc consts  --      1.9476                 0.9217                 1.0721
 IR Inten    --      3.4417                27.3279                12.8934

                     22                     23                     24
                      A                      A                      A
 Frequencies --   1071.8667              1094.5851              1129.3356
 Red. masses --      1.9641                 1.9688                 1.2995
 Frc consts  --      1.3296                 1.3898                 0.9765
 IR Inten    --      1.9397                 1.5188                 4.4227

                     25                     26                     27
                      A                      A                      A
 Frequencies --   1137.1936              1156.1228              1181.0048
 Red. masses --      3.1234                 1.7404                 2.1165
 Frc consts  --      2.3798                 1.3706                 1.7393
 IR Inten    --     55.9662                21.7236                11.2664

                     28                     29                     30
                      A                      A                      A
 Frequencies --   1240.3268              1301.3044              1310.3297
 Red. masses --      1.1779                 1.4033                 1.5490
 Frc consts  --      1.0676                 1.4001                 1.5670
 IR Inten    --      7.0405                 6.9351                10.8909

                     31                     32                     33
                      A                      A                      A
 Frequencies --   1331.6302              1366.7976              1405.7668
 Red. masses --      2.7858                 1.4274                 1.8028
 Frc consts  --      2.9105                 1.5711                 2.0990
 IR Inten    --      4.1647                 9.3907                 3.3697

                     34                     35                     36
                      A                      A                      A
 Frequencies --   1415.5033              1431.2803              1478.3496
 Red. masses --      1.2605                 1.8588                 1.0469
 Frc consts  --      1.4880                 2.2435                 1.3481
 IR Inten    --      3.7691                 2.3048                 6.7115

                     37                     38                     39
                      A                      A                      A
 Frequencies --   1482.9303              1489.4399              1496.3165
 Red. masses --      1.0815                 1.0700                 1.1012
 Frc consts  --      1.4012                 1.3985                 1.4526
 IR Inten    --      0.4151                 4.0386                 5.6568

                     40                     41                     42
                      A                      A                      A
 Frequencies --   1525.9961              1736.0601              2926.7632
 Red. masses --      1.3073                 7.4691                 1.0723
 Frc consts  --      1.7937                13.2631                 5.4116
 IR Inten    --      1.8899                 4.2247                58.9141

                     43                     44                     45
                      A                      A                      A
 Frequencies --   2972.7051              3016.9940              3049.9826
 Red. masses --      1.0699                 1.0387                 1.0868
 Frc consts  --      5.5706                 5.5703                 5.9567
 IR Inten    --     49.8161                32.8832                31.6484

                     46                     47                     48
                      A                      A                      A
 Frequencies --   3063.2265              3074.8581              3098.5324
 Red. masses --      1.0984                 1.0502                 1.0935
 Frc consts  --      6.0725                 5.8501                 6.1857
 IR Inten    --     21.3843                29.6185                25.6553

                     49                     50                     51
                      A                      A                      A
 Frequencies --   3116.8270              3160.6269              3163.4098
 Red. masses --      1.0988                 1.0998                 1.1102
 Frc consts  --      6.2890                 6.4729                 6.5455
 IR Inten    --     16.1435                 0.4666                32.6465

 - Thermochemistry -
 -------------------
 Temperature   298.150 Kelvin.  Pressure   1.00000 Atm.
 Atom     1 has atomic number  6 and mass  12.00000

 Molecular mass:   126.06808 amu.
 Principal axes and moments of inertia in atomic units:
                           1         2         3
     Eigenvalues --   631.195021346.915771796.19546
           X            0.99920   0.03693  -0.01522
           Y           -0.03643   0.99883   0.03194
           Z            0.01638  -0.03136   0.99937
 This molecule is an asymmetric top.
 Rotational symmetry number  1.
 Warning -- assumption of classical behavior for rotation
           may cause significant error
 Rotational temperatures (Kelvin)      0.13722     0.06431     0.04822
 Rotational constants (GHZ):           2.85925     1.33991     1.00476
 Zero-point vibrational energy     417748.4 (Joules/Mol)
                                   99.84426 (Kcal/Mol)
 Warning -- explicit consideration of  12 degrees of freedom as
           vibrations may cause significant error
 Vibrational temperatures:    148.17   207.08   269.36   345.47   391.22
          (Kelvin)            523.12   562.46   569.96   645.15   674.94
                              758.09   842.10  1156.13  1212.72  1243.16
                             1294.27  1333.02  1373.93  1388.36  1439.48
                             1485.65  1542.18  1574.86  1624.86  1636.17
                             1663.40  1699.20  1784.55  1872.28  1885.27
                             1915.92  1966.51  2022.58  2036.59  2059.29
                             2127.01  2133.60  2142.97  2152.86  2195.57
                             2497.80  4210.95  4277.05  4340.78  4388.24
                             4407.29  4424.03  4458.09  4484.41  4547.43
                             4551.44

 Zero-point correction=                           0.159112 (Hartree/Particle)
 Thermal correction to Energy=                    0.167431
 Thermal correction to Enthalpy=                  0.168376
 Thermal correction to Gibbs Free Energy=         0.126332
 Sum of electronic and zero-point Energies=           -423.013988
 Sum of electronic and thermal Energies=              -423.005669
 Sum of electronic and thermal Enthalpies=            -423.004725
 Sum of electronic and thermal Free Energies=         -423.046769

                     E (Thermal)             CV                S
                      KCal/Mol        Cal/Mol-Kelvin    Cal/Mol-Kelvin
 Total                  105.065             31.926             88.489
 Electronic               0.000              0.000              0.000
 Translational            0.889              2.981             40.409
 Rotational               0.889              2.981             28.814
 Vibrational            103.287             25.965             19.266
 Vibration     1          0.605              1.947              3.397
 Vibration     2          0.616              1.909              2.751
 Vibration     3          0.632              1.857              2.255
 Vibration     4          0.657              1.779              1.802
 Vibration     5          0.675              1.725              1.584
 Vibration     6          0.737              1.547              1.107
 Vibration     7          0.759              1.490              0.997
 Vibration     8          0.763              1.478              0.977
 Vibration     9          0.807              1.364              0.801
 Vibration    10          0.826              1.319              0.740
 Vibration    11          0.882              1.190              0.594
 Vibration    12          0.942              1.063              0.476

 Normal termination of Gaussian 09 at Mon Jan 27 22:38:51 2020.
