 Gaussian 09, Revision D.01,
 Gaussian 09:  ES64L-G09RevD.01 24-Apr-2013

 -----------------------------
 # b3lyp 6-31G(2df,p) opt Freq
 -----------------------------

 -----
 titel
 -----
 Symbolic Z-matrix:
 Charge =  0 Multiplicity = 1

 SCF Done:  E(RB3LYP) =  -423.094627246     A.U. after   14 cycles
 Optimization completed.
    -- Stationary point found.
 Normal termination of Gaussian 09 at Tue Jan 28 08:14:21 2020.

 ----------------------------------------------------------------------
 #N Geom=AllCheck Guess=TCheck SCRF=Check GenChk RB3LYP/6-31G(2df,p) Fr
 eq
 ----------------------------------------------------------------------

 Structure from the checkpoint file:  "/scratch/puck/g09_cda1b3f0-ef18-4b2e-abc7-abccb62f45e8/Gau-81144.chk"
 -----
 titel
 -----
 Charge =  0 Multiplicity = 1

                         Standard orientation:
 ---------------------------------------------------------------------
 Center     Atomic      Atomic             Coordinates (Angstroms)
 Number     Number       Type             X           Y           Z
 ---------------------------------------------------------------------
      1          8           0        2.438754   -1.113696   -0.098483
      2          6           0        1.293816   -0.408896    0.333641
      3          6           0        1.418445    1.167156    0.142434
      4          6           0        0.002645    1.770209   -0.203608
      5          6           0       -0.847337    0.528975   -0.092860
      6          6           0       -1.422955   -0.156710    1.182832
      7          6           0       -1.443084   -1.149626    0.012180
      8          8           0       -1.988341   -0.050494   -0.855571
      9          6           0       -0.008912   -0.695766   -0.417112
     10          1           0        2.504587   -1.016317   -1.054812
     11          1           0        1.218869   -0.639524    1.398446
     12          1           0        1.854389    1.627444    1.032201
     13          1           0        2.119241    1.350873   -0.678309
     14          1           0       -0.294889    2.575374    0.472722
     15          1           0       -0.016706    2.161632   -1.224756
     16          1           0       -0.761051   -0.349192    2.029432
     17          1           0       -2.403939    0.207420    1.488913
     18          1           0       -1.936203   -2.117033   -0.082794
     19          1           0        0.156684   -0.819207   -1.493657
 ---------------------------------------------------------------------

 SCF Done:  E(RB3LYP) =  -423.094627246     A.U. after    1 cycles

 The electronic state is 1-A.
 Alpha  occ. eigenvalues --  -19.13941 -19.13230 -10.25343 -10.24517 -10.24059
 Alpha  occ. eigenvalues --  -10.19615 -10.19254 -10.19167 -10.18541  -1.05113
 Alpha  occ. eigenvalues --   -1.02251  -0.83377  -0.76375  -0.70807  -0.67155
 Alpha  occ. eigenvalues --   -0.63045  -0.58964  -0.54405  -0.50156  -0.48309
 Alpha  occ. eigenvalues --   -0.46898  -0.45229  -0.42447  -0.41606  -0.40774
 Alpha  occ. eigenvalues --   -0.36926  -0.35884  -0.35125  -0.34154  -0.32844
 Alpha  occ. eigenvalues --   -0.31445  -0.28463  -0.27005  -0.23247
 Alpha virt. eigenvalues --    0.06425   0.07467   0.09249   0.10166   0.11539
 Alpha virt. eigenvalues --    0.12390   0.13063   0.14217   0.15073   0.16623
 Alpha virt. eigenvalues --    0.17443   0.17917   0.20296   0.20521   0.21633

 Mulliken charges:
               1
     1  O   -0.439290
     2  C    0.084092
     3  C   -0.224380
     4  C   -0.377784
     5  C    0.444749
     6  C   -0.273283
     7  C   -0.001148
     8  O   -0.371492
     9  C   -0.042504
    10  H    0.276389
    11  H    0.098013
    12  H    0.113922
    13  H    0.103740
    14  H    0.110946
    15  H    0.122311
    16  H    0.103207
    17  H    0.107474
    18  H    0.095069
    19  H    0.069968
 Sum of Mulliken charges =   0.00000

 Dipole moment (field-independent basis, Debye):
    X=              0.7241    Y=              0.7539    Z=              0.3270  Tot=              1.0953
 Quadrupole moment (field-independent basis, Debye-Ang):
   XX=            -60.1716   YY=            -52.2811   ZZ=            -51.0404
   XY=              3.7901   XZ=             -6.2251   YZ=              1.1782

  Exact polarizability:  81.314   4.068  73.799  -3.205   1.145  68.818
 Approx polarizability: 114.840   2.657 108.541  -0.004   0.897 110.074

                      1                      2                      3
                      A                      A                      A
 Frequencies --     57.2912               218.4673               275.8652
 Red. masses --      2.0629                 3.4507                 1.5861
 Frc consts  --      0.0040                 0.0970                 0.0711
 IR Inten    --      0.5862                 7.6553                26.6742

                      4                      5                      6
                      A                      A                      A
 Frequencies --    288.7629               329.6928               426.8032
 Red. masses --      2.9861                 1.9135                 3.3669
 Frc consts  --      0.1467                 0.1225                 0.3614
 IR Inten    --      4.2203                68.4408                 1.8776

                      7                      8                      9
                      A                      A                      A
 Frequencies --    454.7825               534.9454               572.0271
 Red. masses --      3.2184                 3.8606                 3.3535
 Frc consts  --      0.3922                 0.6509                 0.6465
 IR Inten    --      0.9808                 8.1301                 2.5628

                     10                     11                     12
                      A                      A                      A
 Frequencies --    598.4981               689.9079               697.8673
 Red. masses --      3.3747                 3.0873                 4.0541
 Frc consts  --      0.7122                 0.8658                 1.1633
 IR Inten    --      2.1526                10.7652                 2.9106

                     13                     14                     15
                      A                      A                      A
 Frequencies --    777.5244               828.7087               886.5256
 Red. masses --      1.5379                 3.0134                 2.5752
 Frc consts  --      0.5478                 1.2193                 1.1924
 IR Inten    --      2.3581                 6.8191                14.8175

                     16                     17                     18
                      A                      A                      A
 Frequencies --    899.8620               926.8501               936.1361
 Red. masses --      3.6008                 2.2935                 2.9657
 Frc consts  --      1.7179                 1.1608                 1.5313
 IR Inten    --      1.6497                13.8257                 3.1694

                     19                     20                     21
                      A                      A                      A
 Frequencies --    978.8870               989.5803              1034.6207
 Red. masses --      1.6450                 2.9765                 2.7506
 Frc consts  --      0.9287                 1.7173                 1.7348
 IR Inten    --     13.9635                 8.3653                14.6711

                     22                     23                     24
                      A                      A                      A
 Frequencies --   1042.9602              1053.0061              1091.4177
 Red. masses --      2.0681                 1.4379                 1.5641
 Frc consts  --      1.3254                 0.9394                 1.0977
 IR Inten    --     14.7638                 6.2978                51.6732

                     25                     26                     27
                      A                      A                      A
 Frequencies --   1118.7952              1125.1400              1172.4055
 Red. masses --      1.8220                 2.5965                 1.4690
 Frc consts  --      1.3437                 1.9367                 1.1896
 IR Inten    --     30.9859                65.4216                 6.4862

                     28                     29                     30
                      A                      A                      A
 Frequencies --   1192.1380              1201.9854              1217.2385
 Red. masses --      1.4668                 1.3691                 1.3593
 Frc consts  --      1.2282                 1.1655                 1.1866
 IR Inten    --     15.0711                 4.5755                16.4958

                     31                     32                     33
                      A                      A                      A
 Frequencies --   1234.5513              1265.4274              1271.1788
 Red. masses --      1.2180                 1.5617                 1.6038
 Frc consts  --      1.0937                 1.4734                 1.5269
 IR Inten    --      1.1243                11.7480                 2.4916

                     34                     35                     36
                      A                      A                      A
 Frequencies --   1292.6709              1303.0793              1346.9381
 Red. masses --      1.5125                 1.3452                 2.5684
 Frc consts  --      1.4891                 1.3458                 2.7454
 IR Inten    --      6.5824                 3.5040                12.0599

                     37                     38                     39
                      A                      A                      A
 Frequencies --   1384.7198              1441.0690              1477.2444
 Red. masses --      1.6067                 1.2731                 1.0796
 Frc consts  --      1.8151                 1.5577                 1.3882
 IR Inten    --     10.4671                41.1922                 0.2066

                     40                     41                     42
                      A                      A                      A
 Frequencies --   1497.4578              1501.3160              3046.9699
 Red. masses --      1.0986                 1.2170                 1.0835
 Frc consts  --      1.4514                 1.6162                 5.9269
 IR Inten    --      2.2295                 8.9140                21.5026

                     43                     44                     45
                      A                      A                      A
 Frequencies --   3052.8910              3064.1144              3072.7552
 Red. masses --      1.0624                 1.0610                 1.0605
 Frc consts  --      5.8340                 5.8694                 5.8993
 IR Inten    --     25.7677                32.7086                14.0652

                     46                     47                     48
                      A                      A                      A
 Frequencies --   3087.3075              3100.1271              3117.4478
 Red. masses --      1.0840                 1.1007                 1.1032
 Frc consts  --      6.0873                 6.2330                 6.3167
 IR Inten    --     24.5099                 5.4893                45.9652

                     49                     50                     51
                      A                      A                      A
 Frequencies --   3120.0024              3151.6813              3800.1333
 Red. masses --      1.0936                 1.1101                 1.0658
 Frc consts  --      6.2720                 6.4966                 9.0684
 IR Inten    --     52.8046                24.4206                13.2650

 - Thermochemistry -
 -------------------
 Temperature   298.150 Kelvin.  Pressure   1.00000 Atm.
 Atom     1 has atomic number  8 and mass  15.99491

 Molecular mass:   126.06808 amu.
 Principal axes and moments of inertia in atomic units:
                           1         2         3
     Eigenvalues --   612.021911195.059311465.94488
           X            0.99914   0.03389  -0.02369
           Y           -0.03377   0.99941   0.00553
           Z            0.02386  -0.00472   0.99970
 This molecule is an asymmetric top.
 Rotational symmetry number  1.
 Warning -- assumption of classical behavior for rotation
           may cause significant error
 Rotational temperatures (Kelvin)      0.14152     0.07248     0.05908
 Rotational constants (GHZ):           2.94882     1.51017     1.23111
 Zero-point vibrational energy     420175.0 (Joules/Mol)
                                  100.42424 (Kcal/Mol)
 Warning -- explicit consideration of  10 degrees of freedom as
           vibrations may cause significant error
 Vibrational temperatures:     82.43   314.33   396.91   415.46   474.35
          (Kelvin)            614.07   654.33   769.67   823.02   861.10
                              992.62  1004.07  1118.68  1192.33  1275.51
                             1294.70  1333.53  1346.89  1408.40  1423.78
                             1488.59  1500.59  1515.04  1570.30  1609.69
                             1618.82  1686.83  1715.22  1729.39  1751.33
                             1776.24  1820.67  1828.94  1859.86  1874.84
                             1937.94  1992.30  2073.37  2125.42  2154.51
                             2160.06  4383.90  4392.42  4408.57  4421.00
                             4441.94  4460.39  4485.31  4488.98  4534.56
                             5467.54

 Zero-point correction=                           0.160036 (Hartree/Particle)
 Thermal correction to Energy=                    0.167576
 Thermal correction to Enthalpy=                  0.168521
 Thermal correction to Gibbs Free Energy=         0.127909
 Sum of electronic and zero-point Energies=           -422.934591
 Sum of electronic and thermal Energies=              -422.927051
 Sum of electronic and thermal Enthalpies=            -422.926107
 Sum of electronic and thermal Free Energies=         -422.966718

                     E (Thermal)             CV                S
                      KCal/Mol        Cal/Mol-Kelvin    Cal/Mol-Kelvin
 Total                  105.156             30.551             85.473
 Electronic               0.000              0.000              0.000
 Translational            0.889              2.981             40.409
 Rotational               0.889              2.981             28.463
 Vibrational            103.378             24.589             16.602
 Vibration     1          0.596              1.975              4.548
 Vibration     2          0.646              1.813              1.972
 Vibration     3          0.678              1.718              1.559
 Vibration     4          0.685              1.695              1.481
 Vibration     5          0.712              1.616              1.262
 Vibration     6          0.788              1.412              0.869
 Vibration     7          0.813              1.350              0.781
 Vibration     8          0.890              1.173              0.576
 Vibration     9          0.928              1.092              0.500
 Vibration    10          0.956              1.035              0.452

 Optimization completed.
    -- Stationary point found.
 Normal termination of Gaussian 09 at Tue Jan 28 09:05:02 2020.
