 Gaussian 09, Revision D.01,
 Gaussian 09:  ES64L-G09RevD.01 24-Apr-2013

 -----------------------------
 # b3lyp 6-31G(2df,p) opt Freq
 -----------------------------

 -----
 titel
 -----
 Symbolic Z-matrix:
 Charge =  0 Multiplicity = 1

 SCF Done:  E(RB3LYP) =  -423.204558186     A.U. after   14 cycles
 Optimization completed.
    -- Stationary point found.
 Normal termination of Gaussian 09 at Tue Jan 28 08:11:01 2020.

 ----------------------------------------------------------------------
 #N Geom=AllCheck Guess=TCheck SCRF=Check GenChk RB3LYP/6-31G(2df,p) Fr
 eq
 ----------------------------------------------------------------------

 Structure from the checkpoint file:  "/scratch/puck/g09_b2778b51-b486-4d76-9b9a-fd5044745c38/Gau-74194.chk"
 -----
 titel
 -----
 Charge =  0 Multiplicity = 1

                         Standard orientation:
 ---------------------------------------------------------------------
 Center     Atomic      Atomic             Coordinates (Angstroms)
 Number     Number       Type             X           Y           Z
 ---------------------------------------------------------------------
      1          6           0       -2.692993   -0.318737    0.362204
      2          6           0       -1.385046   -0.427965   -0.422945
      3          8           0       -0.970632    0.839812   -0.948817
      4          6           0       -0.240471    1.521757    0.062197
      5          6           0        0.540993    0.431809    0.819982
      6          6           0       -0.199438   -0.898847    0.432167
      7          6           0        1.054374   -1.380317   -0.362362
      8          6           0        1.778199   -0.099449    0.075741
      9          8           0        2.887090    0.323999   -0.073797
     10          1           0       -3.464349    0.148064   -0.256171
     11          1           0       -3.043200   -1.311660    0.662758
     12          1           0       -2.570297    0.281742    1.269643
     13          1           0       -1.537281   -1.074023   -1.294545
     14          1           0        0.406426    2.254968   -0.427217
     15          1           0       -0.910417    2.057346    0.750676
     16          1           0        0.704567    0.672423    1.872234
     17          1           0       -0.494845   -1.551897    1.253129
     18          1           0        1.526448   -2.300228   -0.005387
     19          1           0        0.917576   -1.456728   -1.446113
 ---------------------------------------------------------------------

 SCF Done:  E(RB3LYP) =  -423.204558186     A.U. after    1 cycles

 The electronic state is 1-A.
 Alpha  occ. eigenvalues --  -19.14300 -19.13770 -10.26922 -10.23868 -10.23706
 Alpha  occ. eigenvalues --  -10.20168 -10.19806 -10.19349 -10.18205  -1.04770
 Alpha  occ. eigenvalues --   -1.03962  -0.84855  -0.77313  -0.72031  -0.66153
 Alpha  occ. eigenvalues --   -0.62645  -0.57579  -0.52790  -0.50844  -0.48759
 Alpha  occ. eigenvalues --   -0.46478  -0.43856  -0.42763  -0.42321  -0.41268
 Alpha  occ. eigenvalues --   -0.40828  -0.39062  -0.36524  -0.34299  -0.33701
 Alpha  occ. eigenvalues --   -0.32926  -0.31429  -0.26593  -0.23809
 Alpha virt. eigenvalues --   -0.02415   0.07930   0.10569   0.10962   0.11632
 Alpha virt. eigenvalues --    0.12768   0.13802   0.14566   0.15900   0.16355
 Alpha virt. eigenvalues --    0.17338   0.18171   0.18876   0.20085   0.22216

 Mulliken charges:
               1
     1  C   -0.410261
     2  C    0.117047
     3  O   -0.263284
     4  C   -0.106324
     5  C   -0.172306
     6  C   -0.033439
     7  C   -0.374449
     8  C    0.417216
     9  O   -0.295836
    10  H    0.128254
    11  H    0.116613
    12  H    0.118062
    13  H    0.085814
    14  H    0.128497
    15  H    0.098301
    16  H    0.099125
    17  H    0.080375
    18  H    0.130013
    19  H    0.136583
 Sum of Mulliken charges =   0.00000

 Dipole moment (field-independent basis, Debye):
    X=             -2.3677    Y=             -1.4314    Z=              1.5092  Tot=              3.1516
 Quadrupole moment (field-independent basis, Debye-Ang):
   XX=            -62.6560   YY=            -50.4329   ZZ=            -52.7678
   XY=             -0.8792   XZ=             -0.3298   YZ=              1.7584

  Exact polarizability:  86.451   1.994  75.199  -1.925   3.324  63.028
 Approx polarizability: 117.973   6.605 110.311  -2.233   3.433  99.785

                      1                      2                      3
                      A                      A                      A
 Frequencies --     42.4083               139.0196               216.3234
 Red. masses --      4.0690                 4.3998                 1.7118
 Frc consts  --      0.0043                 0.0501                 0.0472
 IR Inten    --      3.8673                 0.9477                 1.8169

                      4                      5                      6
                      A                      A                      A
 Frequencies --    241.6104               255.8849               329.0301
 Red. masses --      1.4079                 2.0811                 3.2510
 Frc consts  --      0.0484                 0.0803                 0.2074
 IR Inten    --      3.3757                 1.3934                 2.5835

                      7                      8                      9
                      A                      A                      A
 Frequencies --    431.0190               464.4746               510.8313
 Red. masses --      4.1742                 3.1268                 2.0851
 Frc consts  --      0.4569                 0.3974                 0.3206
 IR Inten    --      2.3075                 5.7951                 1.1918

                     10                     11                     12
                      A                      A                      A
 Frequencies --    619.9435               703.5964               724.9402
 Red. masses --      3.6593                 3.5866                 2.8383
 Frc consts  --      0.8286                 1.0461                 0.8789
 IR Inten    --      0.7140                 3.0557                 0.1681

                     13                     14                     15
                      A                      A                      A
 Frequencies --    742.1161               836.6389               851.0106
 Red. masses --      2.7244                 3.0469                 2.2594
 Frc consts  --      0.8840                 1.2566                 0.9641
 IR Inten    --      0.3278                 0.9035                16.1293

                     16                     17                     18
                      A                      A                      A
 Frequencies --    885.0728               932.3881               963.2380
 Red. masses --      2.7221                 1.7906                 3.0578
 Frc consts  --      1.2564                 0.9172                 1.6716
 IR Inten    --      8.7014                 7.0498                 2.2479

                     19                     20                     21
                      A                      A                      A
 Frequencies --   1000.9058              1005.6068              1012.0592
 Red. masses --      1.6394                 2.2040                 1.8953
 Frc consts  --      0.9677                 1.3132                 1.1438
 IR Inten    --     10.8687                 7.4001                10.4772

                     22                     23                     24
                      A                      A                      A
 Frequencies --   1067.5385              1085.5308              1110.5582
 Red. masses --      1.9838                 2.8988                 2.3468
 Frc consts  --      1.3320                 2.0126                 1.7053
 IR Inten    --     47.7331                30.2360                26.4694

                     25                     26                     27
                      A                      A                      A
 Frequencies --   1138.1460              1155.7223              1170.0400
 Red. masses --      2.5872                 2.1527                 1.4806
 Frc consts  --      1.9746                 1.6941                 1.1943
 IR Inten    --     47.9669                 8.9612                15.1841

                     28                     29                     30
                      A                      A                      A
 Frequencies --   1222.3641              1228.0956              1241.4484
 Red. masses --      1.2854                 1.6653                 1.5311
 Frc consts  --      1.1316                 1.4798                 1.3904
 IR Inten    --      9.6967                13.4185                 0.1571

                     31                     32                     33
                      A                      A                      A
 Frequencies --   1267.1425              1299.9760              1329.3964
 Red. masses --      1.4466                 1.3535                 1.4630
 Frc consts  --      1.3685                 1.3477                 1.5233
 IR Inten    --      8.4045                 2.5768                 2.5554

                     34                     35                     36
                      A                      A                      A
 Frequencies --   1372.9186              1392.8911              1403.2934
 Red. masses --      1.3523                 1.2964                 1.2908
 Frc consts  --      1.5018                 1.4819                 1.4976
 IR Inten    --     13.4623                 1.2183                11.7498

                     37                     38                     39
                      A                      A                      A
 Frequencies --   1429.5188              1487.8412              1496.2396
 Red. masses --      1.1080                 1.0553                 1.0498
 Frc consts  --      1.3341                 1.3764                 1.3847
 IR Inten    --      9.3241                 2.5955                 2.7396

                     40                     41                     42
                      A                      A                      A
 Frequencies --   1518.4673              1891.4039              2991.9844
 Red. masses --      1.0839                12.6680                 1.0699
 Frc consts  --      1.4724                26.7010                 5.6433
 IR Inten    --      0.6742               275.9793                58.5045

                     43                     44                     45
                      A                      A                      A
 Frequencies --   3037.3239              3048.4841              3052.7462
 Red. masses --      1.0356                 1.0849                 1.0603
 Frc consts  --      5.6289                 5.9403                 5.8219
 IR Inten    --     15.7332                17.1945                13.5549

                     46                     47                     48
                      A                      A                      A
 Frequencies --   3091.7424              3097.8444              3104.9656
 Red. masses --      1.0933                 1.0889                 1.0994
 Frc consts  --      6.1572                 6.1569                 6.2449
 IR Inten    --     24.8092                 6.6957                 9.2557

                     49                     50                     51
                      A                      A                      A
 Frequencies --   3106.0989              3117.0801              3121.3506
 Red. masses --      1.1014                 1.0944                 1.0992
 Frc consts  --      6.2608                 6.2648                 6.3097
 IR Inten    --     23.5740                 9.6999                31.2947

 - Thermochemistry -
 -------------------
 Temperature   298.150 Kelvin.  Pressure   1.00000 Atm.
 Atom     1 has atomic number  6 and mass  12.00000

 Molecular mass:   126.06808 amu.
 Principal axes and moments of inertia in atomic units:
                           1         2         3
     Eigenvalues --   513.133291396.622871611.36249
           X            0.99991   0.00073  -0.01305
           Y           -0.00013   0.99892   0.04638
           Z            0.01307  -0.04638   0.99884
 This molecule is an asymmetric top.
 Rotational symmetry number  1.
 Warning -- assumption of classical behavior for rotation
           may cause significant error
 Rotational temperatures (Kelvin)      0.16879     0.06202     0.05375
 Rotational constants (GHZ):           3.51710     1.29222     1.12001
 Zero-point vibrational energy     418610.9 (Joules/Mol)
                                  100.05040 (Kcal/Mol)
 Warning -- explicit consideration of  10 degrees of freedom as
           vibrations may cause significant error
 Vibrational temperatures:     61.02   200.02   311.24   347.62   368.16
          (Kelvin)            473.40   620.14   668.27   734.97   891.96
                             1012.32  1043.03  1067.74  1203.74  1224.41
                             1273.42  1341.50  1385.88  1440.08  1446.84
                             1456.13  1535.95  1561.83  1597.84  1637.54
                             1662.82  1683.42  1758.71  1766.95  1786.17
                             1823.13  1870.37  1912.70  1975.32  2004.06
                             2019.02  2056.76  2140.67  2152.75  2184.73
                             2721.30  4304.79  4370.03  4386.08  4392.22
                             4448.32  4457.10  4467.35  4468.98  4484.78
                             4490.92

 Zero-point correction=                           0.159440 (Hartree/Particle)
 Thermal correction to Energy=                    0.167544
 Thermal correction to Enthalpy=                  0.168488
 Thermal correction to Gibbs Free Energy=         0.126302
 Sum of electronic and zero-point Energies=           -423.045118
 Sum of electronic and thermal Energies=              -423.037014
 Sum of electronic and thermal Enthalpies=            -423.036070
 Sum of electronic and thermal Free Energies=         -423.078256

                     E (Thermal)             CV                S
                      KCal/Mol        Cal/Mol-Kelvin    Cal/Mol-Kelvin
 Total                  105.136             31.049             88.788
 Electronic               0.000              0.000              0.000
 Translational            0.889              2.981             40.409
 Rotational               0.889              2.981             28.537
 Vibrational            103.358             25.087             19.843
 Vibration     1          0.595              1.980              5.143
 Vibration     2          0.615              1.914              2.817
 Vibration     3          0.645              1.816              1.990
 Vibration     4          0.658              1.777              1.791
 Vibration     5          0.666              1.753              1.690
 Vibration     6          0.712              1.618              1.265
 Vibration     7          0.792              1.403              0.855
 Vibration     8          0.822              1.329              0.753
 Vibration     9          0.866              1.226              0.632
 Vibration    10          0.980              0.990              0.417

 Optimization completed.
    -- Stationary point found.
 Normal termination of Gaussian 09 at Tue Jan 28 09:00:04 2020.
