 Gaussian 09, Revision D.01,
 Gaussian 09:  ES64L-G09RevD.01 24-Apr-2013

 -----------------------------
 # b3lyp 6-31G(2df,p) opt Freq
 -----------------------------

 -----
 titel
 -----
 Symbolic Z-matrix:
 Charge =  0 Multiplicity = 1

 SCF Done:  E(RB3LYP) =  -423.154686154     A.U. after   14 cycles
 Optimization completed.
    -- Stationary point found.
 Normal termination of Gaussian 09 at Mon Jan 27 13:50:30 2020.

 ----------------------------------------------------------------------
 #N Geom=AllCheck Guess=TCheck SCRF=Check GenChk RB3LYP/6-31G(2df,p) Fr
 eq
 ----------------------------------------------------------------------

 Structure from the checkpoint file:  "/scratch/puck/g09_bb71444b-b8d2-42ce-9b89-621296abf0f0/Gau-53302.chk"
 -----
 titel
 -----
 Charge =  0 Multiplicity = 1

                         Standard orientation:
 ---------------------------------------------------------------------
 Center     Atomic      Atomic             Coordinates (Angstroms)
 Number     Number       Type             X           Y           Z
 ---------------------------------------------------------------------
      1          8           0        3.089136   -0.887111   -0.463325
      2          6           0        2.566987   -0.164300    0.346644
      3          6           0        1.569594    0.922030    0.016354
      4          6           0        0.161503    0.520780    0.477901
      5          6           0       -0.973630    1.522035    0.080480
      6          6           0       -1.685472    0.391508   -0.691229
      7          8           0       -2.592661   -0.367986    0.134988
      8          6           0       -1.598188   -1.394195    0.367571
      9          6           0       -0.521838   -0.592042   -0.376910
     10          1           0        2.772830   -0.285393    1.436533
     11          1           0        1.866194    1.845283    0.532364
     12          1           0        1.588778    1.100961   -1.063431
     13          1           0        0.181989    0.282088    1.547430
     14          1           0       -1.559554    1.950513    0.896277
     15          1           0       -0.615769    2.328222   -0.567596
     16          1           0       -2.102250    0.602833   -1.679516
     17          1           0       -1.429041   -1.579784    1.436263
     18          1           0       -1.880643   -2.336943   -0.118224
     19          1           0        0.091928   -1.101891   -1.118280
 ---------------------------------------------------------------------

 SCF Done:  E(RB3LYP) =  -423.154686154     A.U. after    1 cycles

 The electronic state is 1-A.
 Alpha  occ. eigenvalues --  -19.14438 -19.13421 -10.27580 -10.23703 -10.23364
 Alpha  occ. eigenvalues --  -10.20924 -10.20077 -10.19575 -10.18922  -1.05058
 Alpha  occ. eigenvalues --   -1.04136  -0.84399  -0.75754  -0.72094  -0.64688
 Alpha  occ. eigenvalues --   -0.61765  -0.58056  -0.52720  -0.51262  -0.49028
 Alpha  occ. eigenvalues --   -0.48523  -0.45645  -0.43965  -0.42515  -0.42230
 Alpha  occ. eigenvalues --   -0.39164  -0.39064  -0.36044  -0.35123  -0.33286
 Alpha  occ. eigenvalues --   -0.30851  -0.28848  -0.25434  -0.24676
 Alpha virt. eigenvalues --   -0.02778   0.06770   0.09270   0.09947   0.10410
 Alpha virt. eigenvalues --    0.11386   0.13268   0.13876   0.14898   0.15603
 Alpha virt. eigenvalues --    0.17016   0.18154   0.18678   0.19386   0.21061

 Mulliken charges:
               1
     1  O   -0.238904
     2  C    0.157286
     3  C   -0.298946
     4  C    0.009656
     5  C   -0.267686
     6  C    0.127995
     7  O   -0.294187
     8  C   -0.086413
     9  C   -0.090537
    10  H    0.074636
    11  H    0.114867
    12  H    0.119211
    13  H    0.077916
    14  H    0.114462
    15  H    0.102496
    16  H    0.078669
    17  H    0.099709
    18  H    0.104499
    19  H    0.095270
 Sum of Mulliken charges =   0.00000

 Dipole moment (field-independent basis, Debye):
    X=              0.0482    Y=              1.4855    Z=              0.8243  Tot=              1.6996
 Quadrupole moment (field-independent basis, Debye-Ang):
   XX=            -66.7981   YY=            -51.6208   ZZ=            -51.4697
   XY=              4.6876   XZ=              5.0290   YZ=             -1.2885

  Exact polarizability:  81.660  -1.950  76.720   1.186  -0.512  68.950
 Approx polarizability: 108.483  -6.952 111.498  -3.287   3.030 109.083

                      1                      2                      3
                      A                      A                      A
 Frequencies --     39.8900                66.0971                97.3295
 Red. masses --      7.1010                 3.9737                 2.6543
 Frc consts  --      0.0067                 0.0102                 0.0148
 IR Inten    --      6.7280                 4.5357                 2.2595

                      4                      5                      6
                      A                      A                      A
 Frequencies --    190.4222               256.4221               319.8331
 Red. masses --      2.7850                 2.4031                 3.3840
 Frc consts  --      0.0595                 0.0931                 0.2040
 IR Inten    --      0.9449                 1.6835                 3.2292

                      7                      8                      9
                      A                      A                      A
 Frequencies --    395.9654               417.6612               519.0992
 Red. masses --      2.9016                 2.0489                 2.4242
 Frc consts  --      0.2680                 0.2106                 0.3849
 IR Inten    --      0.3027                 1.1211                15.0691

                     10                     11                     12
                      A                      A                      A
 Frequencies --    674.6144               760.7326               809.4801
 Red. masses --      3.3007                 2.0887                 2.1596
 Frc consts  --      0.8851                 0.7122                 0.8338
 IR Inten    --      1.8431                 1.0472                 6.4360

                     13                     14                     15
                      A                      A                      A
 Frequencies --    831.9104               870.2853               887.1357
 Red. masses --      1.9216                 2.0824                 2.0075
 Frc consts  --      0.7836                 0.9293                 0.9309
 IR Inten    --      3.3307                 0.3285                 5.1936

                     16                     17                     18
                      A                      A                      A
 Frequencies --    935.1487               966.4187               982.0998
 Red. masses --      3.1805                 2.2278                 2.6091
 Frc consts  --      1.6387                 1.2259                 1.4827
 IR Inten    --     11.0801                 2.9830                37.3326

                     19                     20                     21
                      A                      A                      A
 Frequencies --    992.8655              1013.9507              1035.9046
 Red. masses --      1.4925                 3.2922                 2.6136
 Frc consts  --      0.8669                 1.9942                 1.6525
 IR Inten    --      0.7299                40.5920                19.3644

                     22                     23                     24
                      A                      A                      A
 Frequencies --   1067.3489              1099.5650              1110.5134
 Red. masses --      2.7219                 2.2146                 1.9403
 Frc consts  --      1.8270                 1.5775                 1.4098
 IR Inten    --     26.0813                 2.1746                 7.8460

                     25                     26                     27
                      A                      A                      A
 Frequencies --   1155.2575              1172.2432              1180.3079
 Red. masses --      1.2995                 1.6425                 1.5724
 Frc consts  --      1.0219                 1.3298                 1.2906
 IR Inten    --      1.7665                 7.8480                 9.6589

                     28                     29                     30
                      A                      A                      A
 Frequencies --   1208.7665              1229.5523              1260.0406
 Red. masses --      1.3920                 1.5910                 1.3154
 Frc consts  --      1.1983                 1.4172                 1.2305
 IR Inten    --      9.2615                 0.3910                 1.0652

                     31                     32                     33
                      A                      A                      A
 Frequencies --   1270.2800              1280.1053              1311.3285
 Red. masses --      1.5168                 1.3776                 1.4703
 Frc consts  --      1.4421                 1.3300                 1.4897
 IR Inten    --      3.4419                 3.5223                 1.7622

                     34                     35                     36
                      A                      A                      A
 Frequencies --   1315.9808              1359.4431              1374.3251
 Red. masses --      1.4031                 1.4917                 1.4288
 Frc consts  --      1.4317                 1.6242                 1.5900
 IR Inten    --     11.0018                12.9742                 0.7225

                     37                     38                     39
                      A                      A                      A
 Frequencies --   1427.7577              1462.5704              1469.5916
 Red. masses --      1.1922                 1.1087                 1.1035
 Frc consts  --      1.4319                 1.3973                 1.4041
 IR Inten    --      5.3218                 1.8072                 5.5980

                     40                     41                     42
                      A                      A                      A
 Frequencies --   1522.5845              1830.3619              2853.8055
 Red. masses --      1.0996                10.0261                 1.0819
 Frc consts  --      1.5019                19.7905                 5.1914
 IR Inten    --      0.8388               156.8283               111.4921

                     43                     44                     45
                      A                      A                      A
 Frequencies --   3006.0274              3020.8895              3035.8231
 Red. masses --      1.0548                 1.0613                 1.0853
 Frc consts  --      5.6158                 5.7062                 5.8930
 IR Inten    --     79.9533                11.9804                18.6114

                     46                     47                     48
                      A                      A                      A
 Frequencies --   3049.4824              3052.3563              3073.5981
 Red. masses --      1.1103                 1.0624                 1.0875
 Frc consts  --      6.0833                 5.8321                 6.0532
 IR Inten    --     49.7494                20.0474                55.8275

                     49                     50                     51
                      A                      A                      A
 Frequencies --   3091.4173              3119.8570              3124.0221
 Red. masses --      1.1007                 1.1054                 1.0905
 Frc consts  --      6.1980                 6.3392                 6.2704
 IR Inten    --     16.6891                18.1514                19.0486

 - Thermochemistry -
 -------------------
 Temperature   298.150 Kelvin.  Pressure   1.00000 Atm.
 Atom     1 has atomic number  8 and mass  15.99491

 Molecular mass:   126.06808 amu.
 Principal axes and moments of inertia in atomic units:
                           1         2         3
     Eigenvalues --   498.296891805.396932087.84860
           X            0.99986   0.01437   0.00893
           Y           -0.01421   0.99974  -0.01794
           Z           -0.00918   0.01781   0.99980
 This molecule is an asymmetric top.
 Rotational symmetry number  1.
 Warning -- assumption of classical behavior for rotation
           may cause significant error
 Rotational temperatures (Kelvin)      0.17382     0.04797     0.04148
 Rotational constants (GHZ):           3.62182     0.99964     0.86440
 Zero-point vibrational energy     416291.3 (Joules/Mol)
                                   99.49601 (Kcal/Mol)
 Warning -- explicit consideration of   9 degrees of freedom as
           vibrations may cause significant error
 Vibrational temperatures:     57.39    95.10   140.04   273.97   368.93
          (Kelvin)            460.17   569.71   600.92   746.87   970.62
                             1094.52  1164.66  1196.93  1252.14  1276.39
                             1345.47  1390.46  1413.02  1428.51  1458.85
                             1490.43  1535.68  1582.03  1597.78  1662.16
                             1686.59  1698.20  1739.14  1769.05  1812.92
                             1827.65  1841.78  1886.71  1893.40  1955.93
                             1977.34  2054.22  2104.31  2114.41  2190.66
                             2633.48  4105.98  4325.00  4346.38  4367.87
                             4387.52  4391.65  4422.22  4447.85  4488.77
                             4494.77

 Zero-point correction=                           0.158557 (Hartree/Particle)
 Thermal correction to Energy=                    0.167027
 Thermal correction to Enthalpy=                  0.167972
 Thermal correction to Gibbs Free Energy=         0.123931
 Sum of electronic and zero-point Energies=           -422.996129
 Sum of electronic and thermal Energies=              -422.987659
 Sum of electronic and thermal Enthalpies=            -422.986714
 Sum of electronic and thermal Free Energies=         -423.030755

                     E (Thermal)             CV                S
                      KCal/Mol        Cal/Mol-Kelvin    Cal/Mol-Kelvin
 Total                  104.811             30.760             92.691
 Electronic               0.000              0.000              0.000
 Translational            0.889              2.981             40.409
 Rotational               0.889              2.981             29.020
 Vibrational            103.034             24.798             23.262
 Vibration     1          0.594              1.981              5.265
 Vibration     2          0.598              1.970              4.266
 Vibration     3          0.603              1.951              3.507
 Vibration     4          0.634              1.853              2.224
 Vibration     5          0.666              1.752              1.686
 Vibration     6          0.706              1.636              1.311
 Vibration     7          0.763              1.479              0.978
 Vibration     8          0.781              1.432              0.900
 Vibration     9          0.874              1.208              0.612

 Optimization completed.
    -- Stationary point found.
 Normal termination of Gaussian 09 at Mon Jan 27 14:29:17 2020.
