 Gaussian 09, Revision D.01,
 Gaussian 09:  ES64L-G09RevD.01 24-Apr-2013

 -----------------------------
 # b3lyp 6-31G(2df,p) opt Freq
 -----------------------------

 -----
 titel
 -----
 Symbolic Z-matrix:
 Charge =  0 Multiplicity = 1

 SCF Done:  E(RB3LYP) =  -423.201134853     A.U. after   14 cycles
 Optimization completed.
    -- Stationary point found.
 Normal termination of Gaussian 09 at Mon Jan 27 13:42:30 2020.

 ----------------------------------------------------------------------
 #N Geom=AllCheck Guess=TCheck SCRF=Check GenChk RB3LYP/6-31G(2df,p) Fr
 eq
 ----------------------------------------------------------------------

 Structure from the checkpoint file:  "/scratch/puck/g09_d4b4b047-96b1-42b5-86ac-d84f9c9fee3d/Gau-28753.chk"
 -----
 titel
 -----
 Charge =  0 Multiplicity = 1

                         Standard orientation:
 ---------------------------------------------------------------------
 Center     Atomic      Atomic             Coordinates (Angstroms)
 Number     Number       Type             X           Y           Z
 ---------------------------------------------------------------------
      1          8           0       -3.107910    0.753501   -0.446386
      2          6           0       -2.479945   -0.273651   -0.448965
      3          6           0       -1.604268   -0.753971    0.698067
      4          6           0       -0.166240   -0.397231    0.382948
      5          6           0        0.720893   -1.291187   -0.057307
      6          6           0        2.147564   -0.930519   -0.370566
      7          8           0        2.512268    0.364052    0.060377
      8          6           0        1.520956    1.334034   -0.234800
      9          6           0        0.230599    1.053187    0.537092
     10          1           0       -2.456489   -0.933389   -1.346159
     11          1           0       -1.937464   -0.260507    1.616919
     12          1           0       -1.713416   -1.838499    0.803368
     13          1           0        0.443179   -2.332820   -0.202835
     14          1           0        2.833832   -1.623083    0.131831
     15          1           0        2.325399   -1.043836   -1.457100
     16          1           0        1.948379    2.301711    0.040909
     17          1           0        1.311397    1.350707   -1.317168
     18          1           0        0.367203    1.288590    1.601427
     19          1           0       -0.574238    1.706736    0.178076
 ---------------------------------------------------------------------

 SCF Done:  E(RB3LYP) =  -423.201134853     A.U. after    1 cycles

 The electronic state is 1-A.
 Alpha  occ. eigenvalues --  -19.14464 -19.14066 -10.27658 -10.23567 -10.22994
 Alpha  occ. eigenvalues --  -10.20397 -10.20134 -10.18949 -10.18920  -1.05126
 Alpha  occ. eigenvalues --   -1.03661  -0.83054  -0.76664  -0.74292  -0.65132
 Alpha  occ. eigenvalues --   -0.63321  -0.57983  -0.52327  -0.50062  -0.48700
 Alpha  occ. eigenvalues --   -0.47178  -0.46577  -0.44327  -0.43220  -0.40789
 Alpha  occ. eigenvalues --   -0.40427  -0.39208  -0.38002  -0.36650  -0.34929
 Alpha  occ. eigenvalues --   -0.30784  -0.26943  -0.25730  -0.23917
 Alpha virt. eigenvalues --   -0.03307   0.02586   0.09379   0.10646   0.11604
 Alpha virt. eigenvalues --    0.13081   0.13428   0.14555   0.14997   0.15934
 Alpha virt. eigenvalues --    0.16922   0.17527   0.18347   0.21721   0.23220

 Mulliken charges:
               1
     1  O   -0.234916
     2  C    0.155021
     3  C   -0.363235
     4  C    0.290626
     5  C   -0.173304
     6  C   -0.113476
     7  O   -0.245232
     8  C   -0.086171
     9  C   -0.298006
    10  H    0.081193
    11  H    0.124738
    12  H    0.113510
    13  H    0.087255
    14  H    0.119771
    15  H    0.098223
    16  H    0.110376
    17  H    0.091132
    18  H    0.117578
    19  H    0.124918
 Sum of Mulliken charges =   0.00000

 Dipole moment (field-independent basis, Debye):
    X=              0.5490    Y=             -1.9292    Z=             -0.0277  Tot=              2.0060
 Quadrupole moment (field-independent basis, Debye-Ang):
   XX=            -64.3733   YY=            -49.9349   ZZ=            -52.6960
   XY=              3.9787   XZ=             -2.7709   YZ=              1.2409

  Exact polarizability:  92.985  -8.921  82.421  -3.815   4.906  63.202
 Approx polarizability: 128.152 -23.661 128.291  -5.958  10.155  96.884

                      1                      2                      3
                      A                      A                      A
 Frequencies --     46.6892                64.2734               113.6640
 Red. masses --      6.6922                 3.8769                 2.7510
 Frc consts  --      0.0086                 0.0094                 0.0209
 IR Inten    --      7.0473                 3.4901                 0.6054

                      4                      5                      6
                      A                      A                      A
 Frequencies --    212.7151               267.3714               303.2155
 Red. masses --      2.1456                 2.7570                 3.0501
 Frc consts  --      0.0572                 0.1161                 0.1652
 IR Inten    --      5.4678                 2.6203                 0.0672

                      7                      8                      9
                      A                      A                      A
 Frequencies --    330.5259               437.4985               483.7327
 Red. masses --      1.9235                 3.9677                 2.7926
 Frc consts  --      0.1238                 0.4475                 0.3850
 IR Inten    --      6.9026                 1.4416                 0.2216

                     10                     11                     12
                      A                      A                      A
 Frequencies --    512.0921               557.7036               694.5312
 Red. masses --      2.1900                 3.4915                 3.0824
 Frc consts  --      0.3384                 0.6398                 0.8760
 IR Inten    --     20.4977                 7.0236                 4.4266

                     13                     14                     15
                      A                      A                      A
 Frequencies --    791.7895               832.2890               862.9275
 Red. masses --      2.3034                 1.3162                 2.7585
 Frc consts  --      0.8508                 0.5372                 1.2103
 IR Inten    --      2.2031                 6.0101                 6.2701

                     16                     17                     18
                      A                      A                      A
 Frequencies --    881.8903               924.8403               987.2698
 Red. masses --      2.2171                 2.2006                 2.2105
 Frc consts  --      1.0159                 1.1090                 1.2695
 IR Inten    --     12.6350                 5.3307                 6.6076

                     19                     20                     21
                      A                      A                      A
 Frequencies --   1020.6494              1025.8186              1044.0183
 Red. masses --      2.0160                 2.1126                 2.0076
 Frc consts  --      1.2374                 1.3098                 1.2893
 IR Inten    --      6.8504                 2.7768                 5.0392

                     22                     23                     24
                      A                      A                      A
 Frequencies --   1057.0782              1096.9896              1145.7480
 Red. masses --      2.1680                 2.0426                 3.0052
 Frc consts  --      1.4273                 1.4482                 2.3243
 IR Inten    --     15.6510                13.5543                19.5957

                     25                     26                     27
                      A                      A                      A
 Frequencies --   1163.7989              1204.2706              1229.0618
 Red. masses --      3.3046                 1.3176                 1.1393
 Frc consts  --      2.6371                 1.1258                 1.0140
 IR Inten    --     52.8727                21.6822                 5.1167

                     28                     29                     30
                      A                      A                      A
 Frequencies --   1259.7176              1283.7571              1309.2764
 Red. masses --      1.2221                 1.4807                 1.2913
 Frc consts  --      1.1426                 1.4377                 1.3042
 IR Inten    --     20.4226                 4.4405                 5.6997

                     31                     32                     33
                      A                      A                      A
 Frequencies --   1338.0652              1374.7054              1390.4159
 Red. masses --      1.2934                 1.3418                 1.8021
 Frc consts  --      1.3644                 1.4940                 2.0527
 IR Inten    --      1.8840                 0.9245                17.6388

                     34                     35                     36
                      A                      A                      A
 Frequencies --   1418.0539              1422.5790              1465.8364
 Red. masses --      1.1978                 1.3245                 1.1003
 Frc consts  --      1.4191                 1.5793                 1.3929
 IR Inten    --      7.8769                12.0242                 5.5780

                     37                     38                     39
                      A                      A                      A
 Frequencies --   1473.5069              1486.3363              1502.3513
 Red. masses --      1.0901                 1.0839                 1.0976
 Frc consts  --      1.3945                 1.4109                 1.4597
 IR Inten    --      3.3387                 1.6304                 2.7067

                     40                     41                     42
                      A                      A                      A
 Frequencies --   1732.5702              1826.6434              2874.0214
 Red. masses --      7.1120                 9.9413                 1.0832
 Frc consts  --     12.5784                19.5434                 5.2714
 IR Inten    --      6.7657               179.7406                96.7037

                     43                     44                     45
                      A                      A                      A
 Frequencies --   2924.1223              2971.4429              3017.0418
 Red. masses --      1.0731                 1.0711                 1.0628
 Frc consts  --      5.4058                 5.5722                 5.6999
 IR Inten    --     65.4875                53.2757                20.1587

                     46                     47                     48
                      A                      A                      A
 Frequencies --   3040.2182              3046.5501              3058.7660
 Red. masses --      1.0566                 1.0861                 1.0971
 Frc consts  --      5.7542                 5.9393                 6.0479
 IR Inten    --     16.0125                31.2672                12.8856

                     49                     50                     51
                      A                      A                      A
 Frequencies --   3092.2533              3101.3240              3152.3984
 Red. masses --      1.0935                 1.1064                 1.0901
 Frc consts  --      6.1603                 6.2697                 6.3827
 IR Inten    --     36.4203                13.7054                15.8249

 - Thermochemistry -
 -------------------
 Temperature   298.150 Kelvin.  Pressure   1.00000 Atm.
 Atom     1 has atomic number  8 and mass  15.99491

 Molecular mass:   126.06808 amu.
 Principal axes and moments of inertia in atomic units:
                           1         2         3
     Eigenvalues --   506.735071834.601872122.38904
           X            0.99988   0.00993  -0.01180
           Y           -0.00967   0.99971   0.02186
           Z            0.01201  -0.02175   0.99969
 This molecule is an asymmetric top.
 Rotational symmetry number  1.
 Warning -- assumption of classical behavior for rotation
           may cause significant error
 Rotational temperatures (Kelvin)      0.17093     0.04721     0.04081
 Rotational constants (GHZ):           3.56151     0.98372     0.85033
 Zero-point vibrational energy     417822.1 (Joules/Mol)
                                   99.86189 (Kcal/Mol)
 Warning -- explicit consideration of  11 degrees of freedom as
           vibrations may cause significant error
 Vibrational temperatures:     67.18    92.47   163.54   306.05   384.69
          (Kelvin)            436.26   475.55   629.46   695.98   736.79
                              802.41   999.27  1139.21  1197.48  1241.56
                             1268.84  1330.64  1420.46  1468.49  1475.92
                             1502.11  1520.90  1578.32  1648.47  1674.44
                             1732.67  1768.34  1812.45  1847.04  1883.75
                             1925.18  1977.89  2000.50  2040.26  2046.77
                             2109.01  2120.05  2138.50  2161.55  2492.78
                             2628.13  4135.07  4207.15  4275.24  4340.84
                             4374.19  4383.30  4400.88  4449.06  4462.11
                             4535.59

 Zero-point correction=                           0.159140 (Hartree/Particle)
 Thermal correction to Energy=                    0.167840
 Thermal correction to Enthalpy=                  0.168784
 Thermal correction to Gibbs Free Energy=         0.124602
 Sum of electronic and zero-point Energies=           -423.041995
 Sum of electronic and thermal Energies=              -423.033295
 Sum of electronic and thermal Enthalpies=            -423.032351
 Sum of electronic and thermal Free Energies=         -423.076533

                     E (Thermal)             CV                S
                      KCal/Mol        Cal/Mol-Kelvin    Cal/Mol-Kelvin
 Total                  105.321             31.644             92.989
 Electronic               0.000              0.000              0.000
 Translational            0.889              2.981             40.409
 Rotational               0.889              2.981             29.069
 Vibrational            103.544             25.682             23.511
 Vibration     1          0.595              1.979              4.953
 Vibration     2          0.597              1.971              4.321
 Vibration     3          0.607              1.938              3.205
 Vibration     4          0.644              1.822              2.020
 Vibration     5          0.672              1.733              1.613
 Vibration     6          0.695              1.668              1.399
 Vibration     7          0.713              1.615              1.258
 Vibration     8          0.798              1.388              0.835
 Vibration     9          0.840              1.286              0.700
 Vibration    10          0.867              1.223              0.629
 Vibration    11          0.913              1.123              0.528

 Optimization completed.
    -- Stationary point found.
 Normal termination of Gaussian 09 at Mon Jan 27 14:21:06 2020.
