 Gaussian 09, Revision D.01,
 Gaussian 09:  ES64L-G09RevD.01 24-Apr-2013

 -----------------------------
 # b3lyp 6-31G(2df,p) opt Freq
 -----------------------------

 -----
 titel
 -----
 Symbolic Z-matrix:
 Charge =  0 Multiplicity = 1

 SCF Done:  E(RB3LYP) =  -423.194903705     A.U. after   16 cycles
 Optimization completed.
    -- Stationary point found.
 Normal termination of Gaussian 09 at Mon Jan 27 13:57:32 2020.

 ----------------------------------------------------------------------
 #N Geom=AllCheck Guess=TCheck SCRF=Check GenChk RB3LYP/6-31G(2df,p) Fr
 eq
 ----------------------------------------------------------------------

 Structure from the checkpoint file:  "/scratch/puck/g09_ad63e350-e59e-486a-afbe-43cc60043837/Gau-157940.chk"
 -----
 titel
 -----
 Charge =  0 Multiplicity = 1

                         Standard orientation:
 ---------------------------------------------------------------------
 Center     Atomic      Atomic             Coordinates (Angstroms)
 Number     Number       Type             X           Y           Z
 ---------------------------------------------------------------------
      1          6           0        3.409404   -1.190034   -0.217510
      2          6           0        2.224082   -0.354757   -0.126905
      3          6           0        1.247871    0.349847   -0.053833
      4          6           0        0.153692    1.295354    0.058169
      5          8           0        0.338408    2.476009    0.206265
      6          8           0       -1.102046    0.811414   -0.016812
      7          6           0       -1.376987   -0.605306   -0.146719
      8          6           0       -2.650591   -0.711760   -0.975041
      9          6           0       -1.507767   -1.222502    1.242093
     10          1           0        3.177877   -2.240365   -0.012765
     11          1           0        3.845478   -1.130535   -1.220644
     12          1           0        4.172541   -0.862698    0.496400
     13          1           0       -0.545013   -1.072337   -0.683349
     14          1           0       -2.912208   -1.762561   -1.130953
     15          1           0       -3.483335   -0.219333   -0.464064
     16          1           0       -2.517430   -0.237762   -1.950842
     17          1           0       -1.752049   -2.286458    1.162450
     18          1           0       -0.572502   -1.127062    1.800123
     19          1           0       -2.302485   -0.725324    1.806493
 ---------------------------------------------------------------------

 SCF Done:  E(RB3LYP) =  -423.194903705     A.U. after    1 cycles

 The electronic state is 1-A.
 Alpha  occ. eigenvalues --  -19.17609 -19.11812 -10.31863 -10.25014 -10.22385
 Alpha  occ. eigenvalues --  -10.21048 -10.19231 -10.18435 -10.18382  -1.09349
 Alpha  occ. eigenvalues --   -1.01282  -0.80185  -0.79494  -0.73345  -0.69954
 Alpha  occ. eigenvalues --   -0.64225  -0.61169  -0.54149  -0.47979  -0.47012
 Alpha  occ. eigenvalues --   -0.46236  -0.44744  -0.44660  -0.43368  -0.41139
 Alpha  occ. eigenvalues --   -0.40365  -0.39466  -0.37377  -0.36273  -0.33543
 Alpha  occ. eigenvalues --   -0.29745  -0.29117  -0.28005  -0.26102
 Alpha virt. eigenvalues --   -0.03124   0.03485   0.08617   0.09844   0.11228
 Alpha virt. eigenvalues --    0.11888   0.13710   0.14376   0.16006   0.16906
 Alpha virt. eigenvalues --    0.17673   0.18203   0.18321   0.18685   0.18941

 Mulliken charges:
               1
     1  C   -0.504433
     2  C    0.040041
     3  C   -0.061926
     4  C    0.358599
     5  O   -0.312032
     6  O   -0.229375
     7  C    0.140913
     8  C   -0.386460
     9  C   -0.390877
    10  H    0.157656
    11  H    0.165540
    12  H    0.166057
    13  H    0.099667
    14  H    0.117918
    15  H    0.132166
    16  H    0.128905
    17  H    0.118385
    18  H    0.127383
    19  H    0.131873
 Sum of Mulliken charges =   0.00000

 Dipole moment (field-independent basis, Debye):
    X=              1.0417    Y=             -4.9026    Z=             -0.5096  Tot=              5.0379
 Quadrupole moment (field-independent basis, Debye-Ang):
   XX=            -43.1513   YY=            -60.7002   ZZ=            -52.1704
   XY=             -2.8149   XZ=             -0.5670   YZ=             -0.5562

  Exact polarizability: 103.461  -8.759  84.487  -0.473   1.548  60.187
 Approx polarizability: 140.058 -23.127 138.229  -2.697   6.002  85.074

                      1                      2                      3
                      A                      A                      A
 Frequencies --     28.2132                47.0541                80.2219
 Red. masses --      1.0177                 2.6980                 3.7682
 Frc consts  --      0.0005                 0.0035                 0.0143
 IR Inten    --      0.1071                 0.0949                 1.1617

                      4                      5                      6
                      A                      A                      A
 Frequencies --     88.4284               155.2564               206.4050
 Red. masses --      4.8392                 5.0855                 2.3266
 Frc consts  --      0.0223                 0.0722                 0.0584
 IR Inten    --      0.6128                 0.0814                 0.7724

                      7                      8                      9
                      A                      A                      A
 Frequencies --    214.9059               256.6488               318.0993
 Red. masses --      1.0722                 1.3126                 2.6466
 Frc consts  --      0.0292                 0.0509                 0.1578
 IR Inten    --      0.0480                 0.7939                 3.5558

                     10                     11                     12
                      A                      A                      A
 Frequencies --    343.5274               393.9056               407.8831
 Red. masses --      3.3887                 4.4787                 4.0528
 Frc consts  --      0.2356                 0.4094                 0.3973
 IR Inten    --      1.2378                 2.4510                 4.3890

                     13                     14                     15
                      A                      A                      A
 Frequencies --    461.1905               488.1069               642.5721
 Red. masses --      2.6975                 4.7566                 9.5257
 Frc consts  --      0.3380                 0.6677                 2.3173
 IR Inten    --      1.0133                 9.3434                 3.0906

                     16                     17                     18
                      A                      A                      A
 Frequencies --    676.1299               764.8440               872.7674
 Red. masses --      3.9889                12.2415                 2.6526
 Frc consts  --      1.0744                 4.2192                 1.1905
 IR Inten    --      9.1612                17.2657                 6.4510

                     19                     20                     21
                      A                      A                      A
 Frequencies --    932.9572               947.5951               961.0487
 Red. masses --      1.2358                 1.3844                 3.2848
 Frc consts  --      0.6337                 0.7324                 1.7875
 IR Inten    --      0.4994                 0.8037                31.8381

                     22                     23                     24
                      A                      A                      A
 Frequencies --   1046.6443              1054.6189              1091.5172
 Red. masses --      1.4347                 1.4133                 6.4782
 Frc consts  --      0.9260                 0.9261                 4.5474
 IR Inten    --      2.1732                 4.0060                94.3836

                     25                     26                     27
                      A                      A                      A
 Frequencies --   1137.7917              1157.8133              1200.4731
 Red. masses --      2.1233                 2.0926                 1.9703
 Frc consts  --      1.6195                 1.6528                 1.6730
 IR Inten    --    107.8241                 9.3695                 2.3499

                     28                     29                     30
                      A                      A                      A
 Frequencies --   1270.6631              1363.7249              1385.5493
 Red. masses --      6.5871                 1.3624                 1.2323
 Frc consts  --      6.2662                 1.4929                 1.3938
 IR Inten    --    506.0703                 3.4471                 9.6491

                     31                     32                     33
                      A                      A                      A
 Frequencies --   1402.8035              1410.9255              1419.5626
 Red. masses --      1.3343                 1.2398                 1.2470
 Frc consts  --      1.5470                 1.4541                 1.4805
 IR Inten    --     12.1772                 1.9893                10.1659

                     34                     35                     36
                      A                      A                      A
 Frequencies --   1470.2646              1473.9438              1481.0509
 Red. masses --      1.0387                 1.0404                 1.0498
 Frc consts  --      1.3229                 1.3317                 1.3568
 IR Inten    --      7.2865                 6.7513                 0.8897

                     37                     38                     39
                      A                      A                      A
 Frequencies --   1484.9680              1494.4004              1509.2671
 Red. masses --      1.0478                 1.0507                 1.0514
 Frc consts  --      1.3613                 1.3824                 1.4111
 IR Inten    --      0.6558                 1.9003                 4.2096

                     40                     41                     42
                      A                      A                      A
 Frequencies --   1802.1663              2346.6720              3033.4606
 Red. masses --     13.0215                11.9122                 1.0345
 Frc consts  --     24.9173                38.6497                 5.6088
 IR Inten    --    363.8332               110.6325                14.1027

                     43                     44                     45
                      A                      A                      A
 Frequencies --   3040.6384              3045.9913              3059.6681
 Red. masses --      1.0347                 1.0353                 1.0838
 Frc consts  --      5.6361                 5.6596                 5.9781
 IR Inten    --     12.8789                13.5994                 7.5277

                     46                     47                     48
                      A                      A                      A
 Frequencies --   3098.0362              3100.5861              3113.5513
 Red. masses --      1.0998                 1.1009                 1.1017
 Frc consts  --      6.2191                 6.2356                 6.2928
 IR Inten    --      4.1700                 4.7144                 3.1950

                     49                     50                     51
                      A                      A                      A
 Frequencies --   3121.0959              3123.5761              3126.2909
 Red. masses --      1.1017                 1.1021                 1.1022
 Frc consts  --      6.3233                 6.3353                 6.3470
 IR Inten    --     26.7855                22.2528                28.1622

 - Thermochemistry -
 -------------------
 Temperature   298.150 Kelvin.  Pressure   1.00000 Atm.
 Atom     1 has atomic number  6 and mass  12.00000

 Molecular mass:   126.06808 amu.
 Principal axes and moments of inertia in atomic units:
                           1         2         3
     Eigenvalues --   863.457561783.301512309.93057
           X            0.99999  -0.00538   0.00080
           Y            0.00539   0.99992  -0.01147
           Z           -0.00073   0.01148   0.99993
 This molecule is an asymmetric top.
 Rotational symmetry number  1.
 Warning -- assumption of classical behavior for rotation
           may cause significant error
 Rotational temperatures (Kelvin)      0.10031     0.04857     0.03750
 Rotational constants (GHZ):           2.09013     1.01202     0.78130
 Zero-point vibrational energy     407660.3 (Joules/Mol)
                                   97.43314 (Kcal/Mol)
 Warning -- explicit consideration of  14 degrees of freedom as
           vibrations may cause significant error
 Vibrational temperatures:     40.59    67.70   115.42   127.23   223.38
          (Kelvin)            296.97   309.20   369.26   457.67   494.26
                              566.74   586.85   663.55   702.28   924.52
                              972.80  1100.44  1255.72  1342.32  1363.38
                             1382.73  1505.89  1517.36  1570.45  1637.03
                             1665.83  1727.21  1828.20  1962.09  1993.49
                             2018.32  2030.00  2042.43  2115.38  2120.67
                             2130.90  2136.54  2150.11  2171.50  2592.91
                             3376.33  4364.47  4374.79  4382.50  4402.17
                             4457.38  4461.05  4479.70  4490.56  4494.12
                             4498.03

 Zero-point correction=                           0.155270 (Hartree/Particle)
 Thermal correction to Energy=                    0.166199
 Thermal correction to Enthalpy=                  0.167143
 Thermal correction to Gibbs Free Energy=         0.117346
 Sum of electronic and zero-point Energies=           -423.039634
 Sum of electronic and thermal Energies=              -423.028705
 Sum of electronic and thermal Enthalpies=            -423.027761
 Sum of electronic and thermal Free Energies=         -423.077558

                     E (Thermal)             CV                S
                      KCal/Mol        Cal/Mol-Kelvin    Cal/Mol-Kelvin
 Total                  104.291             37.129            104.806
 Electronic               0.000              0.000              0.000
 Translational            0.889              2.981             40.409
 Rotational               0.889              2.981             29.654
 Vibrational            102.514             31.168             34.743
 Vibration     1          0.593              1.984              5.951
 Vibration     2          0.595              1.979              4.938
 Vibration     3          0.600              1.963              3.885
 Vibration     4          0.601              1.957              3.695
 Vibration     5          0.620              1.897              2.607
 Vibration     6          0.641              1.831              2.075
 Vibration     7          0.645              1.818              2.002
 Vibration     8          0.666              1.752              1.684
 Vibration     9          0.705              1.639              1.320
 Vibration    10          0.722              1.588              1.196
 Vibration    11          0.761              1.483              0.985
 Vibration    12          0.772              1.453              0.934
 Vibration    13          0.819              1.336              0.763
 Vibration    14          0.844              1.276              0.689

 Optimization completed on the basis of negligible forces.
    -- Stationary point found.
 Normal termination of Gaussian 09 at Mon Jan 27 14:31:19 2020.
