 Gaussian 09, Revision D.01,
 Gaussian 09:  ES64L-G09RevD.01 24-Apr-2013

 -----------------------------
 # b3lyp 6-31G(2df,p) opt Freq
 -----------------------------

 -----
 titel
 -----
 Symbolic Z-matrix:
 Charge =  0 Multiplicity = 1

 SCF Done:  E(RB3LYP) =  -423.182769509     A.U. after   14 cycles
 Optimization completed.
    -- Stationary point found.
 Normal termination of Gaussian 09 at Tue Jan 28 03:16:45 2020.

 ----------------------------------------------------------------------
 #N Geom=AllCheck Guess=TCheck SCRF=Check GenChk RB3LYP/6-31G(2df,p) Fr
 eq
 ----------------------------------------------------------------------

 Structure from the checkpoint file:  "/scratch/puck/g09_24b24b09-c82c-4890-9f62-bfe206fe9e46/Gau-115195.chk"
 -----
 titel
 -----
 Charge =  0 Multiplicity = 1

                         Standard orientation:
 ---------------------------------------------------------------------
 Center     Atomic      Atomic             Coordinates (Angstroms)
 Number     Number       Type             X           Y           Z
 ---------------------------------------------------------------------
      1          6           0        0.570311    2.237815    0.402054
      2          6           0        0.079187    1.020493   -0.358499
      3          8           0       -1.353955    1.015787   -0.384622
      4          6           0       -1.803295   -0.306481   -0.507604
      5          6           0       -1.951215   -1.069579    0.780150
      6          6           0       -0.708115   -1.238924   -0.072071
      7          6           0        0.493171   -0.350908    0.260984
      8          6           0        1.772466   -0.853276   -0.367966
      9          8           0        2.847958   -0.864051    0.171631
     10          1           0        0.228018    3.156094   -0.082424
     11          1           0        0.190845    2.225407    1.428035
     12          1           0        1.664021    2.247545    0.433051
     13          1           0        0.446509    1.061559   -1.398745
     14          1           0       -2.450701   -0.494161   -1.358299
     15          1           0       -1.871654   -0.502188    1.701251
     16          1           0       -2.650709   -1.898645    0.807618
     17          1           0       -0.536621   -2.188893   -0.566386
     18          1           0        0.660531   -0.248273    1.337627
     19          1           0        1.652700   -1.207175   -1.420098
 ---------------------------------------------------------------------

 SCF Done:  E(RB3LYP) =  -423.182769509     A.U. after    1 cycles

 The electronic state is 1-A.
 Alpha  occ. eigenvalues --  -19.14811 -19.14467 -10.27562 -10.24849 -10.24143
 Alpha  occ. eigenvalues --  -10.20673 -10.20437 -10.19595 -10.18281  -1.05356
 Alpha  occ. eigenvalues --   -1.04973  -0.85957  -0.80120  -0.72462  -0.62647
 Alpha  occ. eigenvalues --   -0.60536  -0.58572  -0.58284  -0.52258  -0.49321
 Alpha  occ. eigenvalues --   -0.46587  -0.44518  -0.43865  -0.43679  -0.40983
 Alpha  occ. eigenvalues --   -0.39289  -0.38849  -0.37791  -0.36233  -0.34045
 Alpha  occ. eigenvalues --   -0.31904  -0.29158  -0.26051  -0.24467
 Alpha virt. eigenvalues --   -0.02803   0.08608   0.09324   0.10114   0.11097
 Alpha virt. eigenvalues --    0.12644   0.12945   0.14671   0.15854   0.16220
 Alpha virt. eigenvalues --    0.16428   0.17847   0.19379   0.21576   0.23286

 Mulliken charges:
               1
     1  C   -0.405872
     2  C    0.133877
     3  O   -0.272743
     4  C    0.098158
     5  C   -0.317269
     6  C   -0.092716
     7  C   -0.110113
     8  C    0.144438
     9  O   -0.250352
    10  H    0.130311
    11  H    0.125510
    12  H    0.132860
    13  H    0.072171
    14  H    0.100079
    15  H    0.123106
    16  H    0.116813
    17  H    0.097168
    18  H    0.097021
    19  H    0.077552
 Sum of Mulliken charges =   0.00000

 Dipole moment (field-independent basis, Debye):
    X=             -1.7380    Y=             -0.5410    Z=             -0.6889  Tot=              1.9463
 Quadrupole moment (field-independent basis, Debye-Ang):
   XX=            -62.7847   YY=            -51.9677   ZZ=            -51.5305
   XY=              6.1375   XZ=             -1.8135   YZ=              1.6935

  Exact polarizability:  86.792   3.723  74.273  -0.254   1.321  67.136
 Approx polarizability: 125.527  -0.613 102.828   4.221   0.182 104.562

                      1                      2                      3
                      A                      A                      A
 Frequencies --     54.6842                74.6792               176.5977
 Red. masses --      4.8470                 3.7679                 3.2708
 Frc consts  --      0.0085                 0.0124                 0.0601
 IR Inten    --      5.3881                 4.3028                 1.3720

                      4                      5                      6
                      A                      A                      A
 Frequencies --    225.8730               254.4325               328.4447
 Red. masses --      1.1150                 1.9419                 2.5622
 Frc consts  --      0.0335                 0.0741                 0.1629
 IR Inten    --      0.1912                 0.5157                 1.7095

                      7                      8                      9
                      A                      A                      A
 Frequencies --    342.8005               432.8928               448.8613
 Red. masses --      3.1789                 5.8575                 2.6553
 Frc consts  --      0.2201                 0.6467                 0.3152
 IR Inten    --      4.9926                 4.6972                 0.5978

                     10                     11                     12
                      A                      A                      A
 Frequencies --    491.4747               625.0357               705.0944
 Red. masses --      3.0880                 3.7105                 3.3563
 Frc consts  --      0.4395                 0.8541                 0.9831
 IR Inten    --      5.0884                17.8784                 1.8169

                     13                     14                     15
                      A                      A                      A
 Frequencies --    795.1188               811.6129               865.6611
 Red. masses --      2.2362                 1.4677                 2.4541
 Frc consts  --      0.8330                 0.5696                 1.0835
 IR Inten    --     11.5834                 9.3000                 2.6800

                     16                     17                     18
                      A                      A                      A
 Frequencies --    888.3448               930.7038               979.0515
 Red. masses --      2.2470                 2.1115                 2.0603
 Frc consts  --      1.0447                 1.0776                 1.1636
 IR Inten    --     10.2646                 8.4422                 7.1553

                     19                     20                     21
                      A                      A                      A
 Frequencies --   1005.0188              1016.5941              1045.2961
 Red. masses --      2.1117                 1.7278                 1.7474
 Frc consts  --      1.2567                 1.0521                 1.1249
 IR Inten    --     18.9592                13.5665                 3.7824

                     22                     23                     24
                      A                      A                      A
 Frequencies --   1066.8654              1094.8583              1112.8516
 Red. masses --      1.8202                 1.4355                 2.0027
 Frc consts  --      1.2206                 1.0138                 1.4613
 IR Inten    --     21.7037                10.9529                12.4430

                     25                     26                     27
                      A                      A                      A
 Frequencies --   1122.1600              1143.2751              1148.5422
 Red. masses --      2.1924                 2.2248                 2.3706
 Frc consts  --      1.6266                 1.7134                 1.8425
 IR Inten    --     16.1482                19.0432                49.5741

                     28                     29                     30
                      A                      A                      A
 Frequencies --   1154.6111              1205.2714              1260.2630
 Red. masses --      2.7277                 1.7284                 1.3789
 Frc consts  --      2.1425                 1.4794                 1.2903
 IR Inten    --     40.2767                10.7497                 0.8353

                     31                     32                     33
                      A                      A                      A
 Frequencies --   1267.3816              1325.7161              1367.1972
 Red. masses --      1.2846                 1.2585                 1.6542
 Frc consts  --      1.2157                 1.3031                 1.8218
 IR Inten    --      3.9428                 4.9757                24.9208

                     34                     35                     36
                      A                      A                      A
 Frequencies --   1382.4478              1387.4634              1411.3332
 Red. masses --      1.3406                 1.5402                 1.3353
 Frc consts  --      1.5096                 1.7469                 1.5670
 IR Inten    --      9.4004                 2.9384                14.3159

                     37                     38                     39
                      A                      A                      A
 Frequencies --   1426.5495              1471.1689              1482.2303
 Red. masses --      1.2077                 1.2651                 1.0500
 Frc consts  --      1.4481                 1.6133                 1.3592
 IR Inten    --      2.0220                 5.9893                 4.7370

                     40                     41                     42
                      A                      A                      A
 Frequencies --   1497.8687              1833.1617              2845.0632
 Red. masses --      1.0501                10.4221                 1.0815
 Frc consts  --      1.3881                20.6352                 5.1580
 IR Inten    --      2.9484               192.7842                88.6934

                     43                     44                     45
                      A                      A                      A
 Frequencies --   2946.1644              3044.0484              3064.4064
 Red. masses --      1.0822                 1.0349                 1.0848
 Frc consts  --      5.5344                 5.6500                 6.0018
 IR Inten    --     56.8400                10.7071                14.6814

                     46                     47                     48
                      A                      A                      A
 Frequencies --   3120.2381              3123.7728              3129.1923
 Red. masses --      1.1019                 1.1022                 1.0536
 Frc consts  --      6.3209                 6.3368                 6.0785
 IR Inten    --     16.1641                16.3470                11.5198

                     49                     50                     51
                      A                      A                      A
 Frequencies --   3156.9362              3168.5618              3222.0320
 Red. masses --      1.0891                 1.0934                 1.1171
 Frc consts  --      6.3954                 6.4679                 6.8328
 IR Inten    --     20.5385                14.0900                 8.6682

 - Thermochemistry -
 -------------------
 Temperature   298.150 Kelvin.  Pressure   1.00000 Atm.
 Atom     1 has atomic number  6 and mass  12.00000

 Molecular mass:   126.06808 amu.
 Principal axes and moments of inertia in atomic units:
                           1         2         3
     Eigenvalues --   743.926231254.970161763.70343
           X            0.99673   0.08036  -0.00893
           Y           -0.08014   0.99653   0.02230
           Z            0.01069  -0.02151   0.99971
 This molecule is an asymmetric top.
 Rotational symmetry number  1.
 Warning -- assumption of classical behavior for rotation
           may cause significant error
 Rotational temperatures (Kelvin)      0.11643     0.06902     0.04911
 Rotational constants (GHZ):           2.42597     1.43807     1.02327
 Zero-point vibrational energy     415582.1 (Joules/Mol)
                                   99.32651 (Kcal/Mol)
 Warning -- explicit consideration of  10 degrees of freedom as
           vibrations may cause significant error
 Vibrational temperatures:     78.68   107.45   254.08   324.98   366.07
          (Kelvin)            472.56   493.21   622.84   645.81   707.12
                              899.29  1014.47  1144.00  1167.73  1245.49
                             1278.13  1339.07  1408.63  1446.00  1462.65
                             1503.95  1534.98  1575.25  1601.14  1614.54
                             1644.92  1652.49  1661.23  1734.11  1813.24
                             1823.48  1907.41  1967.09  1989.03  1996.25
                             2030.59  2052.48  2116.68  2132.60  2155.10
                             2637.51  4093.41  4238.87  4379.70  4408.99
                             4489.32  4494.41  4502.20  4542.12  4558.85
                             4635.78

 Zero-point correction=                           0.158287 (Hartree/Particle)
 Thermal correction to Energy=                    0.166847
 Thermal correction to Enthalpy=                  0.167791
 Thermal correction to Gibbs Free Energy=         0.124408
 Sum of electronic and zero-point Energies=           -423.024483
 Sum of electronic and thermal Energies=              -423.015922
 Sum of electronic and thermal Enthalpies=            -423.014978
 Sum of electronic and thermal Free Energies=         -423.058361

                     E (Thermal)             CV                S
                      KCal/Mol        Cal/Mol-Kelvin    Cal/Mol-Kelvin
 Total                  104.698             31.966             91.307
 Electronic               0.000              0.000              0.000
 Translational            0.889              2.981             40.409
 Rotational               0.889              2.981             28.889
 Vibrational            102.921             26.004             22.009
 Vibration     1          0.596              1.976              4.640
 Vibration     2          0.599              1.966              4.026
 Vibration     3          0.628              1.871              2.364
 Vibration     4          0.650              1.802              1.912
 Vibration     5          0.665              1.755              1.700
 Vibration     6          0.712              1.619              1.268
 Vibration     7          0.722              1.590              1.199
 Vibration     8          0.794              1.399              0.849
 Vibration     9          0.808              1.363              0.799
 Vibration    10          0.847              1.269              0.680

 Optimization completed.
    -- Stationary point found.
 Normal termination of Gaussian 09 at Tue Jan 28 03:59:30 2020.
