 Gaussian 09, Revision D.01,
 Gaussian 09:  ES64L-G09RevD.01 24-Apr-2013

 -----------------------------
 # b3lyp 6-31G(2df,p) opt Freq
 -----------------------------

 -----
 titel
 -----
 Symbolic Z-matrix:
 Charge =  0 Multiplicity = 1

 SCF Done:  E(RB3LYP) =  -423.244806174     A.U. after   14 cycles
 Optimization completed.
    -- Stationary point found.
 Normal termination of Gaussian 09 at Tue Jan 28 03:54:47 2020.

 ----------------------------------------------------------------------
 #N Geom=AllCheck Guess=TCheck SCRF=Check GenChk RB3LYP/6-31G(2df,p) Fr
 eq
 ----------------------------------------------------------------------

 Structure from the checkpoint file:  "/scratch/puck/g09_901d68f1-d4c4-4a56-a000-c84950fc2996/Gau-116740.chk"
 -----
 titel
 -----
 Charge =  0 Multiplicity = 1

                         Standard orientation:
 ---------------------------------------------------------------------
 Center     Atomic      Atomic             Coordinates (Angstroms)
 Number     Number       Type             X           Y           Z
 ---------------------------------------------------------------------
      1          6           0       -2.311455    0.543089    0.993754
      2          6           0       -1.580719    0.496538   -0.362137
      3          6           0       -1.259183   -0.924037   -0.819142
      4          8           0       -0.196753   -1.515910   -0.058309
      5          6           0        0.943744   -0.799355    0.123893
      6          8           0        1.927884   -1.354884    0.541621
      7          6           0        0.892131    0.669185   -0.140279
      8          6           0        2.209813    1.386227   -0.071358
      9          6           0       -0.289954    1.269376   -0.325478
     10          1           0       -1.727578    0.030626    1.763469
     11          1           0       -2.468762    1.575582    1.319529
     12          1           0       -3.289909    0.057007    0.922484
     13          1           0       -2.237483    0.939771   -1.122090
     14          1           0       -2.111413   -1.596400   -0.692532
     15          1           0       -0.973574   -0.921253   -1.878935
     16          1           0        2.693699    1.212158    0.894309
     17          1           0        2.900621    1.008896   -0.832734
     18          1           0        2.079167    2.461143   -0.219092
     19          1           0       -0.340069    2.352684   -0.416417
 ---------------------------------------------------------------------

 SCF Done:  E(RB3LYP) =  -423.244806174     A.U. after    1 cycles

 The electronic state is 1-A.
 Alpha  occ. eigenvalues --  -19.17405 -19.11481 -10.29887 -10.24714 -10.21167
 Alpha  occ. eigenvalues --  -10.20668 -10.20575 -10.19015 -10.18418  -1.09052
 Alpha  occ. eigenvalues --   -1.01006  -0.83966  -0.78845  -0.71149  -0.69699
 Alpha  occ. eigenvalues --   -0.62620  -0.61311  -0.52729  -0.49876  -0.49462
 Alpha  occ. eigenvalues --   -0.46552  -0.43040  -0.42604  -0.41609  -0.41244
 Alpha  occ. eigenvalues --   -0.40674  -0.40192  -0.37803  -0.37057  -0.35186
 Alpha  occ. eigenvalues --   -0.32373  -0.28765  -0.26570  -0.26134
 Alpha virt. eigenvalues --   -0.03882   0.07482   0.07880   0.11124   0.12163
 Alpha virt. eigenvalues --    0.12713   0.13555   0.14488   0.15620   0.16478
 Alpha virt. eigenvalues --    0.17451   0.18336   0.18821   0.19975   0.21309

 Mulliken charges:
               1
     1  C   -0.393010
     2  C   -0.056835
     3  C   -0.091057
     4  O   -0.234484
     5  C    0.379947
     6  O   -0.333301
     7  C    0.154573
     8  C   -0.473541
     9  C   -0.158061
    10  H    0.139397
    11  H    0.121096
    12  H    0.119546
    13  H    0.089522
    14  H    0.119433
    15  H    0.112035
    16  H    0.149351
    17  H    0.139901
    18  H    0.114755
    19  H    0.100734
 Sum of Mulliken charges =   0.00000

 Dipole moment (field-independent basis, Debye):
    X=             -2.9815    Y=              2.9773    Z=             -1.4625  Tot=              4.4601
 Quadrupole moment (field-independent basis, Debye-Ang):
   XX=            -53.4995   YY=            -56.0532   ZZ=            -52.5370
   XY=              4.8152   XZ=             -0.8398   YZ=              1.9367

  Exact polarizability: 101.304  -3.530  76.045   4.026  -1.281  59.438
 Approx polarizability: 150.042 -18.739 115.579  13.002  -7.097  90.448

                      1                      2                      3
                      A                      A                      A
 Frequencies --     88.0560               134.6633               163.8480
 Red. masses --      4.8049                 1.8217                 1.2817
 Frc consts  --      0.0220                 0.0195                 0.0203
 IR Inten    --      1.8278                 1.0616                 0.1588

                      4                      5                      6
                      A                      A                      A
 Frequencies --    206.3039               233.0120               292.9105
 Red. masses --      4.1729                 1.0372                 2.9106
 Frc consts  --      0.1046                 0.0332                 0.1471
 IR Inten    --      1.9865                 0.0347                 4.2025

                      7                      8                      9
                      A                      A                      A
 Frequencies --    336.9693               354.6452               426.8834
 Red. masses --      2.7067                 2.7813                 2.7479
 Frc consts  --      0.1811                 0.2061                 0.2950
 IR Inten    --      0.4841                 0.5366                 0.7648

                     10                     11                     12
                      A                      A                      A
 Frequencies --    478.5634               530.8754               564.5431
 Red. masses --      3.9145                 5.0116                 5.6589
 Frc consts  --      0.5282                 0.8322                 1.0626
 IR Inten    --      2.4300                 4.5883                 2.3412

                     13                     14                     15
                      A                      A                      A
 Frequencies --    684.6646               781.5376               798.4815
 Red. masses --      4.2073                 4.9527                 3.2161
 Frc consts  --      1.1620                 1.7824                 1.2081
 IR Inten    --      1.1119                 7.9144                 3.5259

                     16                     17                     18
                      A                      A                      A
 Frequencies --    827.6331               899.4439               941.7195
 Red. masses --      2.8894                 1.4181                 1.7628
 Frc consts  --      1.1661                 0.6759                 0.9211
 IR Inten    --      1.9756                18.0142                 3.1231

                     19                     20                     21
                      A                      A                      A
 Frequencies --    974.0744              1005.2965              1027.9347
 Red. masses --      2.1068                 1.7480                 2.0251
 Frc consts  --      1.1778                 1.0408                 1.2608
 IR Inten    --      1.4342                28.4375                10.0741

                     22                     23                     24
                      A                      A                      A
 Frequencies --   1073.1948              1073.4441              1119.1195
 Red. masses --      1.7964                 1.5489                 2.3332
 Frc consts  --      1.2190                 1.0515                 1.7217
 IR Inten    --     26.4941                 1.0627                32.2391

                     25                     26                     27
                      A                      A                      A
 Frequencies --   1152.5788              1165.5896              1221.1903
 Red. masses --      3.0336                 1.9738                 2.3830
 Frc consts  --      2.3743                 1.5800                 2.0939
 IR Inten    --    110.5848                38.8626                 9.8676

                     28                     29                     30
                      A                      A                      A
 Frequencies --   1287.3269              1340.1545              1352.5351
 Red. masses --      1.1576                 1.4104                 1.8384
 Frc consts  --      1.1303                 1.4925                 1.9814
 IR Inten    --     18.1935                19.1188                 3.3896

                     31                     32                     33
                      A                      A                      A
 Frequencies --   1372.8497              1403.9057              1414.7117
 Red. masses --      1.8570                 1.2581                 1.2770
 Frc consts  --      2.0621                 1.4609                 1.5058
 IR Inten    --     20.2026                 7.1315                 1.1466

                     34                     35                     36
                      A                      A                      A
 Frequencies --   1429.9356              1469.5417              1486.2392
 Red. masses --      1.4015                 1.0451                 1.0579
 Frc consts  --      1.6884                 1.3298                 1.3768
 IR Inten    --     16.3657                 5.5959                 6.9979

                     37                     38                     39
                      A                      A                      A
 Frequencies --   1493.3502              1499.9687              1506.3946
 Red. masses --      1.0529                 1.0597                 1.0888
 Frc consts  --      1.3834                 1.4048                 1.4558
 IR Inten    --      6.8841                 5.1814                 6.1962

                     40                     41                     42
                      A                      A                      A
 Frequencies --   1715.5917              1816.6911              3017.1912
 Red. masses --      7.4033                12.6026                 1.0750
 Frc consts  --     12.8382                24.5060                 5.7656
 IR Inten    --      2.2251               333.1543                 9.9892

                     43                     44                     45
                      A                      A                      A
 Frequencies --   3030.7094              3038.4062              3041.6490
 Red. masses --      1.0729                 1.0358                 1.0357
 Frc consts  --      5.8064                 5.6340                 5.6453
 IR Inten    --     57.9205                24.0544                14.6498

                     46                     47                     48
                      A                      A                      A
 Frequencies --   3099.9012              3100.4230              3108.2498
 Red. masses --      1.0995                 1.0986                 1.1016
 Frc consts  --      6.2251                 6.2221                 6.2704
 IR Inten    --     16.1733                11.9649                30.4773

                     49                     50                     51
                      A                      A                      A
 Frequencies --   3121.2134              3125.3711              3147.3943
 Red. masses --      1.1020                 1.1031                 1.0903
 Frc consts  --      6.3251                 6.3483                 6.3638
 IR Inten    --     17.5895                11.7310                18.1048

 - Thermochemistry -
 -------------------
 Temperature   298.150 Kelvin.  Pressure   1.00000 Atm.
 Atom     1 has atomic number  6 and mass  12.00000

 Molecular mass:   126.06808 amu.
 Principal axes and moments of inertia in atomic units:
                           1         2         3
     Eigenvalues --   711.198571231.274971652.14493
           X            0.99830   0.05668  -0.01382
           Y           -0.05638   0.99818   0.02148
           Z            0.01501  -0.02066   0.99967
 This molecule is an asymmetric top.
 Rotational symmetry number  1.
 Warning -- assumption of classical behavior for rotation
           may cause significant error
 Rotational temperatures (Kelvin)      0.12179     0.07034     0.05243
 Rotational constants (GHZ):           2.53761     1.46575     1.09236
 Zero-point vibrational energy     418554.7 (Joules/Mol)
                                  100.03697 (Kcal/Mol)
 Warning -- explicit consideration of  12 degrees of freedom as
           vibrations may cause significant error
 Vibrational temperatures:    126.69   193.75   235.74   296.82   335.25
          (Kelvin)            421.43   484.82   510.25   614.19   688.55
                              763.81   812.25   985.08  1124.46  1148.84
                             1190.78  1294.10  1354.92  1401.47  1446.40
                             1478.97  1544.09  1544.44  1610.16  1658.30
                             1677.02  1757.02  1852.17  1928.18  1945.99
                             1975.22  2019.90  2035.45  2057.36  2114.34
                             2138.36  2148.60  2158.12  2167.36  2468.35
                             2613.81  4341.06  4360.51  4371.58  4376.25
                             4460.06  4460.81  4472.07  4490.72  4496.71
                             4528.39

 Zero-point correction=                           0.159419 (Hartree/Particle)
 Thermal correction to Energy=                    0.168214
 Thermal correction to Enthalpy=                  0.169158
 Thermal correction to Gibbs Free Energy=         0.126052
 Sum of electronic and zero-point Energies=           -423.085387
 Sum of electronic and thermal Energies=              -423.076592
 Sum of electronic and thermal Enthalpies=            -423.075648
 Sum of electronic and thermal Free Energies=         -423.118754

                     E (Thermal)             CV                S
                      KCal/Mol        Cal/Mol-Kelvin    Cal/Mol-Kelvin
 Total                  105.556             32.872             90.724
 Electronic               0.000              0.000              0.000
 Translational            0.889              2.981             40.409
 Rotational               0.889              2.981             28.761
 Vibrational            103.778             26.910             21.555
 Vibration     1          0.601              1.958              3.703
 Vibration     2          0.613              1.919              2.878
 Vibration     3          0.623              1.887              2.505
 Vibration     4          0.641              1.831              2.076
 Vibration     5          0.654              1.790              1.856
 Vibration     6          0.688              1.687              1.457
 Vibration     7          0.718              1.602              1.226
 Vibration     8          0.730              1.566              1.145
 Vibration     9          0.789              1.412              0.869
 Vibration    10          0.835              1.298              0.714
 Vibration    11          0.886              1.182              0.585
 Vibration    12          0.920              1.108              0.515

 Optimization completed.
    -- Stationary point found.
 Normal termination of Gaussian 09 at Tue Jan 28 04:34:53 2020.
