 Gaussian 09, Revision D.01,
 Gaussian 09:  ES64L-G09RevD.01 24-Apr-2013

 -----------------------------
 # b3lyp 6-31G(2df,p) opt Freq
 -----------------------------

 -----
 titel
 -----
 Symbolic Z-matrix:
 Charge =  0 Multiplicity = 1

 SCF Done:  E(RB3LYP) =  -423.165415307     A.U. after   14 cycles
 Optimization completed.
    -- Stationary point found.
 Normal termination of Gaussian 09 at Tue Jan 28 12:40:06 2020.

 ----------------------------------------------------------------------
 #N Geom=AllCheck Guess=TCheck SCRF=Check GenChk RB3LYP/6-31G(2df,p) Fr
 eq
 ----------------------------------------------------------------------

 Structure from the checkpoint file:  "/scratch/puck/g09_4767f560-360d-4cce-b9bc-172f111347dc/Gau-29034.chk"
 -----
 titel
 -----
 Charge =  0 Multiplicity = 1

                         Standard orientation:
 ---------------------------------------------------------------------
 Center     Atomic      Atomic             Coordinates (Angstroms)
 Number     Number       Type             X           Y           Z
 ---------------------------------------------------------------------
      1          8           0       -2.926424    0.182741    0.749870
      2          6           0       -2.281344   -0.491978   -0.328399
      3          6           0       -0.797458   -0.254616   -0.355402
      4          6           0        0.106027   -1.233374   -0.265910
      5          6           0        1.555720   -0.934162   -0.351913
      6          6           0        2.350626   -0.480155    0.867579
      7          6           0        1.937267    0.509958   -0.186406
      8          8           0        0.925510    1.408334    0.167578
      9          6           0       -0.326369    1.179697   -0.467785
     10          1           0       -2.513732   -0.124565    1.564291
     11          1           0       -2.483823   -1.573394   -0.308587
     12          1           0       -2.754153   -0.088674   -1.232839
     13          1           0       -0.205669   -2.270556   -0.159058
     14          1           0        2.110038   -1.514016   -1.085218
     15          1           0        1.821604   -0.415515    1.811381
     16          1           0        3.393431   -0.771088    0.934152
     17          1           0        2.698314    0.937371   -0.837071
     18          1           0       -1.039268    1.840664    0.032376
     19          1           0       -0.286249    1.478959   -1.529593
 ---------------------------------------------------------------------

 SCF Done:  E(RB3LYP) =  -423.165415307     A.U. after    1 cycles

 The electronic state is 1-A.
 Alpha  occ. eigenvalues --  -19.14031 -19.13798 -10.23329 -10.23252 -10.22787
 Alpha  occ. eigenvalues --  -10.19656 -10.18853 -10.18704 -10.18703  -1.03717
 Alpha  occ. eigenvalues --   -1.01716  -0.85461  -0.80240  -0.68966  -0.68253
 Alpha  occ. eigenvalues --   -0.60573  -0.59479  -0.52523  -0.51402  -0.49094
 Alpha  occ. eigenvalues --   -0.48171  -0.47297  -0.43138  -0.42356  -0.40643
 Alpha  occ. eigenvalues --   -0.39750  -0.37454  -0.35187  -0.33883  -0.32280
 Alpha  occ. eigenvalues --   -0.28447  -0.26797  -0.25352  -0.23484
 Alpha virt. eigenvalues --    0.00521   0.08821   0.09335   0.12203   0.12391
 Alpha virt. eigenvalues --    0.12612   0.14036   0.15422   0.15659   0.16638
 Alpha virt. eigenvalues --    0.16795   0.19401   0.20556   0.22249   0.23384

 Mulliken charges:
               1
     1  O   -0.410283
     2  C   -0.160859
     3  C    0.256403
     4  C   -0.188297
     5  C   -0.093703
     6  C   -0.301537
     7  C    0.099085
     8  O   -0.257758
     9  C   -0.166493
    10  H    0.283051
    11  H    0.093048
    12  H    0.114308
    13  H    0.086778
    14  H    0.097392
    15  H    0.120458
    16  H    0.111642
    17  H    0.088021
    18  H    0.129632
    19  H    0.099109
 Sum of Mulliken charges =   0.00000

 Dipole moment (field-independent basis, Debye):
    X=              0.9198    Y=             -1.7876    Z=             -0.5368  Tot=              2.0808
 Quadrupole moment (field-independent basis, Debye-Ang):
   XX=            -55.7841   YY=            -54.3744   ZZ=            -50.3145
   XY=              0.1102   XZ=             -0.7269   YZ=             -1.9332

  Exact polarizability:  98.215  -6.822  73.919   3.615  -2.221  63.298
 Approx polarizability: 131.230 -16.888 117.039   5.108  -1.972  97.341

                      1                      2                      3
                      A                      A                      A
 Frequencies --     74.6971               112.1188               178.4241
 Red. masses --      3.8210                 3.3125                 2.8466
 Frc consts  --      0.0126                 0.0245                 0.0534
 IR Inten    --      1.4381                 0.1830                 5.4153

                      4                      5                      6
                      A                      A                      A
 Frequencies --    230.0886               306.6993               363.2717
 Red. masses --      2.9620                 1.7703                 3.1182
 Frc consts  --      0.0924                 0.0981                 0.2424
 IR Inten    --      3.4634                28.2620                 0.3643

                      7                      8                      9
                      A                      A                      A
 Frequencies --    390.8257               434.2119               502.0205
 Red. masses --      1.3599                 3.5096                 2.8063
 Frc consts  --      0.1224                 0.3899                 0.4167
 IR Inten    --     96.3204                 1.1343                 6.3727

                     10                     11                     12
                      A                      A                      A
 Frequencies --    520.1822               575.3382               714.7130
 Red. masses --      4.1927                 3.8980                 2.6780
 Frc consts  --      0.6684                 0.7602                 0.8060
 IR Inten    --     10.0239                 3.4069                 4.1461

                     13                     14                     15
                      A                      A                      A
 Frequencies --    776.4979               822.6399               867.9106
 Red. masses --      2.6327                 1.5623                 1.7947
 Frc consts  --      0.9352                 0.6229                 0.7965
 IR Inten    --     14.2969                13.8022                12.4473

                     16                     17                     18
                      A                      A                      A
 Frequencies --    874.7240               902.7422               955.1452
 Red. masses --      2.2451                 2.3239                 2.1256
 Frc consts  --      1.0121                 1.1158                 1.1425
 IR Inten    --      0.0967                 9.8817                 2.5110

                     19                     20                     21
                      A                      A                      A
 Frequencies --    986.1549              1024.1736              1040.6708
 Red. masses --      2.3112                 2.5314                 1.4643
 Frc consts  --      1.3243                 1.5644                 0.9343
 IR Inten    --     44.5201                20.0254                12.6509

                     22                     23                     24
                      A                      A                      A
 Frequencies --   1045.6199              1062.9892              1066.5975
 Red. masses --      2.5571                 2.0092                 2.4812
 Frc consts  --      1.6472                 1.3376                 1.6631
 IR Inten    --     31.2400                18.0942                23.4210

                     25                     26                     27
                      A                      A                      A
 Frequencies --   1110.1197              1123.5912              1175.9886
 Red. masses --      1.6953                 1.2820                 2.1580
 Frc consts  --      1.2309                 0.9536                 1.7584
 IR Inten    --     31.8588                 0.1844                28.2200

                     28                     29                     30
                      A                      A                      A
 Frequencies --   1188.2216              1208.2703              1229.4949
 Red. masses --      1.5407                 1.5307                 1.8587
 Frc consts  --      1.2816                 1.3166                 1.6555
 IR Inten    --     25.0721                 3.1905                28.8537

                     31                     32                     33
                      A                      A                      A
 Frequencies --   1271.9114              1329.1710              1354.9265
 Red. masses --      1.1299                 1.2988                 1.3043
 Frc consts  --      1.0770                 1.3519                 1.4108
 IR Inten    --      6.0132                 5.9967                 1.4785

                     34                     35                     36
                      A                      A                      A
 Frequencies --   1383.6777              1390.5039              1411.3591
 Red. masses --      1.8429                 1.4412                 1.5941
 Frc consts  --      2.0789                 1.6418                 1.8709
 IR Inten    --      1.3698                 8.7888                10.2328

                     37                     38                     39
                      A                      A                      A
 Frequencies --   1416.9438              1471.3977              1494.3364
 Red. masses --      1.2638                 1.3647                 1.1015
 Frc consts  --      1.4950                 1.7408                 1.4492
 IR Inten    --     70.8885                 6.2935                 0.9200

                     40                     41                     42
                      A                      A                      A
 Frequencies --   1496.9286              1728.2584              2954.4890
 Red. masses --      1.0975                 7.5807                 1.0718
 Frc consts  --      1.4489                13.3406                 5.5123
 IR Inten    --      4.4483                 4.6906                53.1060

                     43                     44                     45
                      A                      A                      A
 Frequencies --   2990.1332              3047.8374              3093.9743
 Red. masses --      1.0649                 1.0970                 1.0886
 Frc consts  --      5.6098                 6.0040                 6.1399
 IR Inten    --     56.2685                29.4754                13.5850

                     46                     47                     48
                      A                      A                      A
 Frequencies --   3112.0787              3134.1572              3137.3137
 Red. masses --      1.0876                 1.0626                 1.0795
 Frc consts  --      6.2059                 6.1501                 6.2604
 IR Inten    --     33.9859                10.2304                26.7847

                     49                     50                     51
                      A                      A                      A
 Frequencies --   3145.7740              3231.2492              3806.4687
 Red. masses --      1.0903                 1.1173                 1.0662
 Frc consts  --      6.3571                 6.8734                 9.1017
 IR Inten    --     19.9667                 8.3165                14.8764

 - Thermochemistry -
 -------------------
 Temperature   298.150 Kelvin.  Pressure   1.00000 Atm.
 Atom     1 has atomic number  8 and mass  15.99491

 Molecular mass:   126.06808 amu.
 Principal axes and moments of inertia in atomic units:
                           1         2         3
     Eigenvalues --   513.161911606.756851840.41278
           X            0.99997  -0.00445   0.00699
           Y            0.00466   0.99951  -0.03107
           Z           -0.00684   0.03111   0.99949
 This molecule is an asymmetric top.
 Rotational symmetry number  1.
 Warning -- assumption of classical behavior for rotation
           may cause significant error
 Rotational temperatures (Kelvin)      0.16878     0.05391     0.04706
 Rotational constants (GHZ):           3.51690     1.12322     0.98062
 Zero-point vibrational energy     420290.2 (Joules/Mol)
                                  100.45177 (Kcal/Mol)
 Warning -- explicit consideration of  11 degrees of freedom as
           vibrations may cause significant error
 Vibrational temperatures:    107.47   161.31   256.71   331.05   441.27
          (Kelvin)            522.67   562.31   624.73   722.29   748.43
                              827.78  1028.31  1117.21  1183.59  1248.73
                             1258.53  1298.84  1374.24  1418.86  1473.56
                             1497.29  1504.41  1529.40  1534.59  1597.21
                             1616.60  1691.98  1709.58  1738.43  1768.97
                             1829.99  1912.38  1949.43  1990.80  2000.62
                             2030.63  2038.66  2117.01  2150.01  2153.74
                             2486.58  4250.85  4302.13  4385.15  4451.53
                             4477.58  4509.35  4513.89  4526.06  4649.04
                             5476.65

 Zero-point correction=                           0.160080 (Hartree/Particle)
 Thermal correction to Energy=                    0.168346
 Thermal correction to Enthalpy=                  0.169290
 Thermal correction to Gibbs Free Energy=         0.126999
 Sum of electronic and zero-point Energies=           -423.005335
 Sum of electronic and thermal Energies=              -422.997069
 Sum of electronic and thermal Enthalpies=            -422.996125
 Sum of electronic and thermal Free Energies=         -423.038417

                     E (Thermal)             CV                S
                      KCal/Mol        Cal/Mol-Kelvin    Cal/Mol-Kelvin
 Total                  105.639             31.768             89.010
 Electronic               0.000              0.000              0.000
 Translational            0.889              2.981             40.409
 Rotational               0.889              2.981             28.808
 Vibrational            103.861             25.806             19.794
 Vibration     1          0.599              1.966              4.026
 Vibration     2          0.607              1.939              3.232
 Vibration     3          0.629              1.869              2.345
 Vibration     4          0.652              1.795              1.878
 Vibration     5          0.697              1.661              1.380
 Vibration     6          0.737              1.548              1.108
 Vibration     7          0.759              1.490              0.997
 Vibration     8          0.795              1.396              0.845
 Vibration     9          0.857              1.246              0.653
 Vibration    10          0.875              1.205              0.610
 Vibration    11          0.932              1.085              0.494

 Optimization completed.
    -- Stationary point found.
 Normal termination of Gaussian 09 at Tue Jan 28 13:22:15 2020.
