 Gaussian 09, Revision D.01,
 Gaussian 09:  ES64L-G09RevD.01 24-Apr-2013

 -----------------------------
 # b3lyp 6-31G(2df,p) opt Freq
 -----------------------------

 -----
 titel
 -----
 Symbolic Z-matrix:
 Charge =  0 Multiplicity = 1

 SCF Done:  E(RB3LYP) =  -423.194771126     A.U. after   14 cycles
 Optimization completed.
    -- Stationary point found.
 Normal termination of Gaussian 09 at Mon Jan 27 16:29:52 2020.

 ----------------------------------------------------------------------
 #N Geom=AllCheck Guess=TCheck SCRF=Check GenChk RB3LYP/6-31G(2df,p) Fr
 eq
 ----------------------------------------------------------------------

 Structure from the checkpoint file:  "/scratch/puck/g09_167d1892-4f55-40c6-9b6f-c9b1be06c7a1/Gau-166483.chk"
 -----
 titel
 -----
 Charge =  0 Multiplicity = 1

                         Standard orientation:
 ---------------------------------------------------------------------
 Center     Atomic      Atomic             Coordinates (Angstroms)
 Number     Number       Type             X           Y           Z
 ---------------------------------------------------------------------
      1          6           0        2.346419   -1.372940   -0.504666
      2          6           0        1.359282   -0.332962   -0.010351
      3          6           0        0.572598   -0.585899    1.266662
      4          6           0       -0.141281   -0.688075   -0.043070
      5          6           0       -1.225338    0.293185   -0.446312
      6          6           0       -2.541824   -0.042982    0.223958
      7          8           0       -3.593169   -0.168265   -0.348319
      8          6           0        1.742060    1.079589   -0.279621
      9          8           0        1.196707    2.056464    0.182011
     10          1           0        2.500865   -1.295678   -1.586749
     11          1           0        3.321421   -1.259023   -0.017887
     12          1           0        1.988715   -2.384019   -0.292636
     13          1           0        0.801135   -1.491742    1.817548
     14          1           0        0.381747    0.293236    1.873458
     15          1           0       -0.309935   -1.699462   -0.405865
     16          1           0       -0.938508    1.302454   -0.126058
     17          1           0       -1.381867    0.305762   -1.528973
     18          1           0       -2.470378   -0.169706    1.329214
     19          1           0        2.607002    1.193093   -0.971188
 ---------------------------------------------------------------------

 SCF Done:  E(RB3LYP) =  -423.194771126     A.U. after    1 cycles

 The electronic state is 1-A.
 Alpha  occ. eigenvalues --  -19.14585 -19.13848 -10.27781 -10.27097 -10.22359
 Alpha  occ. eigenvalues --  -10.22114 -10.20762 -10.19950 -10.19678  -1.05267
 Alpha  occ. eigenvalues --   -1.04544  -0.89185  -0.77207  -0.72873  -0.66054
 Alpha  occ. eigenvalues --   -0.61533  -0.57125  -0.55241  -0.51021  -0.48114
 Alpha  occ. eigenvalues --   -0.46528  -0.44920  -0.44338  -0.43165  -0.41460
 Alpha  occ. eigenvalues --   -0.40491  -0.39948  -0.39167  -0.38048  -0.35701
 Alpha  occ. eigenvalues --   -0.31536  -0.29931  -0.26168  -0.24721
 Alpha virt. eigenvalues --   -0.03762  -0.01830   0.07469   0.11057   0.11457
 Alpha virt. eigenvalues --    0.11902   0.12793   0.13204   0.14447   0.15820
 Alpha virt. eigenvalues --    0.16182   0.16636   0.19609   0.20637   0.22117

 Mulliken charges:
               1
     1  C   -0.485188
     2  C    0.217882
     3  C   -0.312184
     4  C   -0.047393
     5  C   -0.320446
     6  C    0.166330
     7  O   -0.239492
     8  C    0.100632
     9  O   -0.270564
    10  H    0.129218
    11  H    0.129733
    12  H    0.126750
    13  H    0.122716
    14  H    0.141065
    15  H    0.105772
    16  H    0.159193
    17  H    0.120065
    18  H    0.075740
    19  H    0.080171
 Sum of Mulliken charges =   0.00000

 Dipole moment (field-independent basis, Debye):
    X=              3.2321    Y=             -2.1946    Z=              0.2566  Tot=              3.9152
 Quadrupole moment (field-independent basis, Debye-Ang):
   XX=            -63.8248   YY=            -56.7659   ZZ=            -51.6431
   XY=             -3.7080   XZ=             -3.8382   YZ=             -1.2154

  Exact polarizability:  94.944   0.712  71.405  -3.030  -1.187  68.951
 Approx polarizability: 128.257   3.357 111.882  -0.237   1.906 106.886

                      1                      2                      3
                      A                      A                      A
 Frequencies --     59.2105                76.6583               149.4491
 Red. masses --      5.6483                 3.2603                 2.3302
 Frc consts  --      0.0117                 0.0113                 0.0307
 IR Inten    --      5.9318                 3.2095                 3.3840

                      4                      5                      6
                      A                      A                      A
 Frequencies --    150.2585               176.2465               214.3804
 Red. masses --      3.6647                 1.2883                 1.8669
 Frc consts  --      0.0487                 0.0236                 0.0506
 IR Inten    --      9.5653                 0.2814                 0.3173

                      7                      8                      9
                      A                      A                      A
 Frequencies --    245.0890               291.7138               345.1034
 Red. masses --      3.2861                 3.5675                 2.6268
 Frc consts  --      0.1163                 0.1789                 0.1843
 IR Inten    --      5.0148                 3.2346                 0.1388

                     10                     11                     12
                      A                      A                      A
 Frequencies --    390.9178               452.7625               514.3099
 Red. masses --      3.2983                 2.5894                 2.0662
 Frc consts  --      0.2970                 0.3127                 0.3220
 IR Inten    --      1.4315                 3.9946                15.4697

                     13                     14                     15
                      A                      A                      A
 Frequencies --    591.5169               742.1981               781.5286
 Red. masses --      4.2179                 3.8209                 2.3400
 Frc consts  --      0.8695                 1.2401                 0.8421
 IR Inten    --      8.5846                 2.5098                 0.8060

                     16                     17                     18
                      A                      A                      A
 Frequencies --    822.1763               894.6019               917.4846
 Red. masses --      2.0709                 2.5492                 1.4184
 Frc consts  --      0.8248                 1.2020                 0.7035
 IR Inten    --      1.5867                41.5489                 4.5889

                     19                     20                     21
                      A                      A                      A
 Frequencies --    932.5733               973.0530              1017.3414
 Red. masses --      1.5775                 1.5094                 1.5126
 Frc consts  --      0.8083                 0.8420                 0.9224
 IR Inten    --     37.7265                 8.5863                 3.5739

                     22                     23                     24
                      A                      A                      A
 Frequencies --   1058.9889              1078.5000              1088.7993
 Red. masses --      2.0519                 1.4661                 1.7122
 Frc consts  --      1.3558                 1.0048                 1.1959
 IR Inten    --     18.7457                 2.9987                14.7294

                     25                     26                     27
                      A                      A                      A
 Frequencies --   1123.5732              1129.6266              1169.7942
 Red. masses --      1.9965                 1.9748                 1.6114
 Frc consts  --      1.4850                 1.4847                 1.2992
 IR Inten    --     12.4716                23.2079                 5.6142

                     28                     29                     30
                      A                      A                      A
 Frequencies --   1238.0351              1267.0803              1297.7318
 Red. masses --      1.4777                 1.9168                 1.4608
 Frc consts  --      1.3345                 1.8131                 1.4494
 IR Inten    --      5.9432                 7.9260                 2.8780

                     31                     32                     33
                      A                      A                      A
 Frequencies --   1330.1706              1406.7987              1419.7269
 Red. masses --      2.2820                 1.4940                 1.3045
 Frc consts  --      2.3789                 1.7421                 1.5492
 IR Inten    --     24.0080                24.4509                 5.6690

                     34                     35                     36
                      A                      A                      A
 Frequencies --   1427.5018              1439.3929              1464.8450
 Red. masses --      1.1926                 1.2431                 1.1461
 Frc consts  --      1.4319                 1.5174                 1.4490
 IR Inten    --      5.1082                 2.0477                 3.8036

                     37                     38                     39
                      A                      A                      A
 Frequencies --   1482.1479              1492.4527              1500.2549
 Red. masses --      1.2773                 1.0541                 1.0610
 Frc consts  --      1.6532                 1.3834                 1.4069
 IR Inten    --     15.2783                 1.6964                15.1489

                     40                     41                     42
                      A                      A                      A
 Frequencies --   1796.9683              1835.3305              2864.6868
 Red. masses --     10.0576                10.0383                 1.0820
 Frc consts  --     19.1348                19.9223                 5.2318
 IR Inten    --    125.4886               208.0401                97.2618

                     43                     44                     45
                      A                      A                      A
 Frequencies --   2879.7249              3030.3887              3039.5185
 Red. masses --      1.0827                 1.0368                 1.0587
 Frc consts  --      5.2898                 5.6095                 5.7630
 IR Inten    --    124.4999                28.8339                14.2380

                     46                     47                     48
                      A                      A                      A
 Frequencies --   3091.0869              3099.9955              3112.8179
 Red. masses --      1.1015                 1.1010                 1.1000
 Frc consts  --      6.2008                 6.2337                 6.2796
 IR Inten    --     18.6414                 8.1314                13.5644

                     49                     50                     51
                      A                      A                      A
 Frequencies --   3132.4626              3135.8139              3225.2290
 Red. masses --      1.0545                 1.0878                 1.1174
 Frc consts  --      6.0963                 6.3023                 6.8481
 IR Inten    --      8.1498                10.4495                 2.6947

 - Thermochemistry -
 -------------------
 Temperature   298.150 Kelvin.  Pressure   1.00000 Atm.
 Atom     1 has atomic number  6 and mass  12.00000

 Molecular mass:   126.06808 amu.
 Principal axes and moments of inertia in atomic units:
                           1         2         3
     Eigenvalues --   633.078981911.962912234.97102
           X            0.99944  -0.03082  -0.01287
           Y            0.03075   0.99951  -0.00624
           Z            0.01306   0.00584   0.99990
 This molecule is an asymmetric top.
 Rotational symmetry number  1.
 Warning -- assumption of classical behavior for rotation
           may cause significant error
 Rotational temperatures (Kelvin)      0.13681     0.04530     0.03875
 Rotational constants (GHZ):           2.85074     0.94392     0.80750
 Zero-point vibrational energy     409111.0 (Joules/Mol)
                                   97.77987 (Kcal/Mol)
 Warning -- explicit consideration of  13 degrees of freedom as
           vibrations may cause significant error
 Vibrational temperatures:     85.19   110.29   215.02   216.19   253.58
          (Kelvin)            308.45   352.63   419.71   496.53   562.44
                              651.42   739.98   851.06  1067.86  1124.44
                             1182.93  1287.13  1320.05  1341.76  1400.00
                             1463.73  1523.65  1551.72  1566.54  1616.57
                             1625.28  1683.07  1781.25  1823.04  1867.14
                             1913.82  2024.07  2042.67  2053.85  2070.96
                             2107.58  2132.48  2147.30  2158.53  2585.43
                             2640.63  4121.64  4143.28  4360.05  4373.18
                             4447.38  4460.20  4478.65  4506.91  4511.73
                             4640.38

 Zero-point correction=                           0.155822 (Hartree/Particle)
 Thermal correction to Energy=                    0.165651
 Thermal correction to Enthalpy=                  0.166595
 Thermal correction to Gibbs Free Energy=         0.120448
 Sum of electronic and zero-point Energies=           -423.038949
 Sum of electronic and thermal Energies=              -423.029120
 Sum of electronic and thermal Enthalpies=            -423.028176
 Sum of electronic and thermal Free Energies=         -423.074324

                     E (Thermal)             CV                S
                      KCal/Mol        Cal/Mol-Kelvin    Cal/Mol-Kelvin
 Total                  103.948             34.842             97.126
 Electronic               0.000              0.000              0.000
 Translational            0.889              2.981             40.409
 Rotational               0.889              2.981             29.382
 Vibrational            102.170             28.880             27.335
 Vibration     1          0.597              1.974              4.483
 Vibration     2          0.599              1.965              3.975
 Vibration     3          0.618              1.903              2.679
 Vibration     4          0.618              1.902              2.669
 Vibration     5          0.628              1.872              2.368
 Vibration     6          0.644              1.819              2.006
 Vibration     7          0.660              1.771              1.766
 Vibration     8          0.687              1.689              1.464
 Vibration     9          0.723              1.585              1.188
 Vibration    10          0.759              1.490              0.997
 Vibration    11          0.811              1.355              0.787
 Vibration    12          0.869              1.218              0.623
 Vibration    13          0.949              1.050              0.464

 Optimization completed.
    -- Stationary point found.
 Normal termination of Gaussian 09 at Mon Jan 27 17:11:50 2020.
