 Gaussian 09, Revision D.01,
 Gaussian 09:  ES64L-G09RevD.01 24-Apr-2013

 -----------------------------
 # b3lyp 6-31G(2df,p) opt Freq
 -----------------------------

 -----
 titel
 -----
 Symbolic Z-matrix:
 Charge =  0 Multiplicity = 1

 SCF Done:  E(RB3LYP) =  -423.153236830     A.U. after   14 cycles
 Optimization completed.
    -- Stationary point found.
 Normal termination of Gaussian 09 at Mon Jan 27 15:56:10 2020.

 ----------------------------------------------------------------------
 #N Geom=AllCheck Guess=TCheck SCRF=Check GenChk RB3LYP/6-31G(2df,p) Fr
 eq
 ----------------------------------------------------------------------

 Structure from the checkpoint file:  "/scratch/puck/g09_efe14221-effc-44db-9c62-29e62863a4b0/Gau-10337.chk"
 -----
 titel
 -----
 Charge =  0 Multiplicity = 1

                         Standard orientation:
 ---------------------------------------------------------------------
 Center     Atomic      Atomic             Coordinates (Angstroms)
 Number     Number       Type             X           Y           Z
 ---------------------------------------------------------------------
      1          6           0       -1.084491   -1.877643   -0.402481
      2          6           0       -0.732066   -0.560593    0.290384
      3          8           0        0.504920   -0.008038   -0.130313
      4          6           0        1.648089   -0.686807    0.360309
      5          6           0        2.846112    0.078627    0.041644
      6          6           0        3.848806    0.689092   -0.210353
      7          6           0       -1.828419    0.500652    0.071855
      8          6           0       -1.384783    1.933909   -0.109153
      9          8           0       -2.991250    0.169772    0.082475
     10          1           0       -1.008271   -1.762372   -1.487860
     11          1           0       -0.422241   -2.689018   -0.089626
     12          1           0       -2.111990   -2.147054   -0.151725
     13          1           0       -0.702983   -0.724174    1.384346
     14          1           0        1.571612   -0.819653    1.453150
     15          1           0        1.730165   -1.693460   -0.077125
     16          1           0        4.732872    1.233079   -0.435076
     17          1           0       -0.770665    2.022521   -1.010375
     18          1           0       -2.262291    2.577351   -0.178970
     19          1           0       -0.745056    2.245483    0.722733
 ---------------------------------------------------------------------

 SCF Done:  E(RB3LYP) =  -423.153236830     A.U. after    1 cycles

 The electronic state is 1-A.
 Alpha  occ. eigenvalues --  -19.15808 -19.13131 -10.27138 -10.26499 -10.24808
 Alpha  occ. eigenvalues --  -10.19114 -10.18485 -10.18358 -10.18243  -1.05561
 Alpha  occ. eigenvalues --   -1.03967  -0.80027  -0.75575  -0.73830  -0.69909
 Alpha  occ. eigenvalues --   -0.63672  -0.55081  -0.52976  -0.51623  -0.48945
 Alpha  occ. eigenvalues --   -0.48135  -0.45484  -0.44467  -0.42384  -0.41174
 Alpha  occ. eigenvalues --   -0.40205  -0.38356  -0.36853  -0.35475  -0.33773
 Alpha  occ. eigenvalues --   -0.28718  -0.28377  -0.26687  -0.24520
 Alpha virt. eigenvalues --   -0.01650   0.02715   0.04724   0.08866   0.11773
 Alpha virt. eigenvalues --    0.12155   0.12793   0.14574   0.14802   0.16272
 Alpha virt. eigenvalues --    0.16594   0.17132   0.19706   0.19984   0.20407

 Mulliken charges:
               1
     1  C   -0.406691
     2  C    0.046352
     3  O   -0.259282
     4  C   -0.216332
     5  C    0.280354
     6  C   -0.411119
     7  C    0.362748
     8  C   -0.469437
     9  O   -0.303130
    10  H    0.129783
    11  H    0.115358
    12  H    0.150197
    13  H    0.094343
    14  H    0.120156
    15  H    0.128839
    16  H    0.203588
    17  H    0.157447
    18  H    0.133989
    19  H    0.142837
 Sum of Mulliken charges =   0.00000

 Dipole moment (field-independent basis, Debye):
    X=              2.2731    Y=             -0.3487    Z=              0.6119  Tot=              2.3797
 Quadrupole moment (field-independent basis, Debye-Ang):
   XX=            -59.6669   YY=            -49.3457   ZZ=            -52.2208
   XY=              0.7569   XZ=             -0.0726   YZ=             -0.8816

  Exact polarizability: 102.513  10.439  77.067  -3.196  -2.598  57.023
 Approx polarizability: 143.872  22.828 106.572  -7.692  -6.928  88.230

                      1                      2                      3
                      A                      A                      A
 Frequencies --     30.7104                50.3596                78.8561
 Red. masses --      4.1132                 3.3246                 3.2469
 Frc consts  --      0.0023                 0.0050                 0.0119
 IR Inten    --      5.0772                 0.3354                 0.6272

                      4                      5                      6
                      A                      A                      A
 Frequencies --    117.7609               152.4136               206.8283
 Red. masses --      3.6975                 1.0447                 1.1332
 Frc consts  --      0.0302                 0.0143                 0.0286
 IR Inten    --      1.6048                 0.3446                 0.0914

                      7                      8                      9
                      A                      A                      A
 Frequencies --    230.9129               272.0082               329.8960
 Red. masses --      4.1627                 2.6564                 3.3847
 Frc consts  --      0.1308                 0.1158                 0.2170
 IR Inten    --      8.1499                 2.7846                 3.6332

                     10                     11                     12
                      A                      A                      A
 Frequencies --    353.6122               401.5851               420.0762
 Red. masses --      4.2893                 3.4984                 4.2168
 Frc consts  --      0.3160                 0.3324                 0.4384
 IR Inten    --      1.5416                 2.5580                 2.4588

                     13                     14                     15
                      A                      A                      A
 Frequencies --    494.8728               588.0958               611.7677
 Red. masses --      3.4979                 4.7192                 1.6303
 Frc consts  --      0.5047                 0.9616                 0.3595
 IR Inten    --      5.8071                 9.5297                18.8859

                     16                     17                     18
                      A                      A                      A
 Frequencies --    612.6871               679.6319               754.1854
 Red. masses --      1.6493                 1.2397                 2.6777
 Frc consts  --      0.3648                 0.3374                 0.8974
 IR Inten    --     25.2091                33.8279                 3.3483

                     19                     20                     21
                      A                      A                      A
 Frequencies --    895.0255               957.8182               965.0329
 Red. masses --      2.3812                 2.0417                 1.4546
 Frc consts  --      1.1239                 1.1036                 0.7981
 IR Inten    --      3.4303                22.0828                 9.5624

                     22                     23                     24
                      A                      A                      A
 Frequencies --    979.1137              1031.9663              1072.6450
 Red. masses --      2.8879                 1.6416                 4.1492
 Frc consts  --      1.6312                 1.0300                 2.8127
 IR Inten    --      3.2090                 3.3873                45.2943

                     25                     26                     27
                      A                      A                      A
 Frequencies --   1088.2404              1121.6968              1156.2851
 Red. masses --      2.0250                 2.2553                 4.3332
 Frc consts  --      1.4130                 1.6719                 3.4134
 IR Inten    --     28.2468                 2.3980               234.6004

                     28                     29                     30
                      A                      A                      A
 Frequencies --   1221.2179              1255.4771              1326.7691
 Red. masses --      2.3038                 1.0650                 1.6972
 Frc consts  --      2.0243                 0.9891                 1.7603
 IR Inten    --     51.0316                 4.3955                 0.9710

                     31                     32                     33
                      A                      A                      A
 Frequencies --   1341.9645              1382.1086              1393.3860
 Red. masses --      1.1847                 1.3327                 1.2367
 Frc consts  --      1.2570                 1.4999                 1.4147
 IR Inten    --     57.4179                27.0253                15.3919

                     34                     35                     36
                      A                      A                      A
 Frequencies --   1421.5049              1452.9768              1465.0771
 Red. masses --      1.3742                 1.0591                 1.0512
 Frc consts  --      1.6361                 1.3174                 1.3294
 IR Inten    --     34.2830                16.3952                 9.1300

                     37                     38                     39
                      A                      A                      A
 Frequencies --   1491.6442              1493.9039              1504.8137
 Red. masses --      1.0498                 1.0618                 1.0741
 Frc consts  --      1.3763                 1.3962                 1.4331
 IR Inten    --     10.5152                 1.2072                 2.7040

                     40                     41                     42
                      A                      A                      A
 Frequencies --   1814.0663              2248.6153              2929.9569
 Red. masses --     11.2042                 5.8876                 1.0795
 Frc consts  --     21.7239                17.5395                 5.4600
 IR Inten    --    143.5614                 2.6923                33.8305

                     43                     44                     45
                      A                      A                      A
 Frequencies --   2960.0170              2997.7298              3049.1394
 Red. masses --      1.0638                 1.0928                 1.0351
 Frc consts  --      5.4918                 5.7862                 5.6703
 IR Inten    --     32.6181                23.8565                 2.2964

                     46                     47                     48
                      A                      A                      A
 Frequencies --   3050.4235              3112.2917              3120.9762
 Red. masses --      1.0356                 1.0968                 1.1025
 Frc consts  --      5.6777                 6.2595                 6.3270
 IR Inten    --     16.3603                 3.5276                20.8198

                     49                     50                     51
                      A                      A                      A
 Frequencies --   3145.4156              3158.5139              3505.1251
 Red. masses --      1.1003                 1.1049                 1.1642
 Frc consts  --      6.4137                 6.4944                 8.4270
 IR Inten    --      6.3252                12.9206                62.9210

 - Thermochemistry -
 -------------------
 Temperature   298.150 Kelvin.  Pressure   1.00000 Atm.
 Atom     1 has atomic number  6 and mass  12.00000

 Molecular mass:   126.06808 amu.
 Principal axes and moments of inertia in atomic units:
                           1         2         3
     Eigenvalues --   557.724722116.846102576.35463
           X            1.00000   0.00116   0.00284
           Y           -0.00116   1.00000  -0.00226
           Z           -0.00284   0.00225   0.99999
 This molecule is an asymmetric top.
 Rotational symmetry number  1.
 Warning -- assumption of classical behavior for rotation
           may cause significant error
 Rotational temperatures (Kelvin)      0.15530     0.04092     0.03362
 Rotational constants (GHZ):           3.23590     0.85256     0.70050
 Zero-point vibrational energy     403722.9 (Joules/Mol)
                                   96.49209 (Kcal/Mol)
 Warning -- explicit consideration of  16 degrees of freedom as
           vibrations may cause significant error
 Vibrational temperatures:     44.19    72.46   113.46   169.43   219.29
          (Kelvin)            297.58   332.23   391.36   474.65   508.77
                              577.79   604.40   712.01   846.14   880.20
                              881.52   977.84  1085.10  1287.74  1378.08
                             1388.47  1408.72  1484.77  1543.29  1565.73
                             1613.87  1663.63  1757.06  1806.35  1908.92
                             1930.79  1988.54  2004.77  2045.23  2090.51
                             2107.92  2146.14  2149.39  2165.09  2610.03
                             3235.25  4215.55  4258.80  4313.06  4387.03
                             4388.87  4477.89  4490.38  4525.55  4544.39
                             5043.09

 Zero-point correction=                           0.153770 (Hartree/Particle)
 Thermal correction to Energy=                    0.164612
 Thermal correction to Enthalpy=                  0.165556
 Thermal correction to Gibbs Free Energy=         0.116341
 Sum of electronic and zero-point Energies=           -422.999467
 Sum of electronic and thermal Energies=              -422.988625
 Sum of electronic and thermal Enthalpies=            -422.987680
 Sum of electronic and thermal Free Energies=         -423.036896

                     E (Thermal)             CV                S
                      KCal/Mol        Cal/Mol-Kelvin    Cal/Mol-Kelvin
 Total                  103.296             37.636            103.583
 Electronic               0.000              0.000              0.000
 Translational            0.889              2.981             40.409
 Rotational               0.889              2.981             29.499
 Vibrational            101.518             31.675             33.675
 Vibration     1          0.594              1.984              5.783
 Vibration     2          0.595              1.977              4.803
 Vibration     3          0.600              1.963              3.919
 Vibration     4          0.608              1.935              3.137
 Vibration     5          0.619              1.900              2.642
 Vibration     6          0.641              1.830              2.071
 Vibration     7          0.653              1.794              1.872
 Vibration     8          0.675              1.725              1.583
 Vibration     9          0.713              1.616              1.261
 Vibration    10          0.730              1.568              1.150
 Vibration    11          0.767              1.467              0.957
 Vibration    12          0.783              1.427              0.892
 Vibration    13          0.850              1.261              0.671
 Vibration    14          0.945              1.057              0.471
 Vibration    15          0.971              1.007              0.430
 Vibration    16          0.972              1.005              0.428

 Optimization completed.
    -- Stationary point found.
 Normal termination of Gaussian 09 at Mon Jan 27 17:30:36 2020.
