 Gaussian 09, Revision D.01,
 Gaussian 09:  ES64L-G09RevD.01 24-Apr-2013

 -----------------------------
 # b3lyp 6-31G(2df,p) opt Freq
 -----------------------------

 -----
 titel
 -----
 Symbolic Z-matrix:
 Charge =  0 Multiplicity = 1

 SCF Done:  E(RB3LYP) =  -423.179465288     A.U. after   14 cycles
 SCF Done:  E(RB3LYP) =  -423.179465562     A.U. after    7 cycles
 Optimization completed.
    -- Stationary point found.
 Normal termination of Gaussian 09 at Tue Jan 28 13:53:37 2020.

 ----------------------------------------------------------------------
 #N Geom=AllCheck Guess=TCheck SCRF=Check GenChk RB3LYP/6-31G(2df,p) Fr
 eq
 ----------------------------------------------------------------------

 Structure from the checkpoint file:  "/scratch/puck/g09_49374d37-6037-4d47-a938-767f960937db/Gau-110263.chk"
 -----
 titel
 -----
 Charge =  0 Multiplicity = 1

                         Standard orientation:
 ---------------------------------------------------------------------
 Center     Atomic      Atomic             Coordinates (Angstroms)
 Number     Number       Type             X           Y           Z
 ---------------------------------------------------------------------
      1          6           0        3.177116    0.034557   -0.407867
      2          6           0        1.973623   -0.553597    0.334886
      3          6           0        0.641162   -0.319105   -0.382682
      4          6           0        0.177519    1.184952   -0.430950
      5          6           0       -1.155483    1.043844    0.325762
      6          8           0       -0.804603    0.135414    1.422417
      7          6           0       -0.573894   -0.881724    0.389481
      8          6           0       -1.776207   -0.218036   -0.318779
      9          8           0       -2.770527   -0.538104   -0.888076
     10          1           0        4.106139   -0.159183    0.136569
     11          1           0        3.278399   -0.403453   -1.407129
     12          1           0        3.087322    1.119067   -0.530703
     13          1           0        2.120651   -1.633965    0.461956
     14          1           0        1.906635   -0.128482    1.342949
     15          1           0        0.684812   -0.752139   -1.388989
     16          1           0        0.862574    1.843698    0.109001
     17          1           0        0.048878    1.571790   -1.445160
     18          1           0       -1.716815    1.924957    0.630000
     19          1           0       -0.560567   -1.906118    0.757677
 ---------------------------------------------------------------------

 SCF Done:  E(RB3LYP) =  -423.179465562     A.U. after    1 cycles

 The electronic state is 1-A.
 Alpha  occ. eigenvalues --  -19.16130 -19.14974 -10.27946 -10.24924 -10.24678
 Alpha  occ. eigenvalues --  -10.20473 -10.19950 -10.18897 -10.18161  -1.07872
 Alpha  occ. eigenvalues --   -1.04882  -0.82135  -0.76349  -0.72348  -0.68184
 Alpha  occ. eigenvalues --   -0.62503  -0.56924  -0.54542  -0.51530  -0.47224
 Alpha  occ. eigenvalues --   -0.46408  -0.46203  -0.43620  -0.41244  -0.39990
 Alpha  occ. eigenvalues --   -0.38793  -0.38029  -0.37220  -0.35476  -0.34718
 Alpha  occ. eigenvalues --   -0.33592  -0.33217  -0.27388  -0.24864
 Alpha virt. eigenvalues --   -0.01352   0.07478   0.09169   0.10792   0.11463
 Alpha virt. eigenvalues --    0.12292   0.13425   0.14681   0.15575   0.15888
 Alpha virt. eigenvalues --    0.17206   0.17542   0.18077   0.20071   0.20882

 Mulliken charges:
               1
     1  C   -0.386724
     2  C   -0.197407
     3  C    0.026995
     4  C   -0.252372
     5  C   -0.045852
     6  O   -0.291633
     7  C   -0.076754
     8  C    0.453456
     9  O   -0.314003
    10  H    0.118239
    11  H    0.115933
    12  H    0.119248
    13  H    0.096470
    14  H    0.113717
    15  H    0.084027
    16  H    0.117597
    17  H    0.115450
    18  H    0.103255
    19  H    0.100358
 Sum of Mulliken charges =   0.00000

 Dipole moment (field-independent basis, Debye):
    X=              2.5792    Y=              0.6692    Z=             -0.3173  Tot=              2.6835
 Quadrupole moment (field-independent basis, Debye-Ang):
   XX=            -60.7191   YY=            -49.7211   ZZ=            -56.5342
   XY=             -3.0528   XZ=             -2.4700   YZ=             -1.0547

  Exact polarizability:  88.732  -0.802  72.394   2.539  -0.170  64.633
 Approx polarizability: 115.934   1.039 109.861   8.854   2.735 109.313

                      1                      2                      3
                      A                      A                      A
 Frequencies --     91.8287               130.0162               160.0637
 Red. masses --      3.8304                 2.3412                 2.5714
 Frc consts  --      0.0190                 0.0233                 0.0388
 IR Inten    --      0.8074                 0.8131                 2.7918

                      4                      5                      6
                      A                      A                      A
 Frequencies --    196.8068               243.3376               324.1255
 Red. masses --      3.0687                 1.3263                 3.6668
 Frc consts  --      0.0700                 0.0463                 0.2270
 IR Inten    --      3.9601                 0.2010                 0.6635

                      7                      8                      9
                      A                      A                      A
 Frequencies --    432.7952               457.8859               506.5107
 Red. masses --      1.9175                 3.8616                 5.3173
 Frc consts  --      0.2116                 0.4770                 0.8037
 IR Inten    --      0.9177                 4.7649                 6.0529

                     10                     11                     12
                      A                      A                      A
 Frequencies --    639.4704               712.0173               751.8734
 Red. masses --      3.9571                 3.2350                 4.7898
 Frc consts  --      0.9534                 0.9663                 1.5953
 IR Inten    --      1.2145                 1.6855                 5.1175

                     13                     14                     15
                      A                      A                      A
 Frequencies --    780.5030               832.1153               845.6523
 Red. masses --      1.6703                 2.0212                 3.3035
 Frc consts  --      0.5995                 0.8246                 1.3919
 IR Inten    --      0.5988                12.7505                25.2749

                     16                     17                     18
                      A                      A                      A
 Frequencies --    878.3129               924.3674               947.3986
 Red. masses --      4.7423                 2.1619                 1.7143
 Frc consts  --      2.1554                 1.0884                 0.9066
 IR Inten    --     25.5772                14.6951                 6.6905

                     19                     20                     21
                      A                      A                      A
 Frequencies --    949.9402               963.0922              1031.6704
 Red. masses --      2.2283                 2.6976                 2.9359
 Frc consts  --      1.1847                 1.4742                 1.8411
 IR Inten    --      5.6949                 8.4188                 8.1388

                     22                     23                     24
                      A                      A                      A
 Frequencies --   1059.7990              1065.1511              1072.7770
 Red. masses --      2.3411                 2.2316                 1.5250
 Frc consts  --      1.5492                 1.4917                 1.0340
 IR Inten    --      1.7725                 4.4779                 5.0864

                     25                     26                     27
                      A                      A                      A
 Frequencies --   1104.1991              1183.7450              1192.8640
 Red. masses --      1.5680                 1.5192                 2.1584
 Frc consts  --      1.1264                 1.2542                 1.8095
 IR Inten    --      1.0571                 0.6015                 0.1543

                     28                     29                     30
                      A                      A                      A
 Frequencies --   1214.0839              1226.2991              1262.2475
 Red. masses --      1.5724                 1.4226                 1.4550
 Frc consts  --      1.3656                 1.2605                 1.3658
 IR Inten    --      7.9821                 0.8043                 1.1422

                     31                     32                     33
                      A                      A                      A
 Frequencies --   1282.4014              1300.5672              1310.5194
 Red. masses --      1.3423                 1.3902                 1.3597
 Frc consts  --      1.3006                 1.3855                 1.3759
 IR Inten    --      1.0453                 2.7728                 2.3854

                     34                     35                     36
                      A                      A                      A
 Frequencies --   1354.9896              1389.5815              1412.6964
 Red. masses --      1.3662                 1.5126                 1.2314
 Frc consts  --      1.4779                 1.7209                 1.4479
 IR Inten    --      3.4782                 0.8818                 1.7531

                     37                     38                     39
                      A                      A                      A
 Frequencies --   1480.7656              1493.2721              1499.0200
 Red. masses --      1.0858                 1.0671                 1.0405
 Frc consts  --      1.4027                 1.4020                 1.3775
 IR Inten    --      1.7462                 0.9266                 5.3552

                     40                     41                     42
                      A                      A                      A
 Frequencies --   1507.1186              1925.4603              3023.4976
 Red. masses --      1.0752                12.3312                 1.0627
 Frc consts  --      1.4389                26.9354                 5.7239
 IR Inten    --      3.0450               348.6152                22.5902

                     43                     44                     45
                      A                      A                      A
 Frequencies --   3032.2000              3037.6767              3063.3977
 Red. masses --      1.0367                 1.0836                 1.0595
 Frc consts  --      5.6158                 5.8911                 5.8581
 IR Inten    --     22.3832                13.3447                18.3809

                     46                     47                     48
                      A                      A                      A
 Frequencies --   3067.2341              3099.2963              3106.2657
 Red. masses --      1.0977                 1.1019                 1.1008
 Frc consts  --      6.0845                 6.2360                 6.2579
 IR Inten    --     10.2697                39.6455                32.2863

                     49                     50                     51
                      A                      A                      A
 Frequencies --   3113.2037              3146.9767              3152.8234
 Red. masses --      1.1067                 1.0900                 1.0935
 Frc consts  --      6.3198                 6.3601                 6.4043
 IR Inten    --     19.0889                26.0889                13.9652

 - Thermochemistry -
 -------------------
 Temperature   298.150 Kelvin.  Pressure   1.00000 Atm.
 Atom     1 has atomic number  6 and mass  12.00000

 Molecular mass:   126.06808 amu.
 Principal axes and moments of inertia in atomic units:
                           1         2         3
     Eigenvalues --   476.986771704.540981721.34393
           X            0.99987  -0.01517  -0.00611
           Y            0.00914   0.82798  -0.56068
           Z            0.01356   0.56055   0.82801
 This molecule is an asymmetric top.
 Rotational symmetry number  1.
 Warning -- assumption of classical behavior for rotation
           may cause significant error
 Rotational temperatures (Kelvin)      0.18159     0.05081     0.05032
 Rotational constants (GHZ):           3.78363     1.05878     1.04845
 Zero-point vibrational energy     418572.8 (Joules/Mol)
                                  100.04131 (Kcal/Mol)
 Warning -- explicit consideration of   9 degrees of freedom as
           vibrations may cause significant error
 Vibrational temperatures:    132.12   187.06   230.30   283.16   350.11
          (Kelvin)            466.34   622.70   658.79   728.75   920.05
                             1024.43  1081.78  1122.97  1197.23  1216.70
                             1263.69  1329.96  1363.09  1366.75  1385.67
                             1484.34  1524.81  1532.51  1543.48  1588.69
                             1703.14  1716.26  1746.79  1764.37  1816.09
                             1845.09  1871.22  1885.54  1949.53  1999.30
                             2032.55  2130.49  2148.48  2156.75  2168.40
                             2770.30  4350.13  4362.65  4370.53  4407.54
                             4413.06  4459.19  4469.22  4479.20  4527.79
                             4536.20

 Zero-point correction=                           0.159426 (Hartree/Particle)
 Thermal correction to Energy=                    0.167623
 Thermal correction to Enthalpy=                  0.168567
 Thermal correction to Gibbs Free Energy=         0.126463
 Sum of electronic and zero-point Energies=           -423.020040
 Sum of electronic and thermal Energies=              -423.011843
 Sum of electronic and thermal Enthalpies=            -423.010899
 Sum of electronic and thermal Free Energies=         -423.053003

                     E (Thermal)             CV                S
                      KCal/Mol        Cal/Mol-Kelvin    Cal/Mol-Kelvin
 Total                  105.185             31.229             88.616
 Electronic               0.000              0.000              0.000
 Translational            0.889              2.981             40.409
 Rotational               0.889              2.981             28.728
 Vibrational            103.407             25.267             19.480
 Vibration     1          0.602              1.955              3.621
 Vibration     2          0.612              1.923              2.946
 Vibration     3          0.622              1.891              2.549
 Vibration     4          0.636              1.844              2.163
 Vibration     5          0.659              1.774              1.778
 Vibration     6          0.709              1.627              1.289
 Vibration     7          0.794              1.399              0.850
 Vibration     8          0.816              1.343              0.772
 Vibration     9          0.862              1.236              0.642

 Optimization completed.
    -- Stationary point found.
 Normal termination of Gaussian 09 at Tue Jan 28 14:34:45 2020.
