 Gaussian 09, Revision D.01,
 Gaussian 09:  ES64L-G09RevD.01 24-Apr-2013

 -----------------------------
 # b3lyp 6-31G(2df,p) opt Freq
 -----------------------------

 -----
 titel
 -----
 Symbolic Z-matrix:
 Charge =  0 Multiplicity = 1

 SCF Done:  E(RB3LYP) =  -423.166269863     A.U. after   14 cycles
 Optimization completed.
    -- Stationary point found.
 Normal termination of Gaussian 09 at Mon Jan 27 16:24:32 2020.

 ----------------------------------------------------------------------
 #N Geom=AllCheck Guess=TCheck SCRF=Check GenChk RB3LYP/6-31G(2df,p) Fr
 eq
 ----------------------------------------------------------------------

 Structure from the checkpoint file:  "/scratch/puck/g09_9d159074-8b61-46ac-ade8-ffee62d28591/Gau-109692.chk"
 -----
 titel
 -----
 Charge =  0 Multiplicity = 1

                         Standard orientation:
 ---------------------------------------------------------------------
 Center     Atomic      Atomic             Coordinates (Angstroms)
 Number     Number       Type             X           Y           Z
 ---------------------------------------------------------------------
      1          6           0        2.573651   -0.799217   -0.573431
      2          6           0        1.378023    0.052568   -0.205954
      3          6           0        1.476011    1.519393   -0.249515
      4          8           0        1.518126    0.814195    0.998857
      5          6           0        0.042334   -0.621054   -0.377495
      6          6           0       -0.547055   -1.425781    0.733033
      7          6           0       -1.173742   -0.086601    0.364419
      8          6           0       -2.470649   -0.085836   -0.345157
      9          8           0       -3.319330    0.764047   -0.239704
     10          1           0        2.587309   -1.718149    0.021492
     11          1           0        2.536567   -1.083678   -1.630523
     12          1           0        3.503302   -0.255301   -0.390839
     13          1           0        2.412611    1.988961   -0.546066
     14          1           0        0.580666    2.115673   -0.415177
     15          1           0       -0.138763   -0.988004   -1.385362
     16          1           0       -1.095999   -2.328472    0.486077
     17          1           0       -0.022400   -1.448018    1.681166
     18          1           0       -1.007554    0.736411    1.049192
     19          1           0       -2.617545   -0.966190   -1.018587
 ---------------------------------------------------------------------

 SCF Done:  E(RB3LYP) =  -423.166269863     A.U. after    1 cycles

 The electronic state is 1-A.
 Alpha  occ. eigenvalues --  -19.15906 -19.13159 -10.26840 -10.25671 -10.23850
 Alpha  occ. eigenvalues --  -10.21675 -10.20779 -10.20524 -10.19150  -1.07941
 Alpha  occ. eigenvalues --   -1.03969  -0.88344  -0.76099  -0.67458  -0.67225
 Alpha  occ. eigenvalues --   -0.63954  -0.57863  -0.56646  -0.51659  -0.49865
 Alpha  occ. eigenvalues --   -0.48173  -0.44214  -0.43488  -0.42037  -0.41241
 Alpha  occ. eigenvalues --   -0.40140  -0.39086  -0.38228  -0.36947  -0.34252
 Alpha  occ. eigenvalues --   -0.30367  -0.29249  -0.27663  -0.24867
 Alpha virt. eigenvalues --   -0.01771   0.07921   0.09378   0.09845   0.10415
 Alpha virt. eigenvalues --    0.12615   0.12676   0.13204   0.14104   0.14994
 Alpha virt. eigenvalues --    0.16733   0.18369   0.18651   0.20638   0.20787

 Mulliken charges:
               1
     1  C   -0.458466
     2  C    0.393239
     3  C   -0.224273
     4  O   -0.267268
     5  C   -0.100385
     6  C   -0.300342
     7  C   -0.114444
     8  C    0.166207
     9  O   -0.268587
    10  H    0.131340
    11  H    0.123803
    12  H    0.130701
    13  H    0.117117
    14  H    0.123323
    15  H    0.098417
    16  H    0.123145
    17  H    0.141161
    18  H    0.125335
    19  H    0.059976
 Sum of Mulliken charges =   0.00000

 Dipole moment (field-independent basis, Debye):
    X=              2.7078    Y=             -1.8673    Z=             -1.4757  Tot=              3.6051
 Quadrupole moment (field-independent basis, Debye-Ang):
   XX=            -63.2767   YY=            -51.2086   ZZ=            -53.6063
   XY=              5.2167   XZ=             -3.1128   YZ=             -1.0978

  Exact polarizability:  91.874  -3.292  78.951   0.013   0.014  61.455
 Approx polarizability: 120.734 -11.874 120.780   0.757   1.072  99.900

                      1                      2                      3
                      A                      A                      A
 Frequencies --     62.3854                82.9776               164.7338
 Red. masses --      3.7071                 5.9035                 3.4523
 Frc consts  --      0.0085                 0.0239                 0.0552
 IR Inten    --      2.0710                 3.5116                 1.7333

                      4                      5                      6
                      A                      A                      A
 Frequencies --    184.7533               204.8402               276.0423
 Red. masses --      1.5440                 1.4945                 3.1446
 Frc consts  --      0.0311                 0.0369                 0.1412
 IR Inten    --      0.7296                 0.5328                 4.6442

                      7                      8                      9
                      A                      A                      A
 Frequencies --    310.2697               356.2791               375.7422
 Red. masses --      3.0085                 2.4736                 2.5977
 Frc consts  --      0.1706                 0.1850                 0.2161
 IR Inten    --      7.3997                 1.4548                 2.6428

                     10                     11                     12
                      A                      A                      A
 Frequencies --    450.8807               522.2017               543.5612
 Red. masses --      3.5069                 3.0497                 3.9183
 Frc consts  --      0.4200                 0.4900                 0.6821
 IR Inten    --      8.2973                13.1703                 5.2778

                     13                     14                     15
                      A                      A                      A
 Frequencies --    689.5035               816.8007               854.8096
 Red. masses --      3.0910                 3.2088                 3.0063
 Frc consts  --      0.8658                 1.2613                 1.2943
 IR Inten    --      1.5627                 8.1906                10.9898

                     16                     17                     18
                      A                      A                      A
 Frequencies --    874.2009               902.2851               916.2822
 Red. masses --      1.3781                 1.9393                 1.5794
 Frc consts  --      0.6205                 0.9302                 0.7813
 IR Inten    --      2.7421                27.9049                10.3373

                     19                     20                     21
                      A                      A                      A
 Frequencies --    950.8613               985.6435              1022.9241
 Red. masses --      2.5646                 2.8192                 1.4990
 Frc consts  --      1.3662                 1.6137                 0.9242
 IR Inten    --      7.8886                28.1139                 5.4652

                     22                     23                     24
                      A                      A                      A
 Frequencies --   1046.6070              1079.1675              1094.4531
 Red. masses --      1.7842                 1.3658                 1.7380
 Frc consts  --      1.1515                 0.9372                 1.2266
 IR Inten    --      2.9520                 1.8507                17.7375

                     25                     26                     27
                      A                      A                      A
 Frequencies --   1129.8255              1131.5980              1140.3234
 Red. masses --      1.2220                 1.2451                 1.4524
 Frc consts  --      0.9191                 0.9393                 1.1127
 IR Inten    --     20.6096                10.5087                 5.5038

                     28                     29                     30
                      A                      A                      A
 Frequencies --   1171.1450              1176.2790              1215.9384
 Red. masses --      1.5799                 1.4743                 2.4457
 Frc consts  --      1.2767                 1.2018                 2.1304
 IR Inten    --     12.8144                11.3743                 2.2092

                     31                     32                     33
                      A                      A                      A
 Frequencies --   1240.2700              1295.8555              1385.0758
 Red. masses --      1.7232                 1.7979                 2.0657
 Frc consts  --      1.5618                 1.7788                 2.3349
 IR Inten    --     20.2036                21.9569                12.1355

                     34                     35                     36
                      A                      A                      A
 Frequencies --   1414.6976              1418.5866              1444.1713
 Red. masses --      1.4136                 1.5563                 1.3559
 Frc consts  --      1.6669                 1.8453                 1.6662
 IR Inten    --      8.8996                 4.7095                 3.3492

                     37                     38                     39
                      A                      A                      A
 Frequencies --   1479.1054              1485.5278              1496.6383
 Red. masses --      1.1817                 1.2364                 1.1323
 Frc consts  --      1.5232                 1.6076                 1.4943
 IR Inten    --      1.0491                 5.5165                 2.1844

                     40                     41                     42
                      A                      A                      A
 Frequencies --   1528.0636              1823.7851              2826.1273
 Red. masses --      1.3640                10.3043                 1.0806
 Frc consts  --      1.8765                20.1937                 5.0853
 IR Inten    --      4.4407               276.0552               104.2534

                     43                     44                     45
                      A                      A                      A
 Frequencies --   3037.9032              3088.5311              3102.5343
 Red. masses --      1.0359                 1.0506                 1.1006
 Frc consts  --      5.6329                 5.9047                 6.2416
 IR Inten    --     15.7722                20.7437                14.5081

                     46                     47                     48
                      A                      A                      A
 Frequencies --   3127.3111              3134.0878              3137.1368
 Red. masses --      1.1014                 1.0732                 1.0677
 Frc consts  --      6.3465                 6.2108                 6.1913
 IR Inten    --     15.4168                 9.5661                10.8092

                     49                     50                     51
                      A                      A                      A
 Frequencies --   3177.8476              3196.6934              3229.2579
 Red. masses --      1.1197                 1.0895                 1.1164
 Frc consts  --      6.6621                 6.5595                 6.8592
 IR Inten    --     20.0416                 0.7989                 2.6971

 - Thermochemistry -
 -------------------
 Temperature   298.150 Kelvin.  Pressure   1.00000 Atm.
 Atom     1 has atomic number  6 and mass  12.00000

 Molecular mass:   126.06808 amu.
 Principal axes and moments of inertia in atomic units:
                           1         2         3
     Eigenvalues --   538.548411854.213352081.18325
           X            0.99989   0.00588  -0.01355
           Y           -0.00599   0.99995  -0.00836
           Z            0.01350   0.00844   0.99987
 This molecule is an asymmetric top.
 Rotational symmetry number  1.
 Warning -- assumption of classical behavior for rotation
           may cause significant error
 Rotational temperatures (Kelvin)      0.16083     0.04671     0.04162
 Rotational constants (GHZ):           3.35112     0.97332     0.86717
 Zero-point vibrational energy     411530.5 (Joules/Mol)
                                   98.35814 (Kcal/Mol)
 Warning -- explicit consideration of  12 degrees of freedom as
           vibrations may cause significant error
 Vibrational temperatures:     89.76   119.39   237.01   265.82   294.72
          (Kelvin)            397.16   446.41   512.61   540.61   648.72
                              751.33   782.06   992.04  1175.19  1229.88
                             1257.78  1298.19  1318.32  1368.08  1418.12
                             1471.76  1505.83  1552.68  1574.67  1625.56
                             1628.12  1640.67  1685.01  1692.40  1749.46
                             1784.47  1864.44  1992.81  2035.43  2041.03
                             2077.84  2128.10  2137.34  2153.33  2198.54
                             2624.02  4066.16  4370.86  4443.70  4463.85
                             4499.50  4509.25  4513.63  4572.21  4599.32
                             4646.18

 Zero-point correction=                           0.156744 (Hartree/Particle)
 Thermal correction to Energy=                    0.165933
 Thermal correction to Enthalpy=                  0.166877
 Thermal correction to Gibbs Free Energy=         0.122335
 Sum of electronic and zero-point Energies=           -423.009526
 Sum of electronic and thermal Energies=              -423.000337
 Sum of electronic and thermal Enthalpies=            -422.999392
 Sum of electronic and thermal Free Energies=         -423.043935

                     E (Thermal)             CV                S
                      KCal/Mol        Cal/Mol-Kelvin    Cal/Mol-Kelvin
 Total                  104.125             33.742             93.748
 Electronic               0.000              0.000              0.000
 Translational            0.889              2.981             40.409
 Rotational               0.889              2.981             29.120
 Vibrational            102.347             27.780             24.219
 Vibration     1          0.597              1.972              4.380
 Vibration     2          0.600              1.961              3.819
 Vibration     3          0.623              1.886              2.495
 Vibration     4          0.631              1.861              2.280
 Vibration     5          0.640              1.833              2.089
 Vibration     6          0.678              1.718              1.558
 Vibration     7          0.699              1.654              1.361
 Vibration     8          0.732              1.562              1.138
 Vibration     9          0.747              1.522              1.056
 Vibration    10          0.810              1.359              0.793
 Vibration    11          0.877              1.201              0.605
 Vibration    12          0.899              1.154              0.558

 Optimization completed.
    -- Stationary point found.
 Normal termination of Gaussian 09 at Mon Jan 27 17:01:47 2020.
