 Gaussian 09, Revision D.01,
 Gaussian 09:  ES64L-G09RevD.01 24-Apr-2013

 -----------------------------
 # b3lyp 6-31G(2df,p) opt Freq
 -----------------------------

 -----
 titel
 -----
 Symbolic Z-matrix:
 Charge =  0 Multiplicity = 1

 SCF Done:  E(RB3LYP) =  -423.133824292     A.U. after   14 cycles
 SCF Done:  E(RB3LYP) =  -423.133824142     A.U. after    7 cycles
 SCF Done:  E(RB3LYP) =  -423.133824319     A.U. after    7 cycles
 Optimization completed.
    -- Stationary point found.
 Normal termination of Gaussian 09 at Mon Jan 27 22:12:33 2020.

 ----------------------------------------------------------------------
 #N Geom=AllCheck Guess=TCheck SCRF=Check GenChk RB3LYP/6-31G(2df,p) Fr
 eq
 ----------------------------------------------------------------------

 Structure from the checkpoint file:  "/scratch/puck/g09_2d45004a-4eb2-4224-86ca-11c3bbcf3bba/Gau-76273.chk"
 -----
 titel
 -----
 Charge =  0 Multiplicity = 1

                         Standard orientation:
 ---------------------------------------------------------------------
 Center     Atomic      Atomic             Coordinates (Angstroms)
 Number     Number       Type             X           Y           Z
 ---------------------------------------------------------------------
      1          6           0       -2.174598    0.423768   -0.746829
      2          6           0       -0.863763   -0.191871   -0.327882
      3          8           0       -0.506508   -1.288904   -1.134021
      4          6           0       -0.444555   -0.376867    1.102869
      5          8           0        0.126844   -1.576843    1.472827
      6          6           0        0.313657    0.649427    0.223405
      7          6           0        0.131973    2.131547    0.515782
      8          6           0        1.600266    0.275210   -0.285828
      9          6           0        2.652074   -0.051515   -0.775761
     10          1           0       -2.091039    0.887373   -1.735495
     11          1           0       -2.939654   -0.357015   -0.803163
     12          1           0       -2.515046    1.180594   -0.036950
     13          1           0        0.340527   -1.092827   -1.560024
     14          1           0       -1.051660    0.061529    1.891091
     15          1           0        0.130317   -2.120625    0.669836
     16          1           0        0.913664    2.477847    1.198299
     17          1           0        0.189984    2.730923   -0.398378
     18          1           0       -0.833432    2.327536    0.988972
     19          1           0        3.603319   -0.327549   -1.159174
 ---------------------------------------------------------------------

 SCF Done:  E(RB3LYP) =  -423.133824319     A.U. after    1 cycles

 The electronic state is 1-A.
 Alpha  occ. eigenvalues --  -19.15627 -19.13863 -10.25068 -10.23901 -10.21778
 Alpha  occ. eigenvalues --  -10.19088 -10.19084 -10.18628 -10.18135  -1.05394
 Alpha  occ. eigenvalues --   -1.01728  -0.85872  -0.76203  -0.72621  -0.70876
 Alpha  occ. eigenvalues --   -0.62148  -0.59251  -0.55296  -0.51473  -0.48342
 Alpha  occ. eigenvalues --   -0.47919  -0.43926  -0.41994  -0.41286  -0.40879
 Alpha  occ. eigenvalues --   -0.39719  -0.38613  -0.38271  -0.34870  -0.31425
 Alpha  occ. eigenvalues --   -0.30275  -0.28353  -0.25427  -0.23024
 Alpha virt. eigenvalues --    0.03813   0.04176   0.07900   0.09630   0.10769
 Alpha virt. eigenvalues --    0.12498   0.14297   0.14497   0.14756   0.15436
 Alpha virt. eigenvalues --    0.16481   0.18242   0.20452   0.20693   0.21868

 Mulliken charges:
               1
     1  C   -0.449874
     2  C    0.298890
     3  O   -0.472048
     4  C    0.061338
     5  O   -0.426918
     6  C   -0.023559
     7  C   -0.466591
     8  C    0.269290
     9  C   -0.439245
    10  H    0.124043
    11  H    0.135522
    12  H    0.120049
    13  H    0.291997
    14  H    0.103097
    15  H    0.289759
    16  H    0.135993
    17  H    0.128690
    18  H    0.120366
    19  H    0.199202
 Sum of Mulliken charges =   0.00000

 Dipole moment (field-independent basis, Debye):
    X=             -0.2187    Y=              1.4594    Z=             -1.2219  Tot=              1.9159
 Quadrupole moment (field-independent basis, Debye-Ang):
   XX=            -49.1153   YY=            -53.6912   ZZ=            -55.1811
   XY=             -2.8109   XZ=             -4.0904   YZ=              3.1509

  Exact polarizability:  95.503  -3.691  72.601  -7.895   3.020  68.164
 Approx polarizability: 141.959  -7.030 104.285 -18.580   5.951 106.579

                      1                      2                      3
                      A                      A                      A
 Frequencies --    113.0954               142.1558               167.2491
 Red. masses --      4.3340                 3.9474                 1.2659
 Frc consts  --      0.0327                 0.0470                 0.0209
 IR Inten    --      0.7722                 1.2955                 0.0694

                      4                      5                      6
                      A                      A                      A
 Frequencies --    185.5165               215.8971               251.2355
 Red. masses --      1.1435                 3.1875                 2.0761
 Frc consts  --      0.0232                 0.0875                 0.0772
 IR Inten    --      0.0893                 2.5768                 1.5143

                      7                      8                      9
                      A                      A                      A
 Frequencies --    261.4763               289.4508               305.0870
 Red. masses --      2.9205                 2.7032                 1.3523
 Frc consts  --      0.1176                 0.1334                 0.0742
 IR Inten    --      0.8536                 3.5132                51.3377

                     10                     11                     12
                      A                      A                      A
 Frequencies --    376.9978               386.3735               432.8917
 Red. masses --      3.1999                 3.6790                 4.8210
 Frc consts  --      0.2680                 0.3236                 0.5323
 IR Inten    --      2.4274                 9.1977                 3.1938

                     13                     14                     15
                      A                      A                      A
 Frequencies --    535.0369               558.5436               582.2322
 Red. masses --      1.1259                 3.9368                 1.3146
 Frc consts  --      0.1899                 0.7236                 0.2626
 IR Inten    --     74.6696                17.2030                47.8555

                     16                     17                     18
                      A                      A                      A
 Frequencies --    617.3148               645.3708               661.9019
 Red. masses --      4.2614                 3.3449                 1.2581
 Frc consts  --      0.9568                 0.8208                 0.3247
 IR Inten    --      3.1831                16.1824                33.1180

                     19                     20                     21
                      A                      A                      A
 Frequencies --    675.9872               698.8954               838.5297
 Red. masses --      3.5606                 4.2786                 3.3331
 Frc consts  --      0.9586                 1.2313                 1.3808
 IR Inten    --     12.8472                16.0781                18.5839

                     22                     23                     24
                      A                      A                      A
 Frequencies --    939.6051               990.8296              1010.4991
 Red. masses --      2.1010                 1.5258                 1.3866
 Frc consts  --      1.0929                 0.8826                 0.8342
 IR Inten    --     21.5857                 3.6349                25.8340

                     25                     26                     27
                      A                      A                      A
 Frequencies --   1089.7638              1099.6714              1156.7332
 Red. masses --      1.5885                 1.5998                 2.9140
 Frc consts  --      1.1115                 1.1398                 2.2972
 IR Inten    --      2.6344                22.6140                56.3064

                     28                     29                     30
                      A                      A                      A
 Frequencies --   1162.3148              1194.7475              1259.9962
 Red. masses --      5.1256                 2.4177                 2.7252
 Frc consts  --      4.0798                 2.0333                 2.5491
 IR Inten    --     65.4445                26.4574                45.3083

                     31                     32                     33
                      A                      A                      A
 Frequencies --   1307.3421              1361.4300              1368.6527
 Red. masses --      1.7391                 1.4525                 1.8972
 Frc consts  --      1.7513                 1.5861                 2.0939
 IR Inten    --      5.7131                40.9516                33.2118

                     34                     35                     36
                      A                      A                      A
 Frequencies --   1410.6870              1420.7392              1459.0048
 Red. masses --      1.2684                 1.2902                 1.6389
 Frc consts  --      1.4872                 1.5344                 2.0555
 IR Inten    --      9.9683                 3.6721                76.6317

                     37                     38                     39
                      A                      A                      A
 Frequencies --   1477.1876              1490.1027              1494.7522
 Red. masses --      1.0466                 1.0642                 1.0504
 Frc consts  --      1.3456                 1.3922                 1.3828
 IR Inten    --      1.9345                 0.5174                 6.1590

                     40                     41                     42
                      A                      A                      A
 Frequencies --   1506.8542              2216.0432              3037.3295
 Red. masses --      1.0958                 6.0731                 1.0357
 Frc consts  --      1.4660                17.5719                 5.6292
 IR Inten    --     13.1497                18.9108                15.5597

                     43                     44                     45
                      A                      A                      A
 Frequencies --   3041.4852              3102.9319              3106.4446
 Red. masses --      1.0362                 1.1012                 1.1019
 Frc consts  --      5.6475                 6.2468                 6.2651
 IR Inten    --     31.1000                 9.6552                20.3670

                     46                     47                     48
                      A                      A                      A
 Frequencies --   3116.8987              3130.3062              3142.5110
 Red. masses --      1.1014                 1.0985                 1.0899
 Frc consts  --      6.3042                 6.3422                 6.3415
 IR Inten    --     19.5599                 9.4396                27.3482

                     49                     50                     51
                      A                      A                      A
 Frequencies --   3499.0691              3703.1431              3718.4286
 Red. masses --      1.1581                 1.0645                 1.0662
 Frc consts  --      8.3538                 8.6008                 8.6854
 IR Inten    --     87.0297                54.7905                74.5458

 - Thermochemistry -
 -------------------
 Temperature   298.150 Kelvin.  Pressure   1.00000 Atm.
 Atom     1 has atomic number  6 and mass  12.00000

 Molecular mass:   126.06808 amu.
 Principal axes and moments of inertia in atomic units:
                           1         2         3
     Eigenvalues --   935.076591172.463081366.65291
           X            0.99720  -0.07462  -0.00517
           Y            0.07480   0.99500   0.06620
           Z            0.00020  -0.06641   0.99779
 This molecule is an asymmetric top.
 Rotational symmetry number  1.
 Warning -- assumption of classical behavior for rotation
           may cause significant error
 Rotational temperatures (Kelvin)      0.09263     0.07387     0.06338
 Rotational constants (GHZ):           1.93005     1.53927     1.32056
 Zero-point vibrational energy     406471.6 (Joules/Mol)
                                   97.14904 (Kcal/Mol)
 Warning -- explicit consideration of  16 degrees of freedom as
           vibrations may cause significant error
 Vibrational temperatures:    162.72   204.53   240.63   266.92   310.63
          (Kelvin)            361.47   376.21   416.45   438.95   542.42
                              555.90   622.83   769.80   803.62   837.70
                              888.18   928.54   952.33   972.59  1005.55
                             1206.46  1351.88  1425.58  1453.88  1567.93
                             1582.18  1664.28  1672.31  1718.97  1812.85
                             1880.97  1958.79  1969.18  2029.66  2044.12
                             2099.18  2125.34  2143.92  2150.61  2168.02
                             3188.39  4370.03  4376.01  4464.42  4469.48
                             4484.52  4503.81  4521.37  5034.37  5327.99
                             5349.98

 Zero-point correction=                           0.154817 (Hartree/Particle)
 Thermal correction to Energy=                    0.165070
 Thermal correction to Enthalpy=                  0.166014
 Thermal correction to Gibbs Free Energy=         0.120682
 Sum of electronic and zero-point Energies=           -422.979007
 Sum of electronic and thermal Energies=              -422.968755
 Sum of electronic and thermal Enthalpies=            -422.967811
 Sum of electronic and thermal Free Energies=         -423.013142

                     E (Thermal)             CV                S
                      KCal/Mol        Cal/Mol-Kelvin    Cal/Mol-Kelvin
 Total                  103.583             38.743             95.409
 Electronic               0.000              0.000              0.000
 Translational            0.889              2.981             40.409
 Rotational               0.889              2.981             28.795
 Vibrational            101.805             32.781             26.205
 Vibration     1          0.607              1.939              3.215
 Vibration     2          0.616              1.911              2.775
 Vibration     3          0.624              1.883              2.466
 Vibration     4          0.632              1.860              2.272
 Vibration     5          0.645              1.817              1.993
 Vibration     6          0.663              1.761              1.722
 Vibration     7          0.669              1.743              1.652
 Vibration     8          0.686              1.693              1.477
 Vibration     9          0.696              1.664              1.389
 Vibration    10          0.748              1.519              1.051
 Vibration    11          0.755              1.499              1.014
 Vibration    12          0.794              1.399              0.849
 Vibration    13          0.890              1.173              0.576
 Vibration    14          0.914              1.121              0.527
 Vibration    15          0.939              1.070              0.481
 Vibration    16          0.977              0.995              0.421

 Optimization completed.
    -- Stationary point found.
 Normal termination of Gaussian 09 at Mon Jan 27 22:52:33 2020.
