 Gaussian 09, Revision D.01,
 Gaussian 09:  ES64L-G09RevD.01 24-Apr-2013

 -----------------------------
 # b3lyp 6-31G(2df,p) opt Freq
 -----------------------------

 -----
 titel
 -----
 Symbolic Z-matrix:
 Charge =  0 Multiplicity = 1

 SCF Done:  E(RB3LYP) =  -423.161104756     A.U. after   13 cycles
 Optimization completed.
    -- Stationary point found.
 Normal termination of Gaussian 09 at Mon Jan 27 11:15:08 2020.

 ----------------------------------------------------------------------
 #N Geom=AllCheck Guess=TCheck SCRF=Check GenChk RB3LYP/6-31G(2df,p) Fr
 eq
 ----------------------------------------------------------------------

 Structure from the checkpoint file:  "/scratch/puck/g09_b892f329-e994-4cbc-be9b-413f46633fad/Gau-68806.chk"
 -----
 titel
 -----
 Charge =  0 Multiplicity = 1

                         Standard orientation:
 ---------------------------------------------------------------------
 Center     Atomic      Atomic             Coordinates (Angstroms)
 Number     Number       Type             X           Y           Z
 ---------------------------------------------------------------------
      1          6           0       -0.528038    1.528651   -0.554189
      2          6           0        0.528367    1.528810    0.553764
      3          6           0        1.563092    0.429996    0.463350
      4          8           0        1.820094   -0.146598   -0.825857
      5          6           0        1.311904   -0.995599    0.211288
      6          6           0       -0.000237   -1.718565   -0.000332
      7          6           0       -1.312342   -0.995335   -0.211242
      8          8           0       -1.819633   -0.146292    0.826285
      9          6           0       -1.563277    0.430359   -0.463004
     10          1           0       -1.057686    2.487795   -0.516803
     11          1           0       -0.040842    1.474102   -1.533561
     12          1           0        1.058548    2.487637    0.515534
     13          1           0        0.041309    1.475279    1.533258
     14          1           0        2.474320    0.648404    1.025644
     15          1           0        2.073139   -1.678863    0.597964
     16          1           0        0.141088   -2.385659   -0.862331
     17          1           0       -0.141623   -2.386191    0.861255
     18          1           0       -2.073947   -1.678398   -0.597544
     19          1           0       -2.474809    0.649118   -1.024655
 ---------------------------------------------------------------------

 SCF Done:  E(RB3LYP) =  -423.161104756     A.U. after    1 cycles

 The electronic state is 1-A.
 Alpha  occ. eigenvalues --  -19.14516 -19.14515 -10.23714 -10.23714 -10.23502
 Alpha  occ. eigenvalues --  -10.23502 -10.19703 -10.18651 -10.18629  -1.06767
 Alpha  occ. eigenvalues --   -1.06265  -0.78896  -0.77221  -0.70503  -0.65318
 Alpha  occ. eigenvalues --   -0.63351  -0.56132  -0.54789  -0.52562  -0.48710
 Alpha  occ. eigenvalues --   -0.47737  -0.44181  -0.44102  -0.42588  -0.40246
 Alpha  occ. eigenvalues --   -0.38825  -0.36216  -0.35764  -0.34474  -0.34446
 Alpha  occ. eigenvalues --   -0.29175  -0.28899  -0.26583  -0.25797
 Alpha virt. eigenvalues --    0.08044   0.09995   0.10503   0.11434   0.11950
 Alpha virt. eigenvalues --    0.12339   0.12989   0.15660   0.15828   0.16708
 Alpha virt. eigenvalues --    0.18781   0.18907   0.19028   0.19563   0.20817

 Mulliken charges:
               1
     1  C   -0.247733
     2  C   -0.247662
     3  C    0.058187
     4  O   -0.260739
     5  C    0.068618
     6  C   -0.282149
     7  C    0.068601
     8  O   -0.260709
     9  C    0.058155
    10  H    0.102183
    11  H    0.127325
    12  H    0.102193
    13  H    0.127302
    14  H    0.085004
    15  H    0.088371
    16  H    0.119841
    17  H    0.119837
    18  H    0.088365
    19  H    0.085008
 Sum of Mulliken charges =   0.00000

 Dipole moment (field-independent basis, Debye):
    X=             -0.0009    Y=             -0.2296    Z=             -0.0004  Tot=              0.2296
 Quadrupole moment (field-independent basis, Debye-Ang):
   XX=            -55.9873   YY=            -47.6344   ZZ=            -55.1352
   XY=              0.0009   XZ=              6.7986   YZ=             -0.0003

  Exact polarizability:  75.307   0.002  85.428   5.231   0.000  61.477
 Approx polarizability: 100.807   0.002 119.867   0.063   0.001 104.467

                      1                      2                      3
                      A                      A                      A
 Frequencies --     66.8811               209.8070               244.7602
 Red. masses --      2.8310                 2.7801                 8.8582
 Frc consts  --      0.0075                 0.0721                 0.3127
 IR Inten    --      4.1075                 4.8160                 0.0189

                      4                      5                      6
                      A                      A                      A
 Frequencies --    294.1579               343.8256               353.8280
 Red. masses --      2.9943                 2.0652                 2.4121
 Frc consts  --      0.1527                 0.1438                 0.1779
 IR Inten    --      2.5779                 8.1184                 2.5849

                      7                      8                      9
                      A                      A                      A
 Frequencies --    456.3978               521.5197               628.5217
 Red. masses --      3.8638                 4.2941                 2.5932
 Frc consts  --      0.4742                 0.6881                 0.6036
 IR Inten    --      9.4503                 0.2400                 2.0902

                     10                     11                     12
                      A                      A                      A
 Frequencies --    694.8486               721.2938               777.7332
 Red. masses --      4.3547                 4.3244                 3.1500
 Frc consts  --      1.2388                 1.3256                 1.1226
 IR Inten    --      2.8998                 8.1919                13.6609

                     13                     14                     15
                      A                      A                      A
 Frequencies --    802.5745               816.5673               870.9974
 Red. masses --      2.5977                 3.0607                 2.6160
 Frc consts  --      0.9858                 1.2024                 1.1693
 IR Inten    --     14.7616                 1.0278                 7.6182

                     16                     17                     18
                      A                      A                      A
 Frequencies --    908.4170               927.7871               950.5438
 Red. masses --      3.4174                 4.4288                 2.2159
 Frc consts  --      1.6615                 2.2461                 1.1796
 IR Inten    --     26.3203                 0.9171                12.7411

                     19                     20                     21
                      A                      A                      A
 Frequencies --   1025.2074              1036.7346              1066.7849
 Red. masses --      1.9127                 3.0560                 1.7206
 Frc consts  --      1.1845                 1.9353                 1.1537
 IR Inten    --      2.2460                32.2397                 5.0734

                     22                     23                     24
                      A                      A                      A
 Frequencies --   1075.6654              1126.7994              1145.3909
 Red. masses --      1.8943                 1.2356                 1.3143
 Frc consts  --      1.2914                 0.9243                 1.0159
 IR Inten    --      3.9691                 7.0177                 2.0825

                     25                     26                     27
                      A                      A                      A
 Frequencies --   1163.9769              1171.7661              1237.5186
 Red. masses --      1.4317                 1.3488                 1.2583
 Frc consts  --      1.1429                 1.0912                 1.1354
 IR Inten    --      7.7964                 3.3909                 2.5644

                     28                     29                     30
                      A                      A                      A
 Frequencies --   1279.8009              1290.0203              1316.3363
 Red. masses --      1.2012                 1.2499                 1.2526
 Frc consts  --      1.1592                 1.2255                 1.2788
 IR Inten    --      0.0752                 0.4518                 0.7182

                     31                     32                     33
                      A                      A                      A
 Frequencies --   1322.1456              1381.3141              1388.5582
 Red. masses --      1.1892                 1.3649                 1.7151
 Frc consts  --      1.2248                 1.5344                 1.9484
 IR Inten    --      4.7622                 1.4894                 0.2339

                     34                     35                     36
                      A                      A                      A
 Frequencies --   1397.9052              1417.0392              1430.9538
 Red. masses --      1.6694                 1.6179                 1.2675
 Frc consts  --      1.9220                 1.9140                 1.5292
 IR Inten    --      1.6229                 0.9938                13.5769

                     37                     38                     39
                      A                      A                      A
 Frequencies --   1457.3097              1466.3977              1480.0577
 Red. masses --      1.1032                 1.3194                 1.1053
 Frc consts  --      1.3804                 1.6716                 1.4266
 IR Inten    --      5.6796                13.5596                 6.7767

                     40                     41                     42
                      A                      A                      A
 Frequencies --   1505.8910              1516.5446              3009.3017
 Red. masses --      2.1025                 2.8920                 1.0605
 Frc consts  --      2.8091                 3.9189                 5.6585
 IR Inten    --     17.9728                 0.0980                14.2538

                     43                     44                     45
                      A                      A                      A
 Frequencies --   3030.4912              3040.7550              3041.2152
 Red. masses --      1.0648                 1.0630                 1.0989
 Frc consts  --      5.7616                 5.7907                 5.9883
 IR Inten    --      5.5635                30.1124                11.5981

                     46                     47                     48
                      A                      A                      A
 Frequencies --   3061.9485              3064.2015              3075.6068
 Red. masses --      1.0841                 1.0833                 1.0960
 Frc consts  --      5.9885                 5.9930                 6.1084
 IR Inten    --      6.7276                64.1813                 8.3980

                     49                     50                     51
                      A                      A                      A
 Frequencies --   3079.1756              3082.7865              3087.9607
 Red. masses --      1.0883                 1.0925                 1.0977
 Frc consts  --      6.0794                 6.1174                 6.1670
 IR Inten    --    147.1052                 0.4429                16.4860

 - Thermochemistry -
 -------------------
 Temperature   298.150 Kelvin.  Pressure   1.00000 Atm.
 Atom     1 has atomic number  6 and mass  12.00000

 Molecular mass:   126.06808 amu.
 Principal axes and moments of inertia in atomic units:
                           1         2         3
     Eigenvalues --   714.017451003.272431398.36437
           X            0.99903   0.00003   0.04411
           Y           -0.00003   1.00000  -0.00001
           Z           -0.04411   0.00001   0.99903
 This molecule is an asymmetric top.
 Rotational symmetry number  1.
 Warning -- assumption of classical behavior for rotation
           may cause significant error
 Rotational temperatures (Kelvin)      0.12130     0.08633     0.06194
 Rotational constants (GHZ):           2.52759     1.79885     1.29061
 Zero-point vibrational energy     423861.0 (Joules/Mol)
                                  101.30521 (Kcal/Mol)
 Warning -- explicit consideration of   8 degrees of freedom as
           vibrations may cause significant error
 Vibrational temperatures:     96.23   301.87   352.15   423.23   494.69
          (Kelvin)            509.08   656.65   750.35   904.30   999.73
                             1037.78  1118.98  1154.72  1174.86  1253.17
                             1307.01  1334.88  1367.62  1475.04  1491.63
                             1534.86  1547.64  1621.21  1647.96  1674.70
                             1685.91  1780.51  1841.35  1856.05  1893.91
                             1902.27  1987.40  1997.82  2011.27  2038.80
                             2058.82  2096.74  2109.82  2129.47  2166.64
                             2181.97  4329.71  4360.20  4374.96  4375.62
                             4405.46  4408.70  4425.11  4430.24  4435.44
                             4442.88

 Zero-point correction=                           0.161440 (Hartree/Particle)
 Thermal correction to Energy=                    0.168863
 Thermal correction to Enthalpy=                  0.169807
 Thermal correction to Gibbs Free Energy=         0.129424
 Sum of electronic and zero-point Energies=           -422.999665
 Sum of electronic and thermal Energies=              -422.992242
 Sum of electronic and thermal Enthalpies=            -422.991298
 Sum of electronic and thermal Free Energies=         -423.031681

                     E (Thermal)             CV                S
                      KCal/Mol        Cal/Mol-Kelvin    Cal/Mol-Kelvin
 Total                  105.963             29.351             84.994
 Electronic               0.000              0.000              0.000
 Translational            0.889              2.981             40.409
 Rotational               0.889              2.981             28.395
 Vibrational            104.186             23.389             16.190
 Vibration     1          0.598              1.970              4.243
 Vibration     2          0.642              1.826              2.045
 Vibration     3          0.660              1.771              1.768
 Vibration     4          0.689              1.685              1.450
 Vibration     5          0.723              1.588              1.194
 Vibration     6          0.730              1.567              1.149
 Vibration     7          0.815              1.347              0.777
 Vibration     8          0.876              1.202              0.606

 Optimization completed.
    -- Stationary point found.
 Normal termination of Gaussian 09 at Mon Jan 27 12:01:47 2020.
