 Gaussian 09, Revision D.01,
 Gaussian 09:  ES64L-G09RevD.01 24-Apr-2013

 -----------------------------
 # b3lyp 6-31G(2df,p) opt Freq
 -----------------------------

 -----
 titel
 -----
 Symbolic Z-matrix:
 Charge =  0 Multiplicity = 1

 SCF Done:  E(RB3LYP) =  -423.147592241     A.U. after   13 cycles
 Optimization completed.
    -- Stationary point found.
 Normal termination of Gaussian 09 at Mon Jan 27 23:56:34 2020.

 ----------------------------------------------------------------------
 #N Geom=AllCheck Guess=TCheck SCRF=Check GenChk RB3LYP/6-31G(2df,p) Fr
 eq
 ----------------------------------------------------------------------

 Structure from the checkpoint file:  "/scratch/puck/g09_2b90ffa0-25bc-442e-b77e-e20cce017f7f/Gau-56275.chk"
 -----
 titel
 -----
 Charge =  0 Multiplicity = 1

                         Standard orientation:
 ---------------------------------------------------------------------
 Center     Atomic      Atomic             Coordinates (Angstroms)
 Number     Number       Type             X           Y           Z
 ---------------------------------------------------------------------
      1          8           0       -2.322568   -0.490039    0.236915
      2          6           0       -1.075952   -0.612584   -0.431964
      3          6           0        0.082909   -1.313133    0.329688
      4          6           0        1.207114   -1.207535   -0.725334
      5          6           0        1.277531    0.338462   -0.696048
      6          6           0        1.732707    0.593268    0.765130
      7          6           0        0.344533    0.043548    1.124824
      8          6           0       -0.207157    0.637472   -0.242941
      9          8           0       -0.689565    1.914042   -0.448315
     10          1           0       -2.154869   -0.418038    1.183043
     11          1           0       -1.313611   -0.963555   -1.441213
     12          1           0       -0.076028   -2.262345    0.839689
     13          1           0        2.150275   -1.669047   -0.419556
     14          1           0        0.912478   -1.628002   -1.691253
     15          1           0        1.724382    0.859657   -1.541554
     16          1           0        2.633336    0.080557    1.117909
     17          1           0        1.792226    1.659022    0.999406
     18          1           0       -0.118506    0.179319    2.102405
     19          1           0       -1.622734    1.893425   -0.197804
 ---------------------------------------------------------------------

 SCF Done:  E(RB3LYP) =  -423.147592241     A.U. after    1 cycles

 The electronic state is 1-A.
 Alpha  occ. eigenvalues --  -19.14671 -19.14463 -10.23262 -10.22759 -10.19291
 Alpha  occ. eigenvalues --  -10.19067 -10.18743 -10.18477 -10.18035  -1.04091
 Alpha  occ. eigenvalues --   -1.01854  -0.90335  -0.74532  -0.70832  -0.66176
 Alpha  occ. eigenvalues --   -0.61668  -0.55236  -0.54671  -0.52157  -0.50117
 Alpha  occ. eigenvalues --   -0.47616  -0.44946  -0.42705  -0.40599  -0.37837
 Alpha  occ. eigenvalues --   -0.37115  -0.36219  -0.33913  -0.33614  -0.32246
 Alpha  occ. eigenvalues --   -0.31554  -0.29914  -0.25377  -0.23766
 Alpha virt. eigenvalues --    0.06109   0.09832   0.10452   0.11766   0.12471
 Alpha virt. eigenvalues --    0.13322   0.14408   0.16024   0.16659   0.17381
 Alpha virt. eigenvalues --    0.18396   0.19467   0.20882   0.21859   0.23065

 Mulliken charges:
               1
     1  O   -0.465799
     2  C    0.083192
     3  C   -0.104275
     4  C   -0.212856
     5  C   -0.085075
     6  C   -0.247425
     7  C   -0.140786
     8  C    0.426917
     9  O   -0.492921
    10  H    0.284275
    11  H    0.078682
    12  H    0.067437
    13  H    0.097597
    14  H    0.097867
    15  H    0.070180
    16  H    0.086718
    17  H    0.111062
    18  H    0.061010
    19  H    0.284203
 Sum of Mulliken charges =   0.00000

 Dipole moment (field-independent basis, Debye):
    X=              0.4500    Y=             -0.8161    Z=              1.1017  Tot=              1.4430
 Quadrupole moment (field-independent basis, Debye-Ang):
   XX=            -54.5346   YY=            -55.4072   ZZ=            -50.7355
   XY=             -2.4412   XZ=             -2.5840   YZ=              1.2666

  Exact polarizability:  79.815  -0.443  72.090  -0.325   1.852  69.525
 Approx polarizability: 113.887  -1.231 107.436  -0.285   0.090 108.794

                      1                      2                      3
                      A                      A                      A
 Frequencies --    203.0854               212.6879               264.6825
 Red. masses --      4.7560                 4.6339                 1.2348
 Frc consts  --      0.1156                 0.1235                 0.0510
 IR Inten    --      9.7426                 2.5649                66.6977

                      4                      5                      6
                      A                      A                      A
 Frequencies --    297.3567               360.9597               433.9355
 Red. masses --      2.2346                 3.3377                 1.6928
 Frc consts  --      0.1164                 0.2562                 0.1878
 IR Inten    --     12.9816                 7.3644                18.0991

                      7                      8                      9
                      A                      A                      A
 Frequencies --    455.7789               493.0836               518.0934
 Red. masses --      1.3708                 2.4167                 3.4863
 Frc consts  --      0.1678                 0.3462                 0.5514
 IR Inten    --     61.4084                 6.3105                 7.0322

                     10                     11                     12
                      A                      A                      A
 Frequencies --    617.3630               655.5913               760.4332
 Red. masses --      4.3639                 3.7713                 4.2613
 Frc consts  --      0.9799                 0.9550                 1.4518
 IR Inten    --      4.7086                 5.1106                 5.8522

                     13                     14                     15
                      A                      A                      A
 Frequencies --    827.8484               830.1825               873.2838
 Red. masses --      2.5511                 2.6256                 2.0363
 Frc consts  --      1.0301                 1.0662                 0.9149
 IR Inten    --      2.5171                11.3767                 1.0967

                     16                     17                     18
                      A                      A                      A
 Frequencies --    911.5403               925.5528               947.3023
 Red. masses --      2.5548                 2.3561                 1.8623
 Frc consts  --      1.2507                 1.1892                 0.9846
 IR Inten    --     12.2054                 6.9844                 0.5584

                     19                     20                     21
                      A                      A                      A
 Frequencies --    957.2800               970.2971               999.9609
 Red. masses --      1.9603                 1.7129                 2.6211
 Frc consts  --      1.0584                 0.9501                 1.5442
 IR Inten    --      1.3802                13.6319                 0.3478

                     22                     23                     24
                      A                      A                      A
 Frequencies --   1032.5602              1042.4062              1069.5447
 Red. masses --      1.4333                 2.3971                 1.3791
 Frc consts  --      0.9004                 1.5347                 0.9295
 IR Inten    --      6.1458                56.6646                15.4203

                     25                     26                     27
                      A                      A                      A
 Frequencies --   1088.8874              1122.3481              1139.1305
 Red. masses --      1.5190                 1.6127                 1.9715
 Frc consts  --      1.0611                 1.1969                 1.5073
 IR Inten    --     24.6782                10.7446                33.6908

                     28                     29                     30
                      A                      A                      A
 Frequencies --   1180.0484              1196.0585              1211.1741
 Red. masses --      1.6953                 1.6755                 1.6176
 Frc consts  --      1.3909                 1.4122                 1.3981
 IR Inten    --      6.9163                25.7315                21.5675

                     31                     32                     33
                      A                      A                      A
 Frequencies --   1235.2363              1242.5503              1266.3661
 Red. masses --      1.8042                 1.4654                 1.5059
 Frc consts  --      1.6219                 1.3330                 1.4229
 IR Inten    --      5.6065                 2.7305                 2.5604

                     34                     35                     36
                      A                      A                      A
 Frequencies --   1276.3216              1290.3816              1317.2229
 Red. masses --      1.5092                 1.5811                 1.6200
 Frc consts  --      1.4485                 1.5511                 1.6561
 IR Inten    --     17.8503                40.6464                 1.3503

                     37                     38                     39
                      A                      A                      A
 Frequencies --   1343.6281              1393.7833              1431.6325
 Red. masses --      2.3286                 1.9904                 1.3818
 Frc consts  --      2.4769                 2.2781                 1.6686
 IR Inten    --    110.0397                 6.1540                94.6808

                     40                     41                     42
                      A                      A                      A
 Frequencies --   1490.1142              1517.8754              3046.2028
 Red. masses --      1.1106                 1.1089                 1.0591
 Frc consts  --      1.4530                 1.5053                 5.7905
 IR Inten    --      1.0669                 4.1042                40.8207

                     43                     44                     45
                      A                      A                      A
 Frequencies --   3051.8137              3063.1232              3097.1931
 Red. masses --      1.0608                 1.0839                 1.1068
 Frc consts  --      5.8211                 5.9921                 6.2554
 IR Inten    --     36.5418                47.4061                30.9181

                     46                     47                     48
                      A                      A                      A
 Frequencies --   3105.4237              3111.3385              3125.8724
 Red. masses --      1.0911                 1.1035                 1.0893
 Frc consts  --      6.1995                 6.2938                 6.2713
 IR Inten    --     26.4705                32.4860                64.6881

                     49                     50                     51
                      A                      A                      A
 Frequencies --   3127.8893              3760.0679              3806.8011
 Red. masses --      1.0922                 1.0652                 1.0654
 Frc consts  --      6.2958                 8.8731                 9.0964
 IR Inten    --      6.5300                32.1715                12.3998

 - Thermochemistry -
 -------------------
 Temperature   298.150 Kelvin.  Pressure   1.00000 Atm.
 Atom     1 has atomic number  8 and mass  15.99491

 Molecular mass:   126.06808 amu.
 Principal axes and moments of inertia in atomic units:
                           1         2         3
     Eigenvalues --   691.37749 962.860421232.78817
           X            0.99986  -0.01559  -0.00677
           Y            0.01583   0.99917   0.03756
           Z            0.00618  -0.03766   0.99927
 This molecule is an asymmetric top.
 Rotational symmetry number  1.
 Warning -- assumption of classical behavior for rotation
           may cause significant error
 Rotational temperatures (Kelvin)      0.12528     0.08995     0.07026
 Rotational constants (GHZ):           2.61036     1.87435     1.46395
 Zero-point vibrational energy     422875.7 (Joules/Mol)
                                  101.06972 (Kcal/Mol)
 Warning -- explicit consideration of  10 degrees of freedom as
           vibrations may cause significant error
 Vibrational temperatures:    292.19   306.01   380.82   427.83   519.34
          (Kelvin)            624.34   655.76   709.44   745.42   888.25
                              943.25  1094.09  1191.09  1194.45  1256.46
                             1311.50  1331.66  1362.96  1377.31  1396.04
                             1438.72  1485.62  1499.79  1538.83  1566.66
                             1614.81  1638.95  1697.82  1720.86  1742.61
                             1777.23  1787.75  1822.02  1836.34  1856.57
                             1895.19  1933.18  2005.34  2059.80  2143.94
                             2183.88  4382.80  4390.87  4407.15  4456.16
                             4468.01  4476.52  4497.43  4500.33  5409.89
                             5477.13

 Zero-point correction=                           0.161065 (Hartree/Particle)
 Thermal correction to Energy=                    0.168374
 Thermal correction to Enthalpy=                  0.169318
 Thermal correction to Gibbs Free Energy=         0.129948
 Sum of electronic and zero-point Energies=           -422.986527
 Sum of electronic and thermal Energies=              -422.979218
 Sum of electronic and thermal Enthalpies=            -422.978274
 Sum of electronic and thermal Free Energies=         -423.017644

                     E (Thermal)             CV                S
                      KCal/Mol        Cal/Mol-Kelvin    Cal/Mol-Kelvin
 Total                  105.656             30.652             82.862
 Electronic               0.000              0.000              0.000
 Translational            0.889              2.981             40.409
 Rotational               0.889              2.981             28.197
 Vibrational            103.879             24.691             14.256
 Vibration     1          0.639              1.836              2.105
 Vibration     2          0.644              1.822              2.020
 Vibration     3          0.671              1.738              1.631
 Vibration     4          0.691              1.679              1.432
 Vibration     5          0.735              1.553              1.118
 Vibration     6          0.795              1.396              0.846
 Vibration     7          0.814              1.348              0.778
 Vibration     8          0.849              1.265              0.676
 Vibration     9          0.873              1.210              0.614
 Vibration    10          0.977              0.995              0.421

 Optimization completed.
    -- Stationary point found.
 Normal termination of Gaussian 09 at Tue Jan 28 01:29:11 2020.
