 Gaussian 09, Revision D.01,
 Gaussian 09:  ES64L-G09RevD.01 24-Apr-2013

 -----------------------------
 # b3lyp 6-31G(2df,p) opt Freq
 -----------------------------

 -----
 titel
 -----
 Symbolic Z-matrix:
 Charge =  0 Multiplicity = 1

 SCF Done:  E(RB3LYP) =  -423.184454342     A.U. after   14 cycles
 Optimization completed.
    -- Stationary point found.
 Normal termination of Gaussian 09 at Mon Jan 27 23:04:07 2020.

 ----------------------------------------------------------------------
 #N Geom=AllCheck Guess=TCheck SCRF=Check GenChk RB3LYP/6-31G(2df,p) Fr
 eq
 ----------------------------------------------------------------------

 Structure from the checkpoint file:  "/scratch/puck/g09_2e9656b5-da83-4c87-b27c-658fcf011c67/Gau-101797.chk"
 -----
 titel
 -----
 Charge =  0 Multiplicity = 1

                         Standard orientation:
 ---------------------------------------------------------------------
 Center     Atomic      Atomic             Coordinates (Angstroms)
 Number     Number       Type             X           Y           Z
 ---------------------------------------------------------------------
      1          6           0       -2.819848   -0.100967   -0.265830
      2          6           0       -1.347758    0.123389   -0.576630
      3          6           0       -0.376439   -0.994928   -0.112402
      4          8           0       -0.419041   -0.427359    1.243778
      5          6           0       -0.539749    0.851946    0.536959
      6          6           0        0.861392    0.923201   -0.086797
      7          8           0        1.639420    1.833792   -0.145028
      8          6           0        1.014637   -0.535227   -0.596646
      9          6           0        2.201217   -1.269908    0.025245
     10          1           0       -2.949005   -0.450585    0.761309
     11          1           0       -3.390746    0.824451   -0.391845
     12          1           0       -3.246723   -0.849748   -0.941599
     13          1           0       -1.201745    0.491010   -1.598512
     14          1           0       -0.628087   -2.055512   -0.153987
     15          1           0       -0.907518    1.685162    1.133170
     16          1           0        1.096368   -0.530773   -1.690105
     17          1           0        2.303563   -2.277475   -0.390036
     18          1           0        3.127868   -0.722662   -0.169732
     19          1           0        2.072287   -1.350370    1.107940
 ---------------------------------------------------------------------

 SCF Done:  E(RB3LYP) =  -423.184454342     A.U. after    1 cycles

 The electronic state is 1-A.
 Alpha  occ. eigenvalues --  -19.15198 -19.13867 -10.26985 -10.24852 -10.24605
 Alpha  occ. eigenvalues --  -10.21145 -10.20032 -10.18751 -10.18179  -1.06766
 Alpha  occ. eigenvalues --   -1.04249  -0.81177  -0.77677  -0.71750  -0.68729
 Alpha  occ. eigenvalues --   -0.63103  -0.55987  -0.54024  -0.50826  -0.48269
 Alpha  occ. eigenvalues --   -0.45626  -0.44836  -0.42428  -0.41144  -0.40650
 Alpha  occ. eigenvalues --   -0.39789  -0.38250  -0.37172  -0.36393  -0.35295
 Alpha  occ. eigenvalues --   -0.32813  -0.32003  -0.28397  -0.22939
 Alpha virt. eigenvalues --   -0.01794   0.08636   0.09197   0.11043   0.11644
 Alpha virt. eigenvalues --    0.12987   0.13449   0.14501   0.15759   0.15915
 Alpha virt. eigenvalues --    0.16978   0.17954   0.18372   0.19949   0.20381

 Mulliken charges:
               1
     1  C   -0.428461
     2  C    0.003375
     3  C    0.058688
     4  O   -0.302187
     5  C   -0.051447
     6  C    0.446830
     7  O   -0.335453
     8  C   -0.105100
     9  C   -0.417404
    10  H    0.140450
    11  H    0.122442
    12  H    0.119947
    13  H    0.081237
    14  H    0.084913
    15  H    0.096212
    16  H    0.096403
    17  H    0.114803
    18  H    0.136997
    19  H    0.137756
 Sum of Mulliken charges =   0.00000

 Dipole moment (field-independent basis, Debye):
    X=             -1.9448    Y=             -1.6786    Z=             -1.4681  Tot=              2.9589
 Quadrupole moment (field-independent basis, Debye-Ang):
   XX=            -54.2155   YY=            -55.3362   ZZ=            -54.0467
   XY=             -5.3501   XZ=              0.8490   YZ=              2.2042

  Exact polarizability:  88.071  -0.256  75.714  -0.700   2.318  62.481
 Approx polarizability: 112.948   7.089 117.515  -2.457   1.209 102.524

                      1                      2                      3
                      A                      A                      A
 Frequencies --    121.9645               179.3586               202.0836
 Red. masses --      4.7896                 2.9466                 2.2490
 Frc consts  --      0.0420                 0.0558                 0.0541
 IR Inten    --      3.1188                 0.2133                 1.3600

                      4                      5                      6
                      A                      A                      A
 Frequencies --    218.4803               236.8461               259.9649
 Red. masses --      1.1150                 1.0978                 2.7989
 Frc consts  --      0.0314                 0.0363                 0.1114
 IR Inten    --      0.1585                 0.0686                 2.8298

                      7                      8                      9
                      A                      A                      A
 Frequencies --    315.5443               447.8001               455.1694
 Red. masses --      4.1795                 3.6507                 3.8363
 Frc consts  --      0.2452                 0.4313                 0.4683
 IR Inten    --      6.1863                 0.4620                 2.6364

                     10                     11                     12
                      A                      A                      A
 Frequencies --    568.4464               656.3493               702.4159
 Red. masses --      5.8724                 4.2478                 4.0883
 Frc consts  --      1.1180                 1.0782                 1.1885
 IR Inten    --      9.6525                 8.8155                 2.7241

                     13                     14                     15
                      A                      A                      A
 Frequencies --    784.7036               800.3361               850.9009
 Red. masses --      2.7362                 2.2710                 3.0093
 Frc consts  --      0.9927                 0.8571                 1.2837
 IR Inten    --      2.9025                 2.6713                 7.5040

                     16                     17                     18
                      A                      A                      A
 Frequencies --    865.3188               883.3060               917.8353
 Red. masses --      3.2853                 2.5678                 3.4441
 Frc consts  --      1.4494                 1.1804                 1.7094
 IR Inten    --     19.1970                22.3854                27.2715

                     19                     20                     21
                      A                      A                      A
 Frequencies --    970.7766              1028.8501              1038.2627
 Red. masses --      3.6902                 1.7822                 1.3405
 Frc consts  --      2.0490                 1.1115                 0.8514
 IR Inten    --      7.8758                 1.4729                 2.1429

                     22                     23                     24
                      A                      A                      A
 Frequencies --   1053.0875              1079.5386              1094.6607
 Red. masses --      1.4676                 1.9379                 1.9657
 Frc consts  --      0.9589                 1.3306                 1.3878
 IR Inten    --      4.0750                 3.7652                16.7888

                     25                     26                     27
                      A                      A                      A
 Frequencies --   1111.1150              1161.6749              1188.9268
 Red. masses --      1.9513                 1.9372                 1.6955
 Frc consts  --      1.4193                 1.5402                 1.4120
 IR Inten    --      2.4478                 3.3912                 8.4499

                     28                     29                     30
                      A                      A                      A
 Frequencies --   1222.1969              1234.3416              1240.0192
 Red. masses --      1.7920                 1.6829                 1.5293
 Frc consts  --      1.5771                 1.5107                 1.3855
 IR Inten    --      1.1682                 5.1399                 0.3712

                     31                     32                     33
                      A                      A                      A
 Frequencies --   1264.1332              1305.4872              1344.0332
 Red. masses --      1.5337                 1.4476                 1.6743
 Frc consts  --      1.4440                 1.4536                 1.7820
 IR Inten    --      6.2406                 6.0415                 2.9797

                     34                     35                     36
                      A                      A                      A
 Frequencies --   1389.4394              1401.1902              1407.0568
 Red. masses --      1.4796                 1.2274                 1.3167
 Frc consts  --      1.6830                 1.4198                 1.5359
 IR Inten    --      2.8964                 2.3315                 1.8440

                     37                     38                     39
                      A                      A                      A
 Frequencies --   1492.4983              1494.2529              1503.8453
 Red. masses --      1.0457                 1.0469                 1.0484
 Frc consts  --      1.3725                 1.3773                 1.3970
 IR Inten    --      2.5813                 8.5236                 2.2091

                     40                     41                     42
                      A                      A                      A
 Frequencies --   1505.9796              1879.4435              3037.1345
 Red. masses --      1.0492                12.4892                 1.0445
 Frc consts  --      1.4020                25.9923                 5.6766
 IR Inten    --      4.1792               236.4955                28.1433

                     43                     44                     45
                      A                      A                      A
 Frequencies --   3040.1753              3041.8966              3050.3738
 Red. masses --      1.0431                 1.0670                 1.0826
 Frc consts  --      5.6801                 5.8170                 5.9351
 IR Inten    --     12.5094                13.9120                37.6776

                     46                     47                     48
                      A                      A                      A
 Frequencies --   3100.0713              3110.5917              3112.6118
 Red. masses --      1.1011                 1.1005                 1.0922
 Frc consts  --      6.2348                 6.2740                 6.2343
 IR Inten    --     17.6795                 5.2200                45.6579

                     49                     50                     51
                      A                      A                      A
 Frequencies --   3125.1357              3128.1614              3147.4009
 Red. masses --      1.1020                 1.1006                 1.0923
 Frc consts  --      6.3412                 6.3455                 6.3750
 IR Inten    --     11.7243                16.3507                20.9392

 - Thermochemistry -
 -------------------
 Temperature   298.150 Kelvin.  Pressure   1.00000 Atm.
 Atom     1 has atomic number  6 and mass  12.00000

 Molecular mass:   126.06808 amu.
 Principal axes and moments of inertia in atomic units:
                           1         2         3
     Eigenvalues --   622.550071250.356631532.84653
           X            0.99827  -0.05826   0.00761
           Y            0.05805   0.99800   0.02491
           Z           -0.00905  -0.02443   0.99966
 This molecule is an asymmetric top.
 Rotational symmetry number  1.
 Warning -- assumption of classical behavior for rotation
           may cause significant error
 Rotational temperatures (Kelvin)      0.13913     0.06927     0.05651
 Rotational constants (GHZ):           2.89895     1.44338     1.17738
 Zero-point vibrational energy     417324.4 (Joules/Mol)
                                   99.74292 (Kcal/Mol)
 Warning -- explicit consideration of  10 degrees of freedom as
           vibrations may cause significant error
 Vibrational temperatures:    175.48   258.06   290.75   314.34   340.77
          (Kelvin)            374.03   454.00   644.28   654.89   817.87
                              944.34  1010.62  1129.01  1151.50  1224.26
                             1245.00  1270.88  1320.56  1396.73  1480.28
                             1493.83  1515.16  1553.21  1574.97  1598.64
                             1671.39  1710.60  1758.47  1775.94  1784.11
                             1818.80  1878.30  1933.76  1999.09  2016.00
                             2024.44  2147.37  2149.89  2163.70  2166.77
                             2704.10  4369.75  4374.13  4376.61  4388.80
                             4460.31  4475.44  4478.35  4496.37  4500.72
                             4528.40

 Zero-point correction=                           0.158950 (Hartree/Particle)
 Thermal correction to Energy=                    0.167251
 Thermal correction to Enthalpy=                  0.168195
 Thermal correction to Gibbs Free Energy=         0.126383
 Sum of electronic and zero-point Energies=           -423.025504
 Sum of electronic and thermal Energies=              -423.017203
 Sum of electronic and thermal Enthalpies=            -423.016259
 Sum of electronic and thermal Free Energies=         -423.058071

                     E (Thermal)             CV                S
                      KCal/Mol        Cal/Mol-Kelvin    Cal/Mol-Kelvin
 Total                  104.952             31.931             88.001
 Electronic               0.000              0.000              0.000
 Translational            0.889              2.981             40.409
 Rotational               0.889              2.981             28.569
 Vibrational            103.174             25.969             19.023
 Vibration     1          0.609              1.931              3.069
 Vibration     2          0.629              1.868              2.335
 Vibration     3          0.639              1.837              2.114
 Vibration     4          0.646              1.813              1.972
 Vibration     5          0.656              1.784              1.826
 Vibration     6          0.668              1.746              1.662
 Vibration     7          0.703              1.644              1.333
 Vibration     8          0.807              1.366              0.802
 Vibration     9          0.814              1.349              0.780
 Vibration    10          0.924              1.100              0.507

 Optimization completed.
    -- Stationary point found.
 Normal termination of Gaussian 09 at Mon Jan 27 23:51:13 2020.
