 Gaussian 09, Revision D.01,
 Gaussian 09:  ES64L-G09RevD.01 24-Apr-2013

 -----------------------------
 # b3lyp 6-31G(2df,p) opt Freq
 -----------------------------

 -----
 titel
 -----
 Symbolic Z-matrix:
 Charge =  0 Multiplicity = 1

 SCF Done:  E(RB3LYP) =  -423.195188228     A.U. after   14 cycles
 Optimization completed.
    -- Stationary point found.
 Normal termination of Gaussian 09 at Tue Jan 28 08:14:20 2020.

 ----------------------------------------------------------------------
 #N Geom=AllCheck Guess=TCheck SCRF=Check GenChk RB3LYP/6-31G(2df,p) Fr
 eq
 ----------------------------------------------------------------------

 Structure from the checkpoint file:  "/scratch/puck/g09_0a1cfc08-0349-4248-88ae-ee4a3794b3fd/Gau-17785.chk"
 -----
 titel
 -----
 Charge =  0 Multiplicity = 1

                         Standard orientation:
 ---------------------------------------------------------------------
 Center     Atomic      Atomic             Coordinates (Angstroms)
 Number     Number       Type             X           Y           Z
 ---------------------------------------------------------------------
      1          6           0        2.551228   -0.741189   -0.011888
      2          6           0        1.145739   -0.339334   -0.468852
      3          6           0        0.981029    1.204041   -0.501291
      4          6           0       -0.486640    1.682693   -0.382502
      5          6           0       -1.248748    0.704360    0.534329
      6          8           0       -0.312567    0.085407    1.468978
      7          6           0        0.045729   -0.908393    0.460910
      8          6           0       -1.324148   -0.652833   -0.176076
      9          8           0       -2.101924   -1.246798   -0.857942
     10          1           0        3.316470   -0.282009   -0.646348
     11          1           0        2.728443   -0.415202    1.018779
     12          1           0        2.687576   -1.826658   -0.053659
     13          1           0        0.971315   -0.752816   -1.471298
     14          1           0        1.532944    1.607881    0.351802
     15          1           0        1.448106    1.613982   -1.401497
     16          1           0       -0.515081    2.696551    0.028267
     17          1           0       -0.987107    1.718832   -1.357479
     18          1           0       -2.131556    1.120232    1.024400
     19          1           0        0.279686   -1.885740    0.890976
 ---------------------------------------------------------------------

 SCF Done:  E(RB3LYP) =  -423.195188228     A.U. after    1 cycles

 The electronic state is 1-A.
 Alpha  occ. eigenvalues --  -19.14926 -19.14853 -10.27402 -10.24413 -10.24185
 Alpha  occ. eigenvalues --  -10.20359 -10.19805 -10.19248 -10.18313  -1.06897
 Alpha  occ. eigenvalues --   -1.04263  -0.81794  -0.77349  -0.71232  -0.68817
 Alpha  occ. eigenvalues --   -0.62008  -0.58900  -0.52923  -0.50560  -0.48208
 Alpha  occ. eigenvalues --   -0.46759  -0.44131  -0.43054  -0.41763  -0.40260
 Alpha  occ. eigenvalues --   -0.39617  -0.38033  -0.36903  -0.36494  -0.34786
 Alpha  occ. eigenvalues --   -0.33337  -0.32239  -0.26155  -0.24726
 Alpha virt. eigenvalues --   -0.02025   0.06199   0.10222   0.10777   0.11741
 Alpha virt. eigenvalues --    0.13471   0.14487   0.15145   0.15194   0.16277
 Alpha virt. eigenvalues --    0.16614   0.17215   0.19091   0.21799   0.22472

 Mulliken charges:
               1
     1  C   -0.416570
     2  C    0.013726
     3  C   -0.190984
     4  C   -0.253641
     5  C   -0.033637
     6  O   -0.295091
     7  C   -0.053211
     8  C    0.426539
     9  O   -0.306489
    10  H    0.117805
    11  H    0.130183
    12  H    0.116577
    13  H    0.091543
    14  H    0.118484
    15  H    0.101683
    16  H    0.112793
    17  H    0.118967
    18  H    0.103217
    19  H    0.098107
 Sum of Mulliken charges =   0.00000

 Dipole moment (field-independent basis, Debye):
    X=              1.7860    Y=              1.3558    Z=             -0.2981  Tot=              2.2621
 Quadrupole moment (field-independent basis, Debye-Ang):
   XX=            -55.7643   YY=            -51.9710   ZZ=            -56.4615
   XY=             -4.7176   XZ=             -3.3298   YZ=             -2.2598

  Exact polarizability:  83.121  -2.631  76.750   0.992   0.553  64.248
 Approx polarizability: 112.867   1.011 110.924   6.763   5.562 106.763

                      1                      2                      3
                      A                      A                      A
 Frequencies --    116.8576               126.1988               215.3322
 Red. masses --      2.8697                 5.5679                 2.0110
 Frc consts  --      0.0231                 0.0522                 0.0549
 IR Inten    --      0.3539                 4.0330                 1.3180

                      4                      5                      6
                      A                      A                      A
 Frequencies --    248.6960               277.8480               378.0240
 Red. masses --      1.1674                 2.4581                 2.7763
 Frc consts  --      0.0425                 0.1118                 0.2337
 IR Inten    --      0.2833                 0.9773                 2.3008

                      7                      8                      9
                      A                      A                      A
 Frequencies --    423.1652               469.9945               525.8018
 Red. masses --      4.4063                 4.2959                 4.9042
 Frc consts  --      0.4649                 0.5591                 0.7988
 IR Inten    --      5.9896                 4.1844                 1.6715

                     10                     11                     12
                      A                      A                      A
 Frequencies --    558.3961               672.0794               755.0264
 Red. masses --      3.3647                 2.7268                 4.7853
 Frc consts  --      0.6181                 0.7257                 1.6072
 IR Inten    --      1.8131                 0.9481                 0.3343

                     13                     14                     15
                      A                      A                      A
 Frequencies --    787.1634               837.1540               865.9602
 Red. masses --      1.6882                 3.6071                 3.1713
 Frc consts  --      0.6163                 1.4894                 1.4011
 IR Inten    --      3.0130                 5.8444                 3.4948

                     16                     17                     18
                      A                      A                      A
 Frequencies --    898.4961               929.8409               956.8963
 Red. masses --      2.6804                 3.5019                 1.9699
 Frc consts  --      1.2749                 1.7839                 1.0627
 IR Inten    --     13.6874                71.5449                 8.8017

                     19                     20                     21
                      A                      A                      A
 Frequencies --    961.0882              1027.4030              1035.1398
 Red. masses --      1.6525                 3.1427                 2.2492
 Frc consts  --      0.8993                 1.9545                 1.4200
 IR Inten    --      4.8123                 6.9548                 0.6388

                     22                     23                     24
                      A                      A                      A
 Frequencies --   1053.3296              1086.7506              1098.3443
 Red. masses --      1.9356                 2.1915                 1.6787
 Frc consts  --      1.2653                 1.5250                 1.1931
 IR Inten    --      2.8766                 7.4540                18.9492

                     25                     26                     27
                      A                      A                      A
 Frequencies --   1117.9531              1186.7082              1191.8659
 Red. masses --      2.1774                 1.6115                 1.5110
 Frc consts  --      1.6034                 1.3371                 1.2646
 IR Inten    --      1.4689                 0.3326                 1.7763

                     28                     29                     30
                      A                      A                      A
 Frequencies --   1229.8964              1274.9034              1284.1887
 Red. masses --      1.7096                 1.3672                 1.4711
 Frc consts  --      1.5236                 1.3093                 1.4293
 IR Inten    --      1.7853                 0.5644                 2.4461

                     31                     32                     33
                      A                      A                      A
 Frequencies --   1299.2342              1334.0740              1351.1992
 Red. masses --      1.4061                 1.3501                 1.2683
 Frc consts  --      1.3985                 1.4157                 1.3644
 IR Inten    --      0.6882                 1.4289                 2.5434

                     34                     35                     36
                      A                      A                      A
 Frequencies --   1360.4174              1387.2543              1410.8713
 Red. masses --      1.4087                 1.4073                 1.2235
 Frc consts  --      1.5361                 1.5957                 1.4349
 IR Inten    --      3.2733                 0.4403                 1.8521

                     37                     38                     39
                      A                      A                      A
 Frequencies --   1481.6586              1495.8672              1499.5105
 Red. masses --      1.0756                 1.0696                 1.0626
 Frc consts  --      1.3912                 1.4101                 1.4077
 IR Inten    --      1.3281                 4.6170                 3.7441

                     40                     41                     42
                      A                      A                      A
 Frequencies --   1499.8071              1919.0226              3017.0020
 Red. masses --      1.0514                12.3881                 1.0833
 Frc consts  --      1.3935                26.8790                 5.8095
 IR Inten    --      2.9788               290.0027                14.5782

                     43                     44                     45
                      A                      A                      A
 Frequencies --   3030.1695              3038.5807              3058.4606
 Red. masses --      1.0347                 1.0610                 1.0618
 Frc consts  --      5.5975                 5.7715                 5.8522
 IR Inten    --     22.6011                23.2637                19.9978

                     46                     47                     48
                      A                      A                      A
 Frequencies --   3078.9519              3086.4319              3099.6992
 Red. masses --      1.1003                 1.0880                 1.0970
 Frc consts  --      6.1456                 6.1066                 6.2101
 IR Inten    --     19.3662                22.1714                21.2346

                     49                     50                     51
                      A                      A                      A
 Frequencies --   3101.2716              3101.8307              3106.1611
 Red. masses --      1.0970                 1.1016                 1.1024
 Frc consts  --      6.2166                 6.2444                 6.2669
 IR Inten    --      5.1698                31.7750                46.1264

 - Thermochemistry -
 -------------------
 Temperature   298.150 Kelvin.  Pressure   1.00000 Atm.
 Atom     1 has atomic number  6 and mass  12.00000

 Molecular mass:   126.06808 amu.
 Principal axes and moments of inertia in atomic units:
                           1         2         3
     Eigenvalues --   709.337721166.576691381.28706
           X            0.99757  -0.06831  -0.01406
           Y            0.06742   0.99614  -0.05629
           Z            0.01785   0.05520   0.99832
 This molecule is an asymmetric top.
 Rotational symmetry number  1.
 Warning -- assumption of classical behavior for rotation
           may cause significant error
 Rotational temperatures (Kelvin)      0.12211     0.07425     0.06271
 Rotational constants (GHZ):           2.54426     1.54704     1.30656
 Zero-point vibrational energy     420774.3 (Joules/Mol)
                                  100.56748 (Kcal/Mol)
 Warning -- explicit consideration of  10 degrees of freedom as
           vibrations may cause significant error
 Vibrational temperatures:    168.13   181.57   309.81   357.82   399.76
          (Kelvin)            543.89   608.84   676.22   756.51   803.41
                              966.97  1086.31  1132.55  1204.48  1245.92
                             1292.73  1337.83  1376.76  1382.79  1478.20
                             1489.33  1515.50  1563.59  1580.27  1608.48
                             1707.41  1714.83  1769.54  1834.30  1847.66
                             1869.31  1919.43  1944.07  1957.33  1995.95
                             2029.93  2131.77  2152.22  2157.46  2157.89
                             2761.04  4340.79  4359.73  4371.83  4400.44
                             4429.92  4440.68  4459.77  4462.03  4462.84
                             4469.07

 Zero-point correction=                           0.160264 (Hartree/Particle)
 Thermal correction to Energy=                    0.168152
 Thermal correction to Enthalpy=                  0.169096
 Thermal correction to Gibbs Free Energy=         0.127957
 Sum of electronic and zero-point Energies=           -423.034924
 Sum of electronic and thermal Energies=              -423.027036
 Sum of electronic and thermal Enthalpies=            -423.026092
 Sum of electronic and thermal Free Energies=         -423.067231

                     E (Thermal)             CV                S
                      KCal/Mol        Cal/Mol-Kelvin    Cal/Mol-Kelvin
 Total                  105.517             30.761             86.584
 Electronic               0.000              0.000              0.000
 Translational            0.889              2.981             40.409
 Rotational               0.889              2.981             28.526
 Vibrational            103.740             24.800             17.649
 Vibration     1          0.608              1.935              3.152
 Vibration     2          0.611              1.927              3.003
 Vibration     3          0.645              1.818              1.998
 Vibration     4          0.662              1.765              1.740
 Vibration     5          0.679              1.714              1.547
 Vibration     6          0.748              1.517              1.047
 Vibration     7          0.785              1.420              0.881
 Vibration     8          0.827              1.317              0.738
 Vibration     9          0.881              1.193              0.597
 Vibration    10          0.914              1.121              0.527

 Optimization completed.
    -- Stationary point found.
 Normal termination of Gaussian 09 at Tue Jan 28 09:00:48 2020.
