 Gaussian 09, Revision D.01,
 Gaussian 09:  ES64L-G09RevD.01 24-Apr-2013

 -----------------------------
 # b3lyp 6-31G(2df,p) opt Freq
 -----------------------------

 -----
 titel
 -----
 Symbolic Z-matrix:
 Charge =  0 Multiplicity = 1

 SCF Done:  E(RB3LYP) =  -423.185174257     A.U. after   14 cycles
 Optimization completed.
    -- Stationary point found.
 Normal termination of Gaussian 09 at Mon Jan 27 12:22:02 2020.

 ----------------------------------------------------------------------
 #N Geom=AllCheck Guess=TCheck SCRF=Check GenChk RB3LYP/6-31G(2df,p) Fr
 eq
 ----------------------------------------------------------------------

 Structure from the checkpoint file:  "/scratch/puck/g09_197e9ebb-f1b3-4ba7-b4f5-24117661d8ac/Gau-73115.chk"
 -----
 titel
 -----
 Charge =  0 Multiplicity = 1

                         Standard orientation:
 ---------------------------------------------------------------------
 Center     Atomic      Atomic             Coordinates (Angstroms)
 Number     Number       Type             X           Y           Z
 ---------------------------------------------------------------------
      1          6           0        2.403729    0.087034   -0.090426
      2          6           0        1.553950   -1.218027    0.016543
      3          6           0        0.160621   -0.667652   -0.256484
      4          8           0       -0.936629   -1.376466    0.264623
      5          6           0       -2.155568   -0.719529   -0.083539
      6          6           0       -2.090478    0.792229   -0.127524
      7          6           0       -0.969493    1.491643    0.056896
      8          6           0        0.265560    0.713543    0.381610
      9          8           0        1.492581    1.206165   -0.124796
     10          1           0        3.085096    0.187613    0.764211
     11          1           0        2.999921    0.123962   -1.006851
     12          1           0        1.873920   -1.984816   -0.691630
     13          1           0        1.595524   -1.642007    1.024239
     14          1           0        0.034985   -0.517284   -1.341365
     15          1           0       -2.507334   -1.083314   -1.065940
     16          1           0       -2.898334   -1.044802    0.654771
     17          1           0       -3.035247    1.286461   -0.340076
     18          1           0       -0.943893    2.576046    0.023229
     19          1           0        0.337815    0.585107    1.478347
 ---------------------------------------------------------------------

 SCF Done:  E(RB3LYP) =  -423.185174257     A.U. after    1 cycles

 The electronic state is 1-A.
 Alpha  occ. eigenvalues --  -19.14403 -19.13577 -10.23758 -10.22962 -10.22749
 Alpha  occ. eigenvalues --  -10.22471 -10.19049 -10.18645 -10.18584  -1.04519
 Alpha  occ. eigenvalues --   -1.02649  -0.80111  -0.78211  -0.73647  -0.65686
 Alpha  occ. eigenvalues --   -0.61390  -0.59252  -0.54550  -0.49913  -0.49101
 Alpha  occ. eigenvalues --   -0.47478  -0.46141  -0.43608  -0.42543  -0.40547
 Alpha  occ. eigenvalues --   -0.39717  -0.37391  -0.36490  -0.34787  -0.33070
 Alpha  occ. eigenvalues --   -0.30158  -0.26819  -0.24881  -0.23860
 Alpha virt. eigenvalues --    0.01271   0.08669   0.09535   0.11260   0.12399
 Alpha virt. eigenvalues --    0.14098   0.14547   0.16010   0.16597   0.16995
 Alpha virt. eigenvalues --    0.18022   0.18224   0.19202   0.21333   0.22671

 Mulliken charges:
               1
     1  C   -0.071385
     2  C   -0.319699
     3  C    0.149202
     4  O   -0.272115
     5  C   -0.129115
     6  C   -0.058074
     7  C   -0.148071
     8  C    0.115270
     9  O   -0.284269
    10  H    0.102426
    11  H    0.112026
    12  H    0.109178
    13  H    0.117490
    14  H    0.073691
    15  H    0.105683
    16  H    0.121815
    17  H    0.098254
    18  H    0.102413
    19  H    0.075282
 Sum of Mulliken charges =   0.00000

 Dipole moment (field-independent basis, Debye):
    X=             -0.5169    Y=             -0.3866    Z=             -0.2472  Tot=              0.6912
 Quadrupole moment (field-independent basis, Debye-Ang):
   XX=            -47.3712   YY=            -56.5360   ZZ=            -53.0431
   XY=             -3.8989   XZ=              0.9281   YZ=              1.4725

  Exact polarizability:  97.664   0.770  72.904   2.408   1.086  58.899
 Approx polarizability: 130.075   8.878 108.740   4.036   0.329  93.325

                      1                      2                      3
                      A                      A                      A
 Frequencies --     99.5944               157.2788               202.3559
 Red. masses --      2.0052                 2.6997                 2.9650
 Frc consts  --      0.0117                 0.0393                 0.0715
 IR Inten    --      1.8176                 0.7415                 3.7588

                      4                      5                      6
                      A                      A                      A
 Frequencies --    314.6162               365.9496               433.3068
 Red. masses --      3.2829                 3.5208                 2.8258
 Frc consts  --      0.1915                 0.2778                 0.3126
 IR Inten    --      6.0035                 6.1400                 1.9395

                      7                      8                      9
                      A                      A                      A
 Frequencies --    466.0848               545.5180               566.2717
 Red. masses --      4.8739                 4.6922                 2.8540
 Frc consts  --      0.6238                 0.8227                 0.5392
 IR Inten    --      0.3245                 0.5495                 4.7564

                     10                     11                     12
                      A                      A                      A
 Frequencies --    667.5480               701.5490               805.2345
 Red. masses --      2.9166                 2.1876                 2.4434
 Frc consts  --      0.7657                 0.6344                 0.9335
 IR Inten    --      6.6733                15.8464                 7.2289

                     13                     14                     15
                      A                      A                      A
 Frequencies --    835.8423               885.5887               917.8540
 Red. masses --      1.6585                 3.4141                 1.8613
 Frc consts  --      0.6827                 1.5776                 0.9239
 IR Inten    --      3.2870                 0.4781                 3.6507

                     16                     17                     18
                      A                      A                      A
 Frequencies --    933.5658               978.4539               984.1021
 Red. masses --      2.8953                 1.9303                 2.1003
 Frc consts  --      1.4867                 1.0888                 1.1984
 IR Inten    --     10.7098                 6.3968                23.1248

                     19                     20                     21
                      A                      A                      A
 Frequencies --   1020.7100              1030.4547              1067.9681
 Red. masses --      2.6175                 2.1250                 2.2001
 Frc consts  --      1.6067                 1.3294                 1.4785
 IR Inten    --     20.0039                23.6093                23.2721

                     22                     23                     24
                      A                      A                      A
 Frequencies --   1109.3548              1131.2433              1144.2943
 Red. masses --      2.5906                 2.6089                 2.6115
 Frc consts  --      1.8784                 1.9671                 2.0147
 IR Inten    --     22.6317                26.4771                65.2989

                     25                     26                     27
                      A                      A                      A
 Frequencies --   1167.2949              1193.1907              1209.1871
 Red. masses --      2.7353                 1.4919                 1.3740
 Frc consts  --      2.1959                 1.2514                 1.1837
 IR Inten    --     71.5939                 4.8394                21.4815

                     28                     29                     30
                      A                      A                      A
 Frequencies --   1235.5819              1261.8810              1286.5203
 Red. masses --      1.1491                 1.1138                 1.4253
 Frc consts  --      1.0336                 1.0449                 1.3899
 IR Inten    --      0.6584                 0.8425                19.2805

                     31                     32                     33
                      A                      A                      A
 Frequencies --   1293.1280              1348.1435              1376.4103
 Red. masses --      1.2765                 1.2070                 1.2807
 Frc consts  --      1.2577                 1.2925                 1.4295
 IR Inten    --      3.2741                14.8752                 6.9021

                     34                     35                     36
                      A                      A                      A
 Frequencies --   1381.8719              1390.4872              1410.1273
 Red. masses --      1.4928                 1.3284                 1.7540
 Frc consts  --      1.6796                 1.5132                 2.0550
 IR Inten    --      1.5653                15.9115                24.1341

                     37                     38                     39
                      A                      A                      A
 Frequencies --   1430.6925              1488.2865              1499.1491
 Red. masses --      1.4898                 1.0988                 1.1021
 Frc consts  --      1.7967                 1.4340                 1.4593
 IR Inten    --      0.8450                 3.3927                 3.5388

                     40                     41                     42
                      A                      A                      A
 Frequencies --   1523.0020              1701.4541              2915.1597
 Red. masses --      1.0990                 6.9267                 1.0790
 Frc consts  --      1.5019                11.8146                 5.4025
 IR Inten    --      0.5057                 0.6078                32.7164

                     43                     44                     45
                      A                      A                      A
 Frequencies --   2945.7446              2969.6039              3017.8176
 Red. masses --      1.0729                 1.0831                 1.0668
 Frc consts  --      5.4855                 5.6275                 5.7241
 IR Inten    --     59.2539                49.1293                70.7351

                     46                     47                     48
                      A                      A                      A
 Frequencies --   3048.5816              3065.2184              3077.4632
 Red. masses --      1.0872                 1.0616                 1.0983
 Frc consts  --      5.9534                 5.8769                 6.1284
 IR Inten    --     28.7271                23.8940                25.0440

                     49                     50                     51
                      A                      A                      A
 Frequencies --   3119.5685              3158.3738              3187.8943
 Red. masses --      1.1051                 1.0856                 1.0969
 Frc consts  --      6.3363                 6.3802                 6.5679
 IR Inten    --     31.2804                 7.5757                17.5037

 - Thermochemistry -
 -------------------
 Temperature   298.150 Kelvin.  Pressure   1.00000 Atm.
 Atom     1 has atomic number  6 and mass  12.00000

 Molecular mass:   126.06808 amu.
 Principal axes and moments of inertia in atomic units:
                           1         2         3
     Eigenvalues --   551.124831184.997191642.14699
           X            0.99945  -0.03250   0.00601
           Y            0.03243   0.99942   0.01029
           Z           -0.00634  -0.01009   0.99993
 This molecule is an asymmetric top.
 Rotational symmetry number  1.
 Warning -- assumption of classical behavior for rotation
           may cause significant error
 Rotational temperatures (Kelvin)      0.15716     0.07309     0.05274
 Rotational constants (GHZ):           3.27465     1.52299     1.09901
 Zero-point vibrational energy     425072.5 (Joules/Mol)
                                  101.59477 (Kcal/Mol)
 Warning -- explicit consideration of   9 degrees of freedom as
           vibrations may cause significant error
 Vibrational temperatures:    143.29   226.29   291.14   452.66   526.52
          (Kelvin)            623.43   670.59   784.88   814.74   960.45
                             1009.37  1158.55  1202.59  1274.16  1320.59
                             1343.19  1407.78  1415.90  1468.57  1482.59
                             1536.57  1596.11  1627.60  1646.38  1679.47
                             1716.73  1739.75  1777.72  1815.56  1851.01
                             1860.52  1939.68  1980.34  1988.20  2000.60
                             2028.86  2058.44  2141.31  2156.94  2191.26
                             2448.01  4194.26  4238.26  4272.59  4341.96
                             4386.22  4410.16  4427.78  4488.36  4544.19
                             4586.66

 Zero-point correction=                           0.161902 (Hartree/Particle)
 Thermal correction to Energy=                    0.169252
 Thermal correction to Enthalpy=                  0.170196
 Thermal correction to Gibbs Free Energy=         0.130012
 Sum of electronic and zero-point Energies=           -423.023273
 Sum of electronic and thermal Energies=              -423.015923
 Sum of electronic and thermal Enthalpies=            -423.014979
 Sum of electronic and thermal Free Energies=         -423.055163

                     E (Thermal)             CV                S
                      KCal/Mol        Cal/Mol-Kelvin    Cal/Mol-Kelvin
 Total                  106.207             29.002             84.574
 Electronic               0.000              0.000              0.000
 Translational            0.889              2.981             40.409
 Rotational               0.889              2.981             28.463
 Vibrational            104.429             23.040             15.703
 Vibration     1          0.604              1.949              3.462
 Vibration     2          0.621              1.894              2.582
 Vibration     3          0.639              1.837              2.112
 Vibration     4          0.702              1.646              1.338
 Vibration     5          0.739              1.542              1.097
 Vibration     6          0.794              1.398              0.848
 Vibration     7          0.823              1.325              0.749
 Vibration     8          0.901              1.150              0.554
 Vibration     9          0.922              1.104              0.511

 Normal termination of Gaussian 09 at Mon Jan 27 13:09:21 2020.
