 Gaussian 09, Revision D.01,
 Gaussian 09:  ES64L-G09RevD.01 24-Apr-2013

 -----------------------------
 # b3lyp 6-31G(2df,p) opt Freq
 -----------------------------

 -----
 titel
 -----
 Symbolic Z-matrix:
 Charge =  0 Multiplicity = 1

 SCF Done:  E(RB3LYP) =  -423.200581524     A.U. after   14 cycles
 Optimization completed.
    -- Stationary point found.
 Normal termination of Gaussian 09 at Mon Jan 27 13:12:24 2020.

 ----------------------------------------------------------------------
 #N Geom=AllCheck Guess=TCheck SCRF=Check GenChk RB3LYP/6-31G(2df,p) Fr
 eq
 ----------------------------------------------------------------------

 Structure from the checkpoint file:  "/scratch/puck/g09_123aba0d-159d-458e-b2af-cd0eddc08588/Gau-48127.chk"
 -----
 titel
 -----
 Charge =  0 Multiplicity = 1

                         Standard orientation:
 ---------------------------------------------------------------------
 Center     Atomic      Atomic             Coordinates (Angstroms)
 Number     Number       Type             X           Y           Z
 ---------------------------------------------------------------------
      1          8           0        2.721691    0.002769   -0.332039
      2          6           0        1.577900   -0.085630    0.041600
      3          6           0        0.770650   -1.356401   -0.279182
      4          8           0       -0.427805   -1.515771    0.440573
      5          6           0       -1.643720   -1.135065   -0.181577
      6          6           0       -2.106349    0.285726    0.195915
      7          6           0       -1.324472    1.399902   -0.452785
      8          6           0       -0.061291    1.735870   -0.182388
      9          6           0        0.849740    1.028930    0.791699
     10          1           0        0.601819   -1.379552   -1.365965
     11          1           0        1.423256   -2.203259   -0.038192
     12          1           0       -1.564325   -1.235274   -1.273563
     13          1           0       -2.394884   -1.853134    0.166725
     14          1           0       -3.163056    0.373115   -0.080081
     15          1           0       -2.064180    0.360877    1.289849
     16          1           0       -1.845697    1.967423   -1.220412
     17          1           0        0.400024    2.541792   -0.747495
     18          1           0        1.604015    1.709637    1.191380
     19          1           0        0.277186    0.582403    1.609797
 ---------------------------------------------------------------------

 SCF Done:  E(RB3LYP) =  -423.200581524     A.U. after    1 cycles

 The electronic state is 1-A.
 Alpha  occ. eigenvalues --  -19.15209 -19.13001 -10.26928 -10.24053 -10.23884
 Alpha  occ. eigenvalues --  -10.19405 -10.19360 -10.19212 -10.19035  -1.04857
 Alpha  occ. eigenvalues --   -1.03695  -0.81702  -0.78292  -0.71303  -0.69764
 Alpha  occ. eigenvalues --   -0.62195  -0.55453  -0.53092  -0.50528  -0.49662
 Alpha  occ. eigenvalues --   -0.48617  -0.44747  -0.43660  -0.43032  -0.41900
 Alpha  occ. eigenvalues --   -0.39793  -0.38259  -0.36632  -0.35001  -0.34275
 Alpha  occ. eigenvalues --   -0.31483  -0.29857  -0.25485  -0.23151
 Alpha virt. eigenvalues --   -0.02396   0.02221   0.08505   0.10020   0.11098
 Alpha virt. eigenvalues --    0.13455   0.13864   0.14690   0.15551   0.16704
 Alpha virt. eigenvalues --    0.17811   0.18857   0.19576   0.20597   0.22055

 Mulliken charges:
               1
     1  O   -0.295616
     2  C    0.352622
     3  C   -0.171932
     4  O   -0.239973
     5  C   -0.065618
     6  C   -0.256369
     7  C   -0.053683
     8  C   -0.063035
     9  C   -0.343396
    10  H    0.124893
    11  H    0.136768
    12  H    0.097728
    13  H    0.108240
    14  H    0.102830
    15  H    0.122265
    16  H    0.092594
    17  H    0.102647
    18  H    0.121277
    19  H    0.127758
 Sum of Mulliken charges =   0.00000

 Dipole moment (field-independent basis, Debye):
    X=             -2.8487    Y=              0.1361    Z=             -0.2759  Tot=              2.8652
 Quadrupole moment (field-independent basis, Debye-Ang):
   XX=            -58.7840   YY=            -52.6686   ZZ=            -52.3035
   XY=              0.0131   XZ=              2.8677   YZ=              1.0368

  Exact polarizability:  98.331   2.308  75.467   2.317  -0.731  60.503
 Approx polarizability: 148.797   5.357 103.661   2.671  -2.812  96.338

                      1                      2                      3
                      A                      A                      A
 Frequencies --     60.7743               142.4168               185.7278
 Red. masses --      3.6639                 2.8127                 3.5964
 Frc consts  --      0.0080                 0.0336                 0.0731
 IR Inten    --      4.3878                 0.2756                 2.8267

                      4                      5                      6
                      A                      A                      A
 Frequencies --    246.9631               257.4841               389.6071
 Red. masses --      3.2935                 3.2945                 2.8900
 Frc consts  --      0.1184                 0.1287                 0.2585
 IR Inten    --      2.7545                 1.7202                 2.2954

                      7                      8                      9
                      A                      A                      A
 Frequencies --    411.9602               475.6363               498.2521
 Red. masses --      2.0812                 3.9749                 2.5932
 Frc consts  --      0.2081                 0.5298                 0.3793
 IR Inten    --      5.1481                15.6710                 3.4485

                     10                     11                     12
                      A                      A                      A
 Frequencies --    531.9857               544.5941               629.5338
 Red. masses --      2.9236                 2.3265                 2.6520
 Frc consts  --      0.4875                 0.4065                 0.6193
 IR Inten    --      3.8356                 1.1814                 3.7757

                     13                     14                     15
                      A                      A                      A
 Frequencies --    721.5808               790.0439               810.6168
 Red. masses --      2.0106                 2.2559                 2.2717
 Frc consts  --      0.6168                 0.8296                 0.8795
 IR Inten    --     31.9652                12.2183                 6.3320

                     16                     17                     18
                      A                      A                      A
 Frequencies --    889.9778               930.8184               978.1871
 Red. masses --      2.8288                 1.9656                 2.6357
 Frc consts  --      1.3201                 1.0034                 1.4859
 IR Inten    --      3.3219                 4.3817                14.7558

                     19                     20                     21
                      A                      A                      A
 Frequencies --    994.5302              1004.4940              1013.7433
 Red. masses --      2.2525                 1.3733                 2.2190
 Frc consts  --      1.3126                 0.8164                 1.3436
 IR Inten    --      6.4667                 1.5844                 3.6535

                     22                     23                     24
                      A                      A                      A
 Frequencies --   1049.4369              1092.6628              1131.6491
 Red. masses --      2.5028                 2.0006                 2.8253
 Frc consts  --      1.6240                 1.4073                 2.1317
 IR Inten    --      7.7355                 4.4347                36.0482

                     25                     26                     27
                      A                      A                      A
 Frequencies --   1165.8180              1221.4246              1259.4511
 Red. masses --      2.5269                 1.3485                 1.5000
 Frc consts  --      2.0234                 1.1853                 1.4019
 IR Inten    --     86.3318                17.6145                35.7981

                     28                     29                     30
                      A                      A                      A
 Frequencies --   1269.3341              1283.3828              1298.7531
 Red. masses --      1.3067                 1.2016                 1.3197
 Frc consts  --      1.2404                 1.1661                 1.3115
 IR Inten    --      2.5555                 5.9309                49.5147

                     31                     32                     33
                      A                      A                      A
 Frequencies --   1310.9614              1356.2482              1366.4650
 Red. masses --      1.2429                 1.3053                 1.2424
 Frc consts  --      1.2586                 1.4146                 1.3668
 IR Inten    --      7.8754                 9.6732                 0.5275

                     34                     35                     36
                      A                      A                      A
 Frequencies --   1399.5507              1424.8324              1450.7688
 Red. masses --      1.2585                 1.3237                 1.0875
 Frc consts  --      1.4523                 1.5833                 1.3486
 IR Inten    --      4.1964                 8.1958                 5.3257

                     37                     38                     39
                      A                      A                      A
 Frequencies --   1462.7518              1481.1521              1494.9494
 Red. masses --      1.1179                 1.1038                 1.0990
 Frc consts  --      1.4093                 1.4267                 1.4471
 IR Inten    --      5.1385                 8.9877                 4.9904

                     40                     41                     42
                      A                      A                      A
 Frequencies --   1711.0754              1816.6459              2999.3875
 Red. masses --      6.7588                11.5344                 1.0627
 Frc consts  --     11.6589                22.4277                 5.6328
 IR Inten    --      9.2734               196.4493                28.8442

                     43                     44                     45
                      A                      A                      A
 Frequencies --   3003.4795              3028.0145              3060.4348
 Red. masses --      1.0632                 1.0620                 1.0572
 Frc consts  --      5.6509                 5.7370                 5.8339
 IR Inten    --     37.1538                13.0812                 9.8977

                     46                     47                     48
                      A                      A                      A
 Frequencies --   3063.9476              3070.2657              3073.3333
 Red. masses --      1.1002                 1.0978                 1.0999
 Frc consts  --      6.0856                 6.0969                 6.1207
 IR Inten    --     49.9988                19.4383                22.0931

                     49                     50                     51
                      A                      A                      A
 Frequencies --   3123.8599              3145.0302              3169.9504
 Red. masses --      1.1039                 1.0851                 1.0954
 Frc consts  --      6.3468                 6.3235                 6.4855
 IR Inten    --      5.6690                 6.6894                24.4970

 - Thermochemistry -
 -------------------
 Temperature   298.150 Kelvin.  Pressure   1.00000 Atm.
 Atom     1 has atomic number  8 and mass  15.99491

 Molecular mass:   126.06808 amu.
 Principal axes and moments of inertia in atomic units:
                           1         2         3
     Eigenvalues --   720.911041189.671281708.23313
           X            0.99994   0.00517   0.00950
           Y           -0.00532   0.99986   0.01600
           Z           -0.00942  -0.01605   0.99983
 This molecule is an asymmetric top.
 Rotational symmetry number  1.
 Warning -- assumption of classical behavior for rotation
           may cause significant error
 Rotational temperatures (Kelvin)      0.12014     0.07280     0.05070
 Rotational constants (GHZ):           2.50342     1.51701     1.05650
 Zero-point vibrational energy     420451.2 (Joules/Mol)
                                  100.49024 (Kcal/Mol)
 Warning -- explicit consideration of  11 degrees of freedom as
           vibrations may cause significant error
 Vibrational temperatures:     87.44   204.91   267.22   355.32   370.46
          (Kelvin)            560.56   592.72   684.33   716.87   765.41
                              783.55   905.76  1038.19  1136.70  1166.30
                             1280.48  1339.24  1407.39  1430.91  1445.24
                             1458.55  1509.90  1572.10  1628.19  1677.35
                             1757.36  1812.07  1826.29  1846.50  1868.61
                             1886.18  1951.34  1966.04  2013.64  2050.01
                             2087.33  2104.57  2131.04  2150.90  2461.85
                             2613.74  4315.44  4321.33  4356.63  4403.28
                             4408.33  4417.42  4421.84  4494.53  4524.99
                             4560.85

 Zero-point correction=                           0.160141 (Hartree/Particle)
 Thermal correction to Energy=                    0.168362
 Thermal correction to Enthalpy=                  0.169306
 Thermal correction to Gibbs Free Energy=         0.127096
 Sum of electronic and zero-point Energies=           -423.040440
 Sum of electronic and thermal Energies=              -423.032220
 Sum of electronic and thermal Enthalpies=            -423.031276
 Sum of electronic and thermal Free Energies=         -423.073486

                     E (Thermal)             CV                S
                      KCal/Mol        Cal/Mol-Kelvin    Cal/Mol-Kelvin
 Total                  105.648             31.502             88.839
 Electronic               0.000              0.000              0.000
 Translational            0.889              2.981             40.409
 Rotational               0.889              2.981             28.773
 Vibrational            103.871             25.541             19.657
 Vibration     1          0.597              1.973              4.432
 Vibration     2          0.616              1.911              2.771
 Vibration     3          0.632              1.859              2.270
 Vibration     4          0.661              1.768              1.752
 Vibration     5          0.667              1.750              1.679
 Vibration     6          0.758              1.492              1.002
 Vibration     7          0.776              1.444              0.920
 Vibration     8          0.832              1.304              0.722
 Vibration     9          0.854              1.254              0.663
 Vibration    10          0.887              1.179              0.583
 Vibration    11          0.900              1.152              0.555

 Optimization completed.
    -- Stationary point found.
 Normal termination of Gaussian 09 at Mon Jan 27 13:55:05 2020.
