 Gaussian 09, Revision D.01,
 Gaussian 09:  ES64L-G09RevD.01 24-Apr-2013

 -----------------------------
 # b3lyp 6-31G(2df,p) opt Freq
 -----------------------------

 -----
 titel
 -----
 Symbolic Z-matrix:
 Charge =  0 Multiplicity = 1

 SCF Done:  E(RB3LYP) =  -423.149726580     A.U. after   14 cycles
 SCF Done:  E(RB3LYP) =  -423.149726580     A.U. after    6 cycles
 Optimization completed.
    -- Stationary point found.
 Normal termination of Gaussian 09 at Tue Jan 28 11:57:14 2020.

 ----------------------------------------------------------------------
 #N Geom=AllCheck Guess=TCheck SCRF=Check GenChk RB3LYP/6-31G(2df,p) Fr
 eq
 ----------------------------------------------------------------------

 Structure from the checkpoint file:  "/scratch/puck/g09_7fc707dc-60ba-44c5-8c16-51d56dae7c73/Gau-89642.chk"
 -----
 titel
 -----
 Charge =  0 Multiplicity = 1

                         Standard orientation:
 ---------------------------------------------------------------------
 Center     Atomic      Atomic             Coordinates (Angstroms)
 Number     Number       Type             X           Y           Z
 ---------------------------------------------------------------------
      1          6           0        2.820625    0.962986    0.235955
      2          6           0        1.801295    0.280054   -0.678589
      3          6           0        0.903978   -0.707839    0.059664
      4          6           0       -0.153939   -1.395605   -0.828249
      5          8           0       -1.320475   -1.423041   -0.013241
      6          6           0       -1.248937   -0.247236    0.757974
      7          8           0        0.116567   -0.048822    1.069012
      8          6           0       -1.813411    0.916207    0.044110
      9          6           0       -2.287437    1.861481   -0.526811
     10          1           0        2.312153    1.500823    1.040555
     11          1           0        3.495352    0.231433    0.694519
     12          1           0        3.432778    1.678143   -0.321284
     13          1           0        1.164147    1.030333   -1.161564
     14          1           0        2.318614   -0.263429   -1.481185
     15          1           0        1.519401   -1.455591    0.577531
     16          1           0       -0.333115   -0.818818   -1.746589
     17          1           0        0.097722   -2.424308   -1.092167
     18          1           0       -1.799647   -0.421503    1.688336
     19          1           0       -2.709184    2.697533   -1.028640
 ---------------------------------------------------------------------

 SCF Done:  E(RB3LYP) =  -423.149726580     A.U. after    1 cycles

 The electronic state is 1-A.
 Alpha  occ. eigenvalues --  -19.15669 -19.14923 -10.30284 -10.23882 -10.23630
 Alpha  occ. eigenvalues --  -10.18588 -10.18579 -10.18336 -10.17348  -1.09582
 Alpha  occ. eigenvalues --   -0.99899  -0.80670  -0.76233  -0.72987  -0.66020
 Alpha  occ. eigenvalues --   -0.64012  -0.58667  -0.55205  -0.52639  -0.50561
 Alpha  occ. eigenvalues --   -0.48242  -0.45039  -0.43878  -0.41650  -0.40160
 Alpha  occ. eigenvalues --   -0.39734  -0.36216  -0.34542  -0.33584  -0.32689
 Alpha  occ. eigenvalues --   -0.29706  -0.27985  -0.27410  -0.25916
 Alpha virt. eigenvalues --    0.03323   0.03786   0.09704   0.11349   0.11692
 Alpha virt. eigenvalues --    0.12077   0.12448   0.14180   0.15467   0.16470
 Alpha virt. eigenvalues --    0.17374   0.17978   0.18806   0.19981   0.22464

 Mulliken charges:
               1
     1  C   -0.383746
     2  C   -0.189526
     3  C    0.121653
     4  C   -0.139161
     5  O   -0.229033
     6  C   -0.018640
     7  O   -0.260411
     8  C    0.348349
     9  C   -0.454383
    10  H    0.138055
    11  H    0.112886
    12  H    0.112256
    13  H    0.111992
    14  H    0.095977
    15  H    0.083732
    16  H    0.107539
    17  H    0.121451
    18  H    0.119428
    19  H    0.201579
 Sum of Mulliken charges =   0.00000

 Dipole moment (field-independent basis, Debye):
    X=              0.9033    Y=              0.1666    Z=             -1.2007  Tot=              1.5117
 Quadrupole moment (field-independent basis, Debye-Ang):
   XX=            -52.6453   YY=            -50.8943   ZZ=            -52.6169
   XY=             -4.7865   XZ=             -1.0558   YZ=             -1.4803

  Exact polarizability:  82.584  -9.552  79.979   1.296  -4.889  65.993
 Approx polarizability: 106.099 -16.823 121.732   4.472 -13.564 102.946

                      1                      2                      3
                      A                      A                      A
 Frequencies --     34.9083                97.3386               132.6003
 Red. masses --      4.3635                 2.1559                 2.9779
 Frc consts  --      0.0031                 0.0120                 0.0308
 IR Inten    --      0.2830                 0.8187                 1.7131

                      4                      5                      6
                      A                      A                      A
 Frequencies --    188.8011               206.5861               241.2989
 Red. masses --      2.6028                 2.4768                 1.4959
 Frc consts  --      0.0547                 0.0623                 0.0513
 IR Inten    --      0.8645                 0.2309                 0.2873

                      7                      8                      9
                      A                      A                      A
 Frequencies --    288.3917               393.5032               443.3254
 Red. masses --      3.6368                 3.4547                 2.3566
 Frc consts  --      0.1782                 0.3152                 0.2729
 IR Inten    --      5.3131                 1.4215                 1.7527

                     10                     11                     12
                      A                      A                      A
 Frequencies --    515.7871               551.7308               656.9880
 Red. masses --      7.9426                 7.1768                 1.2891
 Frc consts  --      1.2450                 1.2872                 0.3278
 IR Inten    --      5.3916                 6.0278                35.1446

                     13                     14                     15
                      A                      A                      A
 Frequencies --    663.6130               667.7983               776.0613
 Red. masses --      2.7188                 1.2743                 1.4354
 Frc consts  --      0.7054                 0.3348                 0.5094
 IR Inten    --      5.3362                30.7246                 4.7573

                     16                     17                     18
                      A                      A                      A
 Frequencies --    798.4827               852.1803               926.9230
 Red. masses --     10.1770                 2.1178                 3.6871
 Frc consts  --      3.8230                 0.9061                 1.8665
 IR Inten    --      0.2643                15.0036                25.6018

                     19                     20                     21
                      A                      A                      A
 Frequencies --    954.6844               969.4809               980.9015
 Red. masses --      2.4991                 2.2782                 2.0507
 Frc consts  --      1.3420                 1.2616                 1.1626
 IR Inten    --     43.8311                75.2082                29.1932

                     22                     23                     24
                      A                      A                      A
 Frequencies --   1013.0538              1038.6548              1103.0837
 Red. masses --      3.5868                 3.3596                 2.8027
 Frc consts  --      2.1688                 2.1354                 2.0093
 IR Inten    --      3.9004                27.6910                61.9432

                     25                     26                     27
                      A                      A                      A
 Frequencies --   1111.5376              1140.4190              1173.9630
 Red. masses --      2.8032                 3.8427                 2.1135
 Frc consts  --      2.0405                 2.9446                 1.7162
 IR Inten    --     70.1405               174.8585                 4.0212

                     28                     29                     30
                      A                      A                      A
 Frequencies --   1240.3734              1295.3659              1303.9934
 Red. masses --      1.1951                 1.2098                 1.2144
 Frc consts  --      1.0833                 1.1961                 1.2166
 IR Inten    --      0.8390                 1.9033                 3.6033

                     31                     32                     33
                      A                      A                      A
 Frequencies --   1324.5144              1365.2566              1373.2603
 Red. masses --      1.2800                 1.2169                 1.2508
 Frc consts  --      1.3230                 1.3364                 1.3898
 IR Inten    --      9.2376                16.3480                20.1660

                     34                     35                     36
                      A                      A                      A
 Frequencies --   1379.3499              1408.1580              1412.7189
 Red. masses --      1.3623                 1.3877                 1.3278
 Frc consts  --      1.5271                 1.6212                 1.5613
 IR Inten    --      5.0490                 1.5891                 2.7986

                     37                     38                     39
                      A                      A                      A
 Frequencies --   1474.7899              1496.7461              1508.1876
 Red. masses --      1.0771                 1.0424                 1.0614
 Frc consts  --      1.3803                 1.3759                 1.4224
 IR Inten    --      0.6804                 4.5083                 3.5600

                     40                     41                     42
                      A                      A                      A
 Frequencies --   1511.4431              2231.4241              3006.4626
 Red. masses --      1.0892                 5.8605                 1.0733
 Frc consts  --      1.4660                17.1930                 5.7158
 IR Inten    --      2.6355                10.3996                14.8648

                     43                     44                     45
                      A                      A                      A
 Frequencies --   3014.6122              3019.2298              3036.7619
 Red. masses --      1.0758                 1.0663                 1.0378
 Frc consts  --      5.7601                 5.7268                 5.6389
 IR Inten    --     26.8672                48.7259                25.8457

                     46                     47                     48
                      A                      A                      A
 Frequencies --   3060.4872              3065.7786              3103.2932
 Red. masses --      1.0862                 1.0975                 1.1002
 Frc consts  --      5.9943                 6.0777                 6.2428
 IR Inten    --     30.0316                20.3364                33.2728

                     49                     50                     51
                      A                      A                      A
 Frequencies --   3114.8232              3122.0643              3500.2134
 Red. masses --      1.0969                 1.1017                 1.1633
 Frc consts  --      6.2704                 6.3269                 8.3972
 IR Inten    --     28.2617                24.1050                55.4942

 - Thermochemistry -
 -------------------
 Temperature   298.150 Kelvin.  Pressure   1.00000 Atm.
 Atom     1 has atomic number  6 and mass  12.00000

 Molecular mass:   126.06808 amu.
 Principal axes and moments of inertia in atomic units:
                           1         2         3
     Eigenvalues --   733.906501425.213531753.87691
           X            0.99994   0.01047  -0.00057
           Y           -0.01047   0.99994   0.00094
           Z            0.00058  -0.00093   1.00000
 This molecule is an asymmetric top.
 Rotational symmetry number  1.
 Warning -- assumption of classical behavior for rotation
           may cause significant error
 Rotational temperatures (Kelvin)      0.11802     0.06077     0.04938
 Rotational constants (GHZ):           2.45909     1.26630     1.02900
 Zero-point vibrational energy     414454.6 (Joules/Mol)
                                   99.05704 (Kcal/Mol)
 Warning -- explicit consideration of  11 degrees of freedom as
           vibrations may cause significant error
 Vibrational temperatures:     50.23   140.05   190.78   271.64   297.23
          (Kelvin)            347.17   414.93   566.16   637.85   742.10
                              793.82   945.26   954.79   960.81  1116.58
                             1148.84  1226.10  1333.63  1373.58  1394.86
                             1411.30  1457.56  1494.39  1587.09  1599.25
                             1640.81  1689.07  1784.62  1863.74  1876.15
                             1905.68  1964.30  1975.81  1984.57  2026.02
                             2032.58  2121.89  2153.48  2169.94  2174.63
                             3210.52  4325.62  4337.35  4343.99  4369.22
                             4403.35  4410.97  4464.94  4481.53  4491.95
                             5036.02

 Zero-point correction=                           0.157857 (Hartree/Particle)
 Thermal correction to Energy=                    0.167069
 Thermal correction to Enthalpy=                  0.168014
 Thermal correction to Gibbs Free Energy=         0.123039
 Sum of electronic and zero-point Energies=           -422.991869
 Sum of electronic and thermal Energies=              -422.982657
 Sum of electronic and thermal Enthalpies=            -422.981713
 Sum of electronic and thermal Free Energies=         -423.026688

                     E (Thermal)             CV                S
                      KCal/Mol        Cal/Mol-Kelvin    Cal/Mol-Kelvin
 Total                  104.838             33.700             94.658
 Electronic               0.000              0.000              0.000
 Translational            0.889              2.981             40.409
 Rotational               0.889              2.981             28.997
 Vibrational            103.060             27.738             25.253
 Vibration     1          0.594              1.983              5.529
 Vibration     2          0.603              1.951              3.507
 Vibration     3          0.613              1.921              2.908
 Vibration     4          0.633              1.855              2.240
 Vibration     5          0.641              1.830              2.074
 Vibration     6          0.658              1.777              1.793
 Vibration     7          0.685              1.695              1.483
 Vibration     8          0.761              1.484              0.987
 Vibration     9          0.803              1.376              0.816
 Vibration    10          0.871              1.215              0.620
 Vibration    11          0.907              1.136              0.541

 Normal termination of Gaussian 09 at Tue Jan 28 13:25:21 2020.
