 Gaussian 09, Revision D.01,
 Gaussian 09:  ES64L-G09RevD.01 24-Apr-2013

 -----------------------------
 # b3lyp 6-31G(2df,p) opt Freq
 -----------------------------

 -----
 titel
 -----
 Symbolic Z-matrix:
 Charge =  0 Multiplicity = 1

 SCF Done:  E(RB3LYP) =  -423.207152012     A.U. after   14 cycles
 Optimization completed.
    -- Stationary point found.
 Normal termination of Gaussian 09 at Tue Jan 28 12:37:31 2020.

 ----------------------------------------------------------------------
 #N Geom=AllCheck Guess=TCheck SCRF=Check GenChk RB3LYP/6-31G(2df,p) Fr
 eq
 ----------------------------------------------------------------------

 Structure from the checkpoint file:  "/scratch/puck/g09_01180a39-38af-4c01-8f38-1dface415019/Gau-1450.chk"
 -----
 titel
 -----
 Charge =  0 Multiplicity = 1

                         Standard orientation:
 ---------------------------------------------------------------------
 Center     Atomic      Atomic             Coordinates (Angstroms)
 Number     Number       Type             X           Y           Z
 ---------------------------------------------------------------------
      1          6           0       -2.548349   -1.520394    0.223650
      2          6           0       -1.186451   -1.315487   -0.449503
      3          6           0       -0.351340   -0.239587    0.237894
      4          6           0        1.049096    0.171269   -0.354940
      5          6           0        0.701645    1.677021   -0.112235
      6          6           0       -0.755784    1.237758    0.088558
      7          8           0       -1.809154    1.798628    0.007794
      8          6           0        2.241079   -0.357747    0.389114
      9          8           0        3.129211   -1.013561   -0.088885
     10          1           0       -3.132678   -2.279808   -0.304028
     11          1           0       -2.429917   -1.851810    1.261268
     12          1           0       -3.119979   -0.588757    0.230249
     13          1           0       -0.619167   -2.254271   -0.454324
     14          1           0       -1.330666   -1.035379   -1.500212
     15          1           0       -0.242380   -0.464870    1.309829
     16          1           0        1.132705   -0.077103   -1.414603
     17          1           0        1.133579    2.056877    0.821847
     18          1           0        0.908730    2.390129   -0.912253
     19          1           0        2.239948   -0.092542    1.475716
 ---------------------------------------------------------------------

 SCF Done:  E(RB3LYP) =  -423.207152012     A.U. after    1 cycles

 The electronic state is 1-A.
 Alpha  occ. eigenvalues --  -19.15116 -19.14803 -10.28280 -10.27995 -10.21607
 Alpha  occ. eigenvalues --  -10.21536 -10.21286 -10.19954 -10.18070  -1.05991
 Alpha  occ. eigenvalues --   -1.05520  -0.87346  -0.78173  -0.69476  -0.68709
 Alpha  occ. eigenvalues --   -0.61671  -0.58635  -0.53449  -0.48924  -0.48470
 Alpha  occ. eigenvalues --   -0.47090  -0.44959  -0.43486  -0.42071  -0.41679
 Alpha  occ. eigenvalues --   -0.40684  -0.39399  -0.37875  -0.36985  -0.35275
 Alpha  occ. eigenvalues --   -0.34720  -0.32949  -0.26055  -0.25369
 Alpha virt. eigenvalues --   -0.03280  -0.03012   0.08975   0.09593   0.09763
 Alpha virt. eigenvalues --    0.10974   0.13611   0.13879   0.14804   0.15848
 Alpha virt. eigenvalues --    0.16518   0.18177   0.18233   0.19207   0.21900

 Mulliken charges:
               1
     1  C   -0.388620
     2  C   -0.203877
     3  C   -0.105898
     4  C   -0.105269
     5  C   -0.370109
     6  C    0.396020
     7  O   -0.290653
     8  C    0.160553
     9  O   -0.248578
    10  H    0.117534
    11  H    0.114782
    12  H    0.148986
    13  H    0.111909
    14  H    0.107107
    15  H    0.104186
    16  H    0.104176
    17  H    0.136295
    18  H    0.143081
    19  H    0.068375
 Sum of Mulliken charges =   0.00000

 Dipole moment (field-independent basis, Debye):
    X=             -0.2821    Y=              0.0028    Z=              0.5876  Tot=              0.6518
 Quadrupole moment (field-independent basis, Debye-Ang):
   XX=            -67.0328   YY=            -55.9284   ZZ=            -50.6937
   XY=             10.3661   XZ=              1.7730   YZ=             -0.3852

  Exact polarizability:  93.545  -2.458  78.015  -0.381   0.651  64.285
 Approx polarizability: 134.273 -16.718 113.097  -3.179   2.736 101.111

                      1                      2                      3
                      A                      A                      A
 Frequencies --     63.7171                67.8538                94.7517
 Red. masses --      4.9846                 4.3398                 2.3495
 Frc consts  --      0.0119                 0.0118                 0.0124
 IR Inten    --      3.6512                 8.2170                 3.3215

                      4                      5                      6
                      A                      A                      A
 Frequencies --    155.8636               187.9930               259.5435
 Red. masses --      3.0405                 2.0481                 1.5050
 Frc consts  --      0.0435                 0.0426                 0.0597
 IR Inten    --      3.0098                 2.8080                 0.0344

                      7                      8                      9
                      A                      A                      A
 Frequencies --    272.1965               326.5144               372.4579
 Red. masses --      1.9151                 3.4141                 3.9073
 Frc consts  --      0.0836                 0.2144                 0.3194
 IR Inten    --      1.2036                 1.1824                 0.8013

                     10                     11                     12
                      A                      A                      A
 Frequencies --    427.2390               470.6359               578.6533
 Red. masses --      3.2798                 3.4122                 2.5059
 Frc consts  --      0.3527                 0.4453                 0.4944
 IR Inten    --      2.1827                 1.6789                 0.7727

                     13                     14                     15
                      A                      A                      A
 Frequencies --    704.1948               726.3074               776.3537
 Red. masses --      3.4868                 2.5436                 1.3746
 Frc consts  --      1.0187                 0.7906                 0.4881
 IR Inten    --     15.7541                 5.7877                 7.9281

                     16                     17                     18
                      A                      A                      A
 Frequencies --    832.3999               884.5795               945.5410
 Red. masses --      1.6317                 3.1772                 1.5900
 Frc consts  --      0.6661                 1.4648                 0.8375
 IR Inten    --     12.3704                 2.0942                 3.1996

                     19                     20                     21
                      A                      A                      A
 Frequencies --    977.8099              1022.5085              1039.9125
 Red. masses --      1.8908                 1.7698                 3.2984
 Frc consts  --      1.0652                 1.0902                 2.1016
 IR Inten    --      3.3273                 3.4488                35.8335

                     22                     23                     24
                      A                      A                      A
 Frequencies --   1046.9756              1084.7238              1110.0480
 Red. masses --      2.0636                 2.0116                 2.7627
 Frc consts  --      1.3328                 1.3945                 2.0057
 IR Inten    --     22.1874                 6.8390                19.6450

                     25                     26                     27
                      A                      A                      A
 Frequencies --   1145.7696              1175.7886              1206.6113
 Red. masses --      1.8855                 2.2129                 1.4352
 Frc consts  --      1.4584                 1.8025                 1.2311
 IR Inten    --     17.9635                16.1209                 2.5125

                     28                     29                     30
                      A                      A                      A
 Frequencies --   1214.8960              1237.6032              1273.8993
 Red. masses --      1.4544                 1.3407                 1.3697
 Frc consts  --      1.2648                 1.2098                 1.3096
 IR Inten    --      8.2068                 0.3709                 4.7744

                     31                     32                     33
                      A                      A                      A
 Frequencies --   1315.7587              1332.4584              1367.9219
 Red. masses --      1.4407                 1.3745                 1.5035
 Frc consts  --      1.4695                 1.4378                 1.6576
 IR Inten    --      1.1803                 1.2159                 8.6865

                     34                     35                     36
                      A                      A                      A
 Frequencies --   1412.4069              1427.1345              1439.4151
 Red. masses --      1.2246                 1.1993                 1.1106
 Frc consts  --      1.4393                 1.4392                 1.3558
 IR Inten    --      2.8510                 2.7010                 8.7643

                     37                     38                     39
                      A                      A                      A
 Frequencies --   1488.0064              1498.9599              1512.3068
 Red. masses --      1.0642                 1.0449                 1.0604
 Frc consts  --      1.3883                 1.3833                 1.4289
 IR Inten    --      1.1630                 6.6325                 3.7753

                     40                     41                     42
                      A                      A                      A
 Frequencies --   1832.5123              1889.4859              2826.0176
 Red. masses --     10.5008                12.5262                 1.0808
 Frc consts  --     20.7762                26.3486                 5.0855
 IR Inten    --    262.3671               251.7105                96.7218

                     43                     44                     45
                      A                      A                      A
 Frequencies --   2999.3446              3026.2717              3037.8661
 Red. masses --      1.0806                 1.0593                 1.0379
 Frc consts  --      5.7275                 5.7158                 5.6436
 IR Inten    --      6.3367                19.9182                25.5796

                     46                     47                     48
                      A                      A                      A
 Frequencies --   3043.5105              3061.4481              3102.8844
 Red. masses --      1.0642                 1.1017                 1.0873
 Frc consts  --      5.8080                 6.0836                 6.1681
 IR Inten    --      7.1178                14.3000                 4.5120

                     49                     50                     51
                      A                      A                      A
 Frequencies --   3104.5728              3126.1226              3127.1865
 Red. masses --      1.0999                 1.0994                 1.1018
 Frc consts  --      6.2460                 6.3304                 6.3486
 IR Inten    --     36.7183                 8.2379                14.9459

 - Thermochemistry -
 -------------------
 Temperature   298.150 Kelvin.  Pressure   1.00000 Atm.
 Atom     1 has atomic number  6 and mass  12.00000

 Molecular mass:   126.06808 amu.
 Principal axes and moments of inertia in atomic units:
                           1         2         3
     Eigenvalues --   764.294511601.787742229.76109
           X            0.99612   0.08801   0.00213
           Y           -0.08801   0.99612  -0.00167
           Z           -0.00227   0.00148   1.00000
 This molecule is an asymmetric top.
 Rotational symmetry number  1.
 Warning -- assumption of classical behavior for rotation
           may cause significant error
 Rotational temperatures (Kelvin)      0.11333     0.05407     0.03884
 Rotational constants (GHZ):           2.36132     1.12670     0.80939
 Zero-point vibrational energy     410647.7 (Joules/Mol)
                                   98.14715 (Kcal/Mol)
 Warning -- explicit consideration of  12 degrees of freedom as
           vibrations may cause significant error
 Vibrational temperatures:     91.67    97.63   136.33   224.25   270.48
          (Kelvin)            373.42   391.63   469.78   535.88   614.70
                              677.14   832.55  1013.18  1044.99  1117.00
                             1197.64  1272.71  1360.42  1406.85  1471.16
                             1496.20  1506.36  1560.67  1597.11  1648.50
                             1691.70  1736.04  1747.96  1780.63  1832.85
                             1893.08  1917.11  1968.13  2032.14  2053.33
                             2070.99  2140.91  2156.67  2175.87  2636.57
                             2718.55  4066.00  4315.38  4354.12  4370.81
                             4378.93  4404.74  4464.35  4466.78  4497.79
                             4499.32

 Zero-point correction=                           0.156407 (Hartree/Particle)
 Thermal correction to Energy=                    0.165981
 Thermal correction to Enthalpy=                  0.166925
 Thermal correction to Gibbs Free Energy=         0.121042
 Sum of electronic and zero-point Energies=           -423.050745
 Sum of electronic and thermal Energies=              -423.041171
 Sum of electronic and thermal Enthalpies=            -423.040227
 Sum of electronic and thermal Free Energies=         -423.086110

                     E (Thermal)             CV                S
                      KCal/Mol        Cal/Mol-Kelvin    Cal/Mol-Kelvin
 Total                  104.155             34.023             96.569
 Electronic               0.000              0.000              0.000
 Translational            0.889              2.981             40.409
 Rotational               0.889              2.981             29.391
 Vibrational            102.377             28.061             26.769
 Vibration     1          0.597              1.972              4.339
 Vibration     2          0.598              1.970              4.215
 Vibration     3          0.603              1.953              3.560
 Vibration     4          0.620              1.896              2.599
 Vibration     5          0.633              1.856              2.248
 Vibration     6          0.668              1.747              1.665
 Vibration     7          0.675              1.725              1.582
 Vibration     8          0.710              1.622              1.277
 Vibration     9          0.744              1.529              1.070
 Vibration    10          0.789              1.411              0.868
 Vibration    11          0.828              1.315              0.736
 Vibration    12          0.935              1.077              0.488

 Optimization completed.
    -- Stationary point found.
 Normal termination of Gaussian 09 at Tue Jan 28 13:24:15 2020.
