 Gaussian 09, Revision D.01,
 Gaussian 09:  ES64L-G09RevD.01 24-Apr-2013

 -----------------------------
 # b3lyp 6-31G(2df,p) opt Freq
 -----------------------------

 -----
 titel
 -----
 Symbolic Z-matrix:
 Charge =  0 Multiplicity = 1

 SCF Done:  E(RB3LYP) =  -423.137303510     A.U. after   13 cycles
 Optimization completed.
    -- Stationary point found.
 Normal termination of Gaussian 09 at Mon Jan 27 23:45:51 2020.

 ----------------------------------------------------------------------
 #N Geom=AllCheck Guess=TCheck SCRF=Check GenChk RB3LYP/6-31G(2df,p) Fr
 eq
 ----------------------------------------------------------------------

 Structure from the checkpoint file:  "/scratch/puck/g09_d2594b1c-80b8-4a7b-9da3-73a8678785f5/Gau-193903.chk"
 -----
 titel
 -----
 Charge =  0 Multiplicity = 1

                         Standard orientation:
 ---------------------------------------------------------------------
 Center     Atomic      Atomic             Coordinates (Angstroms)
 Number     Number       Type             X           Y           Z
 ---------------------------------------------------------------------
      1          6           0        2.704591   -0.307317   -0.516782
      2          6           0        1.475214   -0.590363    0.329396
      3          6           0        0.669297    0.581979    0.953394
      4          8           0        0.369085    1.402711   -0.195789
      5          6           0       -0.462436    0.452302   -0.874237
      6          6           0       -1.659334    0.345774    0.111588
      7          8           0       -2.654064   -0.590651   -0.245689
      8          6           0       -0.608894   -0.343533    0.988169
      9          6           0        0.104322   -0.914876   -0.293873
     10          1           0        3.555115   -0.012279    0.108052
     11          1           0        3.003096   -1.196755   -1.082240
     12          1           0        2.509124    0.501459   -1.224848
     13          1           0        1.682533   -1.338303    1.103750
     14          1           0        1.017398    1.193267    1.784896
     15          1           0       -0.563288    0.687891   -1.933505
     16          1           0       -2.082939    1.302590    0.444629
     17          1           0       -3.178526   -0.205890   -0.955290
     18          1           0       -0.838278   -0.922569    1.879931
     19          1           0       -0.160960   -1.849687   -0.779479
 ---------------------------------------------------------------------

 SCF Done:  E(RB3LYP) =  -423.137303510     A.U. after    1 cycles

 The electronic state is 1-A.
 Alpha  occ. eigenvalues --  -19.14148 -19.13781 -10.23370 -10.23025 -10.22936
 Alpha  occ. eigenvalues --  -10.18984 -10.18929 -10.18651 -10.16766  -1.05547
 Alpha  occ. eigenvalues --   -1.02091  -0.84429  -0.76728  -0.70381  -0.66360
 Alpha  occ. eigenvalues --   -0.58145  -0.56458  -0.55136  -0.52434  -0.50273
 Alpha  occ. eigenvalues --   -0.47311  -0.43376  -0.41850  -0.40723  -0.39339
 Alpha  occ. eigenvalues --   -0.37459  -0.36425  -0.33859  -0.33370  -0.31766
 Alpha  occ. eigenvalues --   -0.29998  -0.29298  -0.26753  -0.23267
 Alpha virt. eigenvalues --    0.06659   0.09270   0.11142   0.12517   0.14095
 Alpha virt. eigenvalues --    0.14726   0.15109   0.15853   0.15988   0.17373
 Alpha virt. eigenvalues --    0.17804   0.18127   0.19332   0.19818   0.22262

 Mulliken charges:
               1
     1  C   -0.426980
     2  C    0.025993
     3  C    0.043545
     4  O   -0.270014
     5  C    0.020216
     6  C    0.107080
     7  O   -0.439084
     8  C   -0.072076
     9  C   -0.079878
    10  H    0.111942
    11  H    0.112132
    12  H    0.130876
    13  H    0.073962
    14  H    0.075793
    15  H    0.072809
    16  H    0.068944
    17  H    0.285901
    18  H    0.078869
    19  H    0.079970
 Sum of Mulliken charges =   0.00000

 Dipole moment (field-independent basis, Debye):
    X=             -0.2765    Y=             -0.3192    Z=             -0.3415  Tot=              0.5431
 Quadrupole moment (field-independent basis, Debye-Ang):
   XX=            -51.4804   YY=            -56.3948   ZZ=            -49.2373
   XY=             -3.9481   XZ=              4.5640   YZ=              0.3792

  Exact polarizability:  86.677  -2.061  66.425   2.578   0.423  69.968
 Approx polarizability: 111.312   0.047 106.511   4.737  -0.487 108.672

                      1                      2                      3
                      A                      A                      A
 Frequencies --    169.8855               184.6991               200.8525
 Red. masses --      2.9607                 1.1395                 2.8558
 Frc consts  --      0.0503                 0.0229                 0.0679
 IR Inten    --      0.4293                 0.4939                 0.6497

                      4                      5                      6
                      A                      A                      A
 Frequencies --    294.4794               307.2108               341.9207
 Red. masses --      2.8654                 1.3974                 2.4596
 Frc consts  --      0.1464                 0.0777                 0.1694
 IR Inten    --      2.7560                68.2526                49.0116

                      7                      8                      9
                      A                      A                      A
 Frequencies --    479.1057               524.8730               595.2731
 Red. masses --      3.4371                 7.5824                 3.6854
 Frc consts  --      0.4648                 1.2307                 0.7694
 IR Inten    --      3.6054                 1.0780                 8.0484

                     10                     11                     12
                      A                      A                      A
 Frequencies --    693.8843               710.0797               793.5860
 Red. masses --      3.4160                 3.9991                 2.2875
 Frc consts  --      0.9690                 1.1880                 0.8488
 IR Inten    --      1.6251                 1.9991                 0.6421

                     13                     14                     15
                      A                      A                      A
 Frequencies --    824.9641               834.2002               890.4656
 Red. masses --      1.8133                 2.2582                 2.4104
 Frc consts  --      0.7271                 0.9259                 1.1261
 IR Inten    --      2.3404                 2.7719                 5.3844

                     16                     17                     18
                      A                      A                      A
 Frequencies --    907.7573               918.3473               951.9040
 Red. masses --      2.3924                 2.5181                 2.9401
 Frc consts  --      1.1615                 1.2512                 1.5696
 IR Inten    --      7.7007                24.0945                30.7338

                     19                     20                     21
                      A                      A                      A
 Frequencies --    962.8904              1017.5414              1018.8881
 Red. masses --      2.2775                 3.5624                 1.9382
 Frc consts  --      1.2441                 2.1732                 1.1855
 IR Inten    --      1.6685                27.9437                 3.4755

                     22                     23                     24
                      A                      A                      A
 Frequencies --   1063.1655              1072.4176              1083.3828
 Red. masses --      1.6154                 1.7511                 1.8880
 Frc consts  --      1.0758                 1.1865                 1.3056
 IR Inten    --     26.1328                 2.7171                 3.6645

                     25                     26                     27
                      A                      A                      A
 Frequencies --   1109.9326              1131.1808              1155.5975
 Red. masses --      2.9431                 2.4319                 1.4458
 Frc consts  --      2.1363                 1.8334                 1.1375
 IR Inten    --     32.6448                33.8196                 1.5369

                     28                     29                     30
                      A                      A                      A
 Frequencies --   1161.1820              1186.5591              1212.2061
 Red. masses --      1.7344                 1.6337                 1.3935
 Frc consts  --      1.3778                 1.3552                 1.2064
 IR Inten    --      9.1560                 0.5517                34.8895

                     31                     32                     33
                      A                      A                      A
 Frequencies --   1229.2289              1242.7324              1264.9089
 Red. masses --      1.4154                 1.5205                 1.4195
 Frc consts  --      1.2600                 1.3835                 1.3381
 IR Inten    --      8.4075                 1.3035                 0.6691

                     34                     35                     36
                      A                      A                      A
 Frequencies --   1279.8322              1309.3392              1328.8869
 Red. masses --      1.9395                 1.4788                 1.4638
 Frc consts  --      1.8717                 1.4937                 1.5231
 IR Inten    --      7.3891                48.1315                 2.5345

                     37                     38                     39
                      A                      A                      A
 Frequencies --   1385.3636              1404.1732              1419.6201
 Red. masses --      1.4579                 1.3537                 1.5786
 Frc consts  --      1.6486                 1.5726                 1.8745
 IR Inten    --      3.5364                 6.2079                11.5798

                     40                     41                     42
                      A                      A                      A
 Frequencies --   1490.5883              1503.2065              3016.7323
 Red. masses --      1.0466                 1.0492                 1.0850
 Frc consts  --      1.3701                 1.3968                 5.8178
 IR Inten    --      3.8164                 3.9596                70.8246

                     43                     44                     45
                      A                      A                      A
 Frequencies --   3032.3728              3045.6281              3091.1166
 Red. masses --      1.0397                 1.0811                 1.1005
 Frc consts  --      5.6327                 5.9082                 6.1957
 IR Inten    --     30.6230                21.7147                23.0927

                     46                     47                     48
                      A                      A                      A
 Frequencies --   3122.4852              3125.4146              3130.0949
 Red. masses --      1.0908                 1.0987                 1.0912
 Frc consts  --      6.2659                 6.3233                 6.2992
 IR Inten    --     37.7123                23.9042                29.6228

                     49                     50                     51
                      A                      A                      A
 Frequencies --   3145.7671              3161.6734              3812.4805
 Red. masses --      1.0904                 1.0925                 1.0662
 Frc consts  --      6.3576                 6.4345                 9.1308
 IR Inten    --     32.2598                17.4258                22.7156

 - Thermochemistry -
 -------------------
 Temperature   298.150 Kelvin.  Pressure   1.00000 Atm.
 Atom     1 has atomic number  6 and mass  12.00000

 Molecular mass:   126.06808 amu.
 Principal axes and moments of inertia in atomic units:
                           1         2         3
     Eigenvalues --   458.530711346.780951410.68733
           X            0.99981  -0.01929  -0.00251
           Y            0.01936   0.99942   0.02795
           Z            0.00197  -0.02800   0.99961
 This molecule is an asymmetric top.
 Rotational symmetry number  1.
 Warning -- assumption of classical behavior for rotation
           may cause significant error
 Rotational temperatures (Kelvin)      0.18889     0.06431     0.06140
 Rotational constants (GHZ):           3.93592     1.34004     1.27933
 Zero-point vibrational energy     420727.1 (Joules/Mol)
                                  100.55619 (Kcal/Mol)
 Warning -- explicit consideration of   9 degrees of freedom as
           vibrations may cause significant error
 Vibrational temperatures:    244.43   265.74   288.98   423.69   442.01
          (Kelvin)            491.95   689.33   755.17   856.46   998.34
                             1021.65  1141.79  1186.94  1200.23  1281.18
                             1306.06  1321.30  1369.58  1385.38  1464.01
                             1465.95  1529.66  1542.97  1558.74  1596.94
                             1627.51  1662.64  1670.68  1707.19  1744.09
                             1768.58  1788.01  1819.92  1841.39  1883.84
                             1911.97  1993.23  2020.29  2042.51  2144.62
                             2162.78  4340.40  4362.90  4381.97  4447.42
                             4492.55  4496.77  4503.50  4526.05  4548.94
                             5485.30

 Zero-point correction=                           0.160246 (Hartree/Particle)
 Thermal correction to Energy=                    0.167719
 Thermal correction to Enthalpy=                  0.168663
 Thermal correction to Gibbs Free Energy=         0.128721
 Sum of electronic and zero-point Energies=           -422.977057
 Sum of electronic and thermal Energies=              -422.969585
 Sum of electronic and thermal Enthalpies=            -422.968640
 Sum of electronic and thermal Free Energies=         -423.008583

                     E (Thermal)             CV                S
                      KCal/Mol        Cal/Mol-Kelvin    Cal/Mol-Kelvin
 Total                  105.245             30.325             84.066
 Electronic               0.000              0.000              0.000
 Translational            0.889              2.981             40.409
 Rotational               0.889              2.981             28.257
 Vibrational            103.468             24.364             15.401
 Vibration     1          0.625              1.880              2.437
 Vibration     2          0.631              1.861              2.280
 Vibration     3          0.638              1.839              2.125
 Vibration     4          0.689              1.684              1.448
 Vibration     5          0.697              1.660              1.377
 Vibration     6          0.721              1.592              1.203
 Vibration     7          0.836              1.296              0.712
 Vibration     8          0.880              1.195              0.599
 Vibration     9          0.953              1.042              0.458

 Optimization completed.
    -- Stationary point found.
 Normal termination of Gaussian 09 at Tue Jan 28 00:31:38 2020.
