 Gaussian 09, Revision D.01,
 Gaussian 09:  ES64L-G09RevD.01 24-Apr-2013

 -----------------------------
 # b3lyp 6-31G(2df,p) opt Freq
 -----------------------------

 -----
 titel
 -----
 Symbolic Z-matrix:
 Charge =  0 Multiplicity = 1

 SCF Done:  E(RB3LYP) =  -423.232583008     A.U. after   14 cycles
 Optimization completed.
    -- Stationary point found.
 Normal termination of Gaussian 09 at Mon Jan 27 13:08:24 2020.

 ----------------------------------------------------------------------
 #N Geom=AllCheck Guess=TCheck SCRF=Check GenChk RB3LYP/6-31G(2df,p) Fr
 eq
 ----------------------------------------------------------------------

 Structure from the checkpoint file:  "/scratch/puck/g09_25a0f631-7910-4510-99ef-d98991edb224/Gau-28445.chk"
 -----
 titel
 -----
 Charge =  0 Multiplicity = 1

                         Standard orientation:
 ---------------------------------------------------------------------
 Center     Atomic      Atomic             Coordinates (Angstroms)
 Number     Number       Type             X           Y           Z
 ---------------------------------------------------------------------
      1          8           0       -1.657742    1.786667   -0.264512
      2          6           0       -1.185829    0.709378   -0.008520
      3          6           0       -1.736495   -0.644677   -0.469854
      4          6           0       -0.888502   -1.700945    0.255583
      5          6           0        0.434624   -0.990612    0.564338
      6          8           0        1.230598   -0.945501   -0.617140
      7          6           0        2.094827    0.180805   -0.505896
      8          6           0        1.311041    1.268697    0.273281
      9          6           0        0.097070    0.485898    0.815018
     10          1           0       -2.810441   -0.709086   -0.278927
     11          1           0       -1.601417   -0.694214   -1.555877
     12          1           0       -1.360909   -2.000056    1.197350
     13          1           0       -0.719631   -2.605003   -0.333289
     14          1           0        0.991537   -1.462153    1.387329
     15          1           0        3.012047   -0.096343    0.035776
     16          1           0        2.375043    0.482358   -1.518444
     17          1           0        1.914045    1.694183    1.078408
     18          1           0        0.981353    2.092460   -0.364498
     19          1           0       -0.124907    0.717269    1.861692
 ---------------------------------------------------------------------

 SCF Done:  E(RB3LYP) =  -423.232583008     A.U. after    1 cycles

 The electronic state is 1-A.
 Alpha  occ. eigenvalues --  -19.14275 -19.12956 -10.26629 -10.23539 -10.23060
 Alpha  occ. eigenvalues --  -10.19468 -10.19096 -10.19068 -10.18993  -1.04457
 Alpha  occ. eigenvalues --   -1.03738  -0.82993  -0.77876  -0.71794  -0.67105
 Alpha  occ. eigenvalues --   -0.60828  -0.57833  -0.53423  -0.50132  -0.47538
 Alpha  occ. eigenvalues --   -0.46859  -0.45999  -0.43893  -0.42800  -0.39529
 Alpha  occ. eigenvalues --   -0.38611  -0.36315  -0.36127  -0.35077  -0.34505
 Alpha  occ. eigenvalues --   -0.33281  -0.31956  -0.26104  -0.23821
 Alpha virt. eigenvalues --   -0.01790   0.07720   0.10594   0.11565   0.12366
 Alpha virt. eigenvalues --    0.13997   0.14431   0.14884   0.16293   0.17107
 Alpha virt. eigenvalues --    0.17527   0.18329   0.20703   0.21137   0.21953

 Mulliken charges:
               1
     1  O   -0.320726
     2  C    0.401189
     3  C   -0.315930
     4  C   -0.247950
     5  C    0.102155
     6  O   -0.267711
     7  C   -0.071229
     8  C   -0.256533
     9  C   -0.125331
    10  H    0.127628
    11  H    0.145404
    12  H    0.105045
    13  H    0.118949
    14  H    0.062319
    15  H    0.092567
    16  H    0.113174
    17  H    0.106687
    18  H    0.130265
    19  H    0.100030
 Sum of Mulliken charges =   0.00000

 Dipole moment (field-independent basis, Debye):
    X=              1.0292    Y=             -1.4234    Z=              1.3711  Tot=              2.2282
 Quadrupole moment (field-independent basis, Debye-Ang):
   XX=            -53.0809   YY=            -58.0848   ZZ=            -51.1702
   XY=              7.3124   XZ=             -0.1222   YZ=             -0.4496

  Exact polarizability:  81.486   3.426  76.483   1.475  -1.596  64.781
 Approx polarizability: 108.433  -1.140 113.421   1.894  -2.564 101.221

                      1                      2                      3
                      A                      A                      A
 Frequencies --     51.6118               109.5608               190.4984
 Red. masses --      3.4829                 2.0441                 2.7789
 Frc consts  --      0.0055                 0.0145                 0.0594
 IR Inten    --      3.9669                 2.1428                 5.8989

                      4                      5                      6
                      A                      A                      A
 Frequencies --    245.9946               336.2242               448.8001
 Red. masses --      3.0855                 2.5360                 3.8931
 Frc consts  --      0.1100                 0.1689                 0.4620
 IR Inten    --      2.3767                 4.7174                 4.2931

                      7                      8                      9
                      A                      A                      A
 Frequencies --    511.4938               573.2048               638.4247
 Red. masses --      3.5430                 3.4352                 2.9664
 Frc consts  --      0.5461                 0.6650                 0.7124
 IR Inten    --      2.2146                 1.3019                 3.1289

                     10                     11                     12
                      A                      A                      A
 Frequencies --    684.2812               732.4364               796.4882
 Red. masses --      3.6408                 3.2158                 3.8106
 Frc consts  --      1.0044                 1.0164                 1.4243
 IR Inten    --      3.3256                 2.7387                 4.6332

                     13                     14                     15
                      A                      A                      A
 Frequencies --    807.7049               837.8990               900.0706
 Red. masses --      1.9468                 1.7711                 2.3774
 Frc consts  --      0.7483                 0.7326                 1.1348
 IR Inten    --      5.5144                 5.1918                 4.5023

                     16                     17                     18
                      A                      A                      A
 Frequencies --    930.1308               933.4939               960.7160
 Red. masses --      2.3586                 1.9899                 2.4819
 Frc consts  --      1.2022                 1.0216                 1.3497
 IR Inten    --     11.2484                 9.3922                 1.5951

                     19                     20                     21
                      A                      A                      A
 Frequencies --   1007.1380              1013.7437              1034.8526
 Red. masses --      1.8383                 1.9679                 1.9694
 Frc consts  --      1.0986                 1.1916                 1.2426
 IR Inten    --      5.8633                 9.5793                12.1216

                     22                     23                     24
                      A                      A                      A
 Frequencies --   1083.1017              1118.2137              1144.4263
 Red. masses --      3.5646                 2.0528                 2.5850
 Frc consts  --      2.4637                 1.5123                 1.9947
 IR Inten    --     81.4060                30.7087                49.0333

                     25                     26                     27
                      A                      A                      A
 Frequencies --   1163.5582              1205.1241              1218.5254
 Red. masses --      1.6891                 1.3869                 1.4041
 Frc consts  --      1.3474                 1.1867                 1.2283
 IR Inten    --     14.1885                 1.9729                 2.6756

                     28                     29                     30
                      A                      A                      A
 Frequencies --   1225.1505              1251.6167              1279.2712
 Red. masses --      1.7202                 1.2531                 1.3904
 Frc consts  --      1.5213                 1.1566                 1.3407
 IR Inten    --      8.1523                 5.1164                 6.8557

                     31                     32                     33
                      A                      A                      A
 Frequencies --   1292.2955              1305.9702              1333.0446
 Red. masses --      1.3262                 1.4044                 1.5394
 Frc consts  --      1.3049                 1.4113                 1.6117
 IR Inten    --      2.9620                 1.7206                 1.2614

                     34                     35                     36
                      A                      A                      A
 Frequencies --   1349.1851              1368.5989              1395.3631
 Red. masses --      1.4321                 1.4730                 1.3272
 Frc consts  --      1.5359                 1.6255                 1.5225
 IR Inten    --      1.7231                15.4688                 7.8662

                     37                     38                     39
                      A                      A                      A
 Frequencies --   1445.3579              1485.6994              1503.9433
 Red. masses --      1.0806                 1.0977                 1.0823
 Frc consts  --      1.3301                 1.4275                 1.4424
 IR Inten    --      8.2611                 5.4267                 3.8857

                     40                     41                     42
                      A                      A                      A
 Frequencies --   1523.7229              1842.3249              2985.4351
 Red. masses --      1.0952                12.7972                 1.0730
 Frc consts  --      1.4982                25.5916                 5.6347
 IR Inten    --      0.3449               185.8408                49.6708

                     43                     44                     45
                      A                      A                      A
 Frequencies --   2993.6905              3055.2207              3058.5581
 Red. masses --      1.0833                 1.0666                 1.0633
 Frc consts  --      5.7202                 5.8662                 5.8607
 IR Inten    --     82.3369                25.7308                 7.6923

                     46                     47                     48
                      A                      A                      A
 Frequencies --   3064.0508              3073.6243              3090.0455
 Red. masses --      1.0770                 1.0672                 1.0925
 Frc consts  --      5.9573                 5.9401                 6.1461
 IR Inten    --     21.3184                23.4124                22.0516

                     49                     50                     51
                      A                      A                      A
 Frequencies --   3105.8865              3116.3222              3117.1810
 Red. masses --      1.0970                 1.1019                 1.1060
 Frc consts  --      6.2347                 6.3047                 6.3316
 IR Inten    --      7.6962                14.2124                22.1727

 - Thermochemistry -
 -------------------
 Temperature   298.150 Kelvin.  Pressure   1.00000 Atm.
 Atom     1 has atomic number  8 and mass  15.99491

 Molecular mass:   126.06808 amu.
 Principal axes and moments of inertia in atomic units:
                           1         2         3
     Eigenvalues --   732.011871004.402901454.18941
           X            0.98687   0.16138   0.00601
           Y           -0.16135   0.98689  -0.00442
           Z           -0.00664   0.00339   0.99997
 This molecule is an asymmetric top.
 Rotational symmetry number  1.
 Warning -- assumption of classical behavior for rotation
           may cause significant error
 Rotational temperatures (Kelvin)      0.11832     0.08623     0.05956
 Rotational constants (GHZ):           2.46545     1.79683     1.24106
 Zero-point vibrational energy     424311.1 (Joules/Mol)
                                  101.41279 (Kcal/Mol)
 Warning -- explicit consideration of   8 degrees of freedom as
           vibrations may cause significant error
 Vibrational temperatures:     74.26   157.63   274.08   353.93   483.75
          (Kelvin)            645.72   735.92   824.71   918.55   984.53
                             1053.81  1145.97  1162.11  1205.55  1295.00
                             1338.25  1343.09  1382.25  1449.05  1458.55
                             1488.92  1558.34  1608.86  1646.57  1674.10
                             1733.90  1753.18  1762.72  1800.79  1840.58
                             1859.32  1879.00  1917.95  1941.17  1969.11
                             2007.61  2079.54  2137.59  2163.84  2192.29
                             2650.69  4295.37  4307.25  4395.78  4400.58
                             4408.48  4422.25  4445.88  4468.67  4483.69
                             4484.92

 Zero-point correction=                           0.161612 (Hartree/Particle)
 Thermal correction to Energy=                    0.169214
 Thermal correction to Enthalpy=                  0.170158
 Thermal correction to Gibbs Free Energy=         0.128838
 Sum of electronic and zero-point Energies=           -423.070971
 Sum of electronic and thermal Energies=              -423.063369
 Sum of electronic and thermal Enthalpies=            -423.062425
 Sum of electronic and thermal Free Energies=         -423.103745

                     E (Thermal)             CV                S
                      KCal/Mol        Cal/Mol-Kelvin    Cal/Mol-Kelvin
 Total                  106.183             29.223             86.965
 Electronic               0.000              0.000              0.000
 Translational            0.889              2.981             40.409
 Rotational               0.889              2.981             28.460
 Vibrational            104.406             23.262             18.096
 Vibration     1          0.596              1.977              4.755
 Vibration     2          0.606              1.942              3.277
 Vibration     3          0.634              1.853              2.223
 Vibration     4          0.660              1.769              1.759
 Vibration     5          0.717              1.603              1.230
 Vibration     6          0.808              1.364              0.799
 Vibration     7          0.867              1.225              0.630
 Vibration     8          0.929              1.089              0.498

 Optimization completed.
    -- Stationary point found.
 Normal termination of Gaussian 09 at Mon Jan 27 13:56:55 2020.
