 Gaussian 09, Revision D.01,
 Gaussian 09:  ES64L-G09RevD.01 24-Apr-2013

 -----------------------------
 # b3lyp 6-31G(2df,p) opt Freq
 -----------------------------

 -----
 titel
 -----
 Symbolic Z-matrix:
 Charge =  0 Multiplicity = 1

 SCF Done:  E(RB3LYP) =  -423.128011594     A.U. after   12 cycles
 Optimization completed.
    -- Stationary point found.
 Normal termination of Gaussian 09 at Mon Jan 27 16:56:03 2020.

 ----------------------------------------------------------------------
 #N Geom=AllCheck Guess=TCheck SCRF=Check GenChk RB3LYP/6-31G(2df,p) Fr
 eq
 ----------------------------------------------------------------------

 Structure from the checkpoint file:  "/scratch/puck/g09_ca1cec4d-8b04-4a64-b788-d1b4a3fa1458/Gau-111063.chk"
 -----
 titel
 -----
 Charge =  0 Multiplicity = 1

                         Standard orientation:
 ---------------------------------------------------------------------
 Center     Atomic      Atomic             Coordinates (Angstroms)
 Number     Number       Type             X           Y           Z
 ---------------------------------------------------------------------
      1          6           0       -0.083025    2.268667   -0.406583
      2          6           0       -0.269498    0.823827   -0.056191
      3          6           0       -1.587840    0.061504   -0.236805
      4          8           0       -1.292633   -1.336666   -0.397694
      5          6           0       -0.310116   -1.147898    0.669143
      6          6           0       -1.000959    0.178693    1.127606
      7          6           0        0.787993   -0.304144   -0.049210
      8          6           0        2.013605   -0.010816    0.796463
      9          8           0        1.210662   -0.804530   -1.289432
     10          1           0        0.222784    2.375238   -1.453114
     11          1           0       -1.009422    2.837291   -0.270478
     12          1           0        0.686483    2.737642    0.216631
     13          1           0       -2.485133    0.463642   -0.688826
     14          1           0       -0.100380   -2.053442    1.235500
     15          1           0       -1.363917    0.557268    2.072163
     16          1           0        2.611640   -0.919654    0.910683
     17          1           0        2.640275    0.741572    0.308158
     18          1           0        1.736664    0.358823    1.787307
     19          1           0        0.415815   -1.187816   -1.687559
 ---------------------------------------------------------------------

 SCF Done:  E(RB3LYP) =  -423.128011594     A.U. after    1 cycles

 The electronic state is 1-A.
 Alpha  occ. eigenvalues --  -19.14679 -19.12596 -10.24293 -10.24163 -10.23752
 Alpha  occ. eigenvalues --  -10.19976 -10.19797 -10.18616 -10.17567  -1.07099
 Alpha  occ. eigenvalues --   -1.00871  -0.86539  -0.75159  -0.72704  -0.67928
 Alpha  occ. eigenvalues --   -0.61804  -0.55564  -0.54317  -0.51377  -0.50462
 Alpha  occ. eigenvalues --   -0.46521  -0.43642  -0.41812  -0.40217  -0.39702
 Alpha  occ. eigenvalues --   -0.39221  -0.38415  -0.36514  -0.35995  -0.34398
 Alpha  occ. eigenvalues --   -0.29704  -0.26761  -0.26219  -0.23150
 Alpha virt. eigenvalues --    0.07446   0.08837   0.10317   0.11633   0.12430
 Alpha virt. eigenvalues --    0.13515   0.14372   0.15574   0.15781   0.16493
 Alpha virt. eigenvalues --    0.17628   0.18114   0.18798   0.20262   0.21941

 Mulliken charges:
               1
     1  C   -0.523227
     2  C    0.239484
     3  C    0.014149
     4  O   -0.312744
     5  C   -0.013294
     6  C   -0.197063
     7  C    0.397063
     8  C   -0.441160
     9  O   -0.491981
    10  H    0.134865
    11  H    0.119688
    12  H    0.124895
    13  H    0.111694
    14  H    0.083982
    15  H    0.101968
    16  H    0.124407
    17  H    0.127594
    18  H    0.116940
    19  H    0.282741
 Sum of Mulliken charges =   0.00000

 Dipole moment (field-independent basis, Debye):
    X=             -0.7539    Y=              1.4944    Z=              1.4203  Tot=              2.1952
 Quadrupole moment (field-independent basis, Debye-Ang):
   XX=            -54.8492   YY=            -52.8513   ZZ=            -52.0471
   XY=             -2.0309   XZ=              2.3553   YZ=             -1.5768

  Exact polarizability:  76.812  -0.948  75.625   1.025  -2.126  68.393
 Approx polarizability: 110.178   0.871 109.171   0.372  -0.299 108.639

                      1                      2                      3
                      A                      A                      A
 Frequencies --    177.8701               186.5943               203.2342
 Red. masses --      1.3941                 1.6238                 1.6308
 Frc consts  --      0.0260                 0.0333                 0.0397
 IR Inten    --      0.4659                 0.5969                 0.1075

                      4                      5                      6
                      A                      A                      A
 Frequencies --    220.3437               239.2117               295.6802
 Red. masses --      1.5327                 3.0430                 3.3354
 Frc consts  --      0.0438                 0.1026                 0.1718
 IR Inten    --      0.4651                 1.5918                 0.2446

                      7                      8                      9
                      A                      A                      A
 Frequencies --    357.3957               417.5462               552.2848
 Red. masses --      3.3458                 3.0701                 1.2292
 Frc consts  --      0.2518                 0.3154                 0.2209
 IR Inten    --      6.7955                 1.2178                45.6631

                     10                     11                     12
                      A                      A                      A
 Frequencies --    572.3721               593.4920               631.0767
 Red. masses --      3.3745                 3.5875                 4.0486
 Frc consts  --      0.6514                 0.7445                 0.9500
 IR Inten    --     18.8599                10.4330                 1.8957

                     13                     14                     15
                      A                      A                      A
 Frequencies --    686.8121               773.2467               804.0793
 Red. masses --      3.0902                 3.1562                 2.3862
 Frc consts  --      0.8589                 1.1119                 0.9090
 IR Inten    --     17.6671                 1.2732                12.0370

                     16                     17                     18
                      A                      A                      A
 Frequencies --    824.2754               864.0301               888.0278
 Red. masses --      1.6641                 2.1281                 2.2816
 Frc consts  --      0.6662                 0.9360                 1.0601
 IR Inten    --      9.9137                 1.0113                 1.9208

                     19                     20                     21
                      A                      A                      A
 Frequencies --    914.1172               939.0973               956.5982
 Red. masses --      2.0845                 3.2538                 1.8751
 Frc consts  --      1.0262                 1.6907                 1.0110
 IR Inten    --     12.3413                29.9309                47.5165

                     22                     23                     24
                      A                      A                      A
 Frequencies --    974.1389              1036.0121              1064.8284
 Red. masses --      2.6038                 1.7854                 2.1421
 Frc consts  --      1.4558                 1.1291                 1.4311
 IR Inten    --     20.1366                 1.3251                 9.8086

                     25                     26                     27
                      A                      A                      A
 Frequencies --   1091.5245              1127.1651              1134.4898
 Red. masses --      1.8024                 2.0994                 1.8810
 Frc consts  --      1.2652                 1.5715                 1.4264
 IR Inten    --     18.9909                 7.8067                24.0487

                     28                     29                     30
                      A                      A                      A
 Frequencies --   1152.2633              1180.2998              1200.3415
 Red. masses --      1.8468                 2.0219                 1.4382
 Frc consts  --      1.4447                 1.6596                 1.2209
 IR Inten    --     24.7205                 5.4484                 2.1935

                     31                     32                     33
                      A                      A                      A
 Frequencies --   1226.6164              1288.9971              1300.5242
 Red. masses --      3.2350                 1.8085                 3.0160
 Frc consts  --      2.8678                 1.7704                 3.0055
 IR Inten    --     77.8459                 7.7625                 4.6129

                     34                     35                     36
                      A                      A                      A
 Frequencies --   1395.8636              1404.0413              1421.5582
 Red. masses --      1.2745                 1.7020                 2.0285
 Frc consts  --      1.4631                 1.9768                 2.4152
 IR Inten    --     45.8086                23.9239                 5.3608

                     37                     38                     39
                      A                      A                      A
 Frequencies --   1435.9714              1479.6947              1486.1173
 Red. masses --      1.8112                 1.0544                 1.0494
 Frc consts  --      2.2005                 1.3602                 1.3655
 IR Inten    --     47.3860                 2.5336                 4.1966

                     40                     41                     42
                      A                      A                      A
 Frequencies --   1496.4957              1503.0751              3025.8942
 Red. masses --      1.0594                 1.0658                 1.0350
 Frc consts  --      1.3979                 1.4188                 5.5833
 IR Inten    --      3.7979                 4.6772                31.6351

                     43                     44                     45
                      A                      A                      A
 Frequencies --   3043.3449              3088.8613              3093.8945
 Red. masses --      1.0349                 1.1008                 1.1007
 Frc consts  --      5.6475                 6.1882                 6.2078
 IR Inten    --     16.6435                20.9700                15.3587

                     46                     47                     48
                      A                      A                      A
 Frequencies --   3111.4328              3123.3886              3140.4968
 Red. masses --      1.1014                 1.1018                 1.0925
 Frc consts  --      6.2823                 6.3327                 6.3485
 IR Inten    --     15.4023                19.2777                31.2583

                     49                     50                     51
                      A                      A                      A
 Frequencies --   3203.5072              3221.0272              3736.2765
 Red. masses --      1.0909                 1.1022                 1.0644
 Frc consts  --      6.5960                 6.7377                 8.7543
 IR Inten    --     12.0428                 7.2263                34.4399

 - Thermochemistry -
 -------------------
 Temperature   298.150 Kelvin.  Pressure   1.00000 Atm.
 Atom     1 has atomic number  6 and mass  12.00000

 Molecular mass:   126.06808 amu.
 Principal axes and moments of inertia in atomic units:
                           1         2         3
     Eigenvalues --   822.28706 903.770411188.04126
           X            0.99466  -0.09306   0.04472
           Y            0.09489   0.99466  -0.04069
           Z           -0.04069   0.04472   0.99817
 This molecule is an asymmetric top.
 Rotational symmetry number  1.
 Warning -- assumption of classical behavior for rotation
           may cause significant error
 Rotational temperatures (Kelvin)      0.10533     0.09584     0.07290
 Rotational constants (GHZ):           2.19478     1.99690     1.51909
 Zero-point vibrational energy     414419.5 (Joules/Mol)
                                   99.04863 (Kcal/Mol)
 Warning -- explicit consideration of  11 degrees of freedom as
           vibrations may cause significant error
 Vibrational temperatures:    255.92   268.47   292.41   317.03   344.17
          (Kelvin)            425.42   514.21   600.76   794.61   823.51
                              853.90   907.98   988.17  1112.53  1156.89
                             1185.95  1243.15  1277.67  1315.21  1351.15
                             1376.33  1401.57  1490.59  1532.05  1570.46
                             1621.74  1632.28  1657.85  1698.19  1727.02
                             1764.83  1854.58  1871.16  2008.33  2020.10
                             2045.30  2066.04  2128.95  2138.19  2153.12
                             2162.59  4353.58  4378.69  4444.18  4451.42
                             4476.65  4493.85  4518.47  4609.13  4634.33
                             5375.66

 Zero-point correction=                           0.157844 (Hartree/Particle)
 Thermal correction to Energy=                    0.166111
 Thermal correction to Enthalpy=                  0.167055
 Thermal correction to Gibbs Free Energy=         0.125753
 Sum of electronic and zero-point Energies=           -422.970168
 Sum of electronic and thermal Energies=              -422.961901
 Sum of electronic and thermal Enthalpies=            -422.960957
 Sum of electronic and thermal Free Energies=         -423.002258

                     E (Thermal)             CV                S
                      KCal/Mol        Cal/Mol-Kelvin    Cal/Mol-Kelvin
 Total                  104.236             32.976             86.926
 Electronic               0.000              0.000              0.000
 Translational            0.889              2.981             40.409
 Rotational               0.889              2.981             28.270
 Vibrational            102.458             27.014             18.247
 Vibration     1          0.628              1.870              2.351
 Vibration     2          0.632              1.858              2.261
 Vibration     3          0.639              1.835              2.104
 Vibration     4          0.647              1.810              1.956
 Vibration     5          0.657              1.780              1.809
 Vibration     6          0.690              1.682              1.441
 Vibration     7          0.733              1.560              1.133
 Vibration     8          0.781              1.432              0.900
 Vibration     9          0.908              1.135              0.539
 Vibration    10          0.929              1.091              0.500
 Vibration    11          0.951              1.046              0.461

 Optimization completed.
    -- Stationary point found.
 Normal termination of Gaussian 09 at Mon Jan 27 17:39:19 2020.
