 Gaussian 09, Revision D.01,
 Gaussian 09:  ES64L-G09RevD.01 24-Apr-2013

 -----------------------------
 # b3lyp 6-31G(2df,p) opt Freq
 -----------------------------

 -----
 titel
 -----
 Symbolic Z-matrix:
 Charge =  0 Multiplicity = 1

 SCF Done:  E(RB3LYP) =  -423.162779512     A.U. after   13 cycles
 Optimization completed.
    -- Stationary point found.
 Normal termination of Gaussian 09 at Mon Jan 27 11:19:29 2020.

 ----------------------------------------------------------------------
 #N Geom=AllCheck Guess=TCheck SCRF=Check GenChk RB3LYP/6-31G(2df,p) Fr
 eq
 ----------------------------------------------------------------------

 Structure from the checkpoint file:  "/scratch/puck/g09_fd31dbab-6ba5-4d35-91ce-f7b9d5bd17fc/Gau-32212.chk"
 -----
 titel
 -----
 Charge =  0 Multiplicity = 1

                         Standard orientation:
 ---------------------------------------------------------------------
 Center     Atomic      Atomic             Coordinates (Angstroms)
 Number     Number       Type             X           Y           Z
 ---------------------------------------------------------------------
      1          6           0       -1.847653   -0.987786    0.262159
      2          6           0       -1.207916    0.040663   -0.650730
      3          8           0       -1.101187    1.380622   -0.283889
      4          6           0        0.278069    1.760944   -0.211464
      5          6           0        1.134126    0.661593    0.500997
      6          6           0        1.815919   -0.388313   -0.438141
      7          6           0        0.805707   -1.584215   -0.436359
      8          6           0       -0.360828   -0.869698    0.203435
      9          8           0        0.210690   -0.121887    1.259328
     10          1           0       -2.310278   -0.643344    1.180001
     11          1           0       -2.336042   -1.827712   -0.220012
     12          1           0       -1.262737   -0.143472   -1.724796
     13          1           0        0.672400    1.973511   -1.217382
     14          1           0        0.294515    2.690187    0.364572
     15          1           0        1.844392    1.127639    1.187108
     16          1           0        1.970593    0.011901   -1.444039
     17          1           0        2.791624   -0.684325   -0.046217
     18          1           0        0.585153   -1.959316   -1.438243
     19          1           0        1.169817   -2.414079    0.176115
 ---------------------------------------------------------------------

 SCF Done:  E(RB3LYP) =  -423.162779512     A.U. after    1 cycles

 The electronic state is 1-A.
 Alpha  occ. eigenvalues --  -19.14303 -19.14162 -10.23490 -10.23290 -10.22775
 Alpha  occ. eigenvalues --  -10.22626 -10.19259 -10.18981 -10.18851  -1.06858
 Alpha  occ. eigenvalues --   -1.01660  -0.84695  -0.78089  -0.71777  -0.66664
 Alpha  occ. eigenvalues --   -0.60652  -0.58323  -0.53264  -0.50876  -0.50425
 Alpha  occ. eigenvalues --   -0.49143  -0.44747  -0.43554  -0.42261  -0.40473
 Alpha  occ. eigenvalues --   -0.38381  -0.36577  -0.35574  -0.33467  -0.33136
 Alpha  occ. eigenvalues --   -0.31635  -0.28892  -0.25415  -0.23344
 Alpha virt. eigenvalues --    0.07201   0.09475   0.10457   0.11548   0.12403
 Alpha virt. eigenvalues --    0.13471   0.14376   0.15965   0.16552   0.17439
 Alpha virt. eigenvalues --    0.18193   0.19575   0.20764   0.21008   0.23283

 Mulliken charges:
               1
     1  C   -0.424237
     2  C    0.051112
     3  O   -0.240591
     4  C   -0.087781
     5  C    0.060568
     6  C   -0.232831
     7  C   -0.298423
     8  C    0.398415
     9  O   -0.266813
    10  H    0.137174
    11  H    0.119888
    12  H    0.079331
    13  H    0.088320
    14  H    0.112619
    15  H    0.082826
    16  H    0.102997
    17  H    0.108029
    18  H    0.102116
    19  H    0.107282
 Sum of Mulliken charges =   0.00000

 Dipole moment (field-independent basis, Debye):
    X=              1.3886    Y=             -0.7352    Z=             -1.3111  Tot=              2.0464
 Quadrupole moment (field-independent basis, Debye-Ang):
   XX=            -51.9827   YY=            -52.1606   ZZ=            -54.1867
   XY=              4.1871   XZ=             -0.0360   YZ=              1.5348

  Exact polarizability:  80.193   5.214  77.217  -0.316   1.370  64.505
 Approx polarizability: 111.438   5.536 108.749   0.633   0.139 103.282

                      1                      2                      3
                      A                      A                      A
 Frequencies --    142.2944               244.2021               326.3826
 Red. masses --      2.0388                 2.7134                 2.2400
 Frc consts  --      0.0243                 0.0953                 0.1406
 IR Inten    --      0.4540                 3.5411                 0.7766

                      4                      5                      6
                      A                      A                      A
 Frequencies --    353.3448               403.7012               487.2384
 Red. masses --      2.3364                 2.4741                 7.5954
 Frc consts  --      0.1719                 0.2376                 1.0624
 IR Inten    --      0.5333                 6.8037                 1.8125

                      7                      8                      9
                      A                      A                      A
 Frequencies --    542.8309               570.1953               650.2203
 Red. masses --      5.0105                 3.2111                 4.9878
 Frc consts  --      0.8699                 0.6151                 1.2425
 IR Inten    --      0.3267                 5.5730                 8.4932

                     10                     11                     12
                      A                      A                      A
 Frequencies --    738.6912               778.1248               825.4456
 Red. masses --      2.1285                 2.6308                 2.0443
 Frc consts  --      0.6843                 0.9385                 0.8207
 IR Inten    --      2.3914                 7.5388                 8.0552

                     13                     14                     15
                      A                      A                      A
 Frequencies --    845.8040               860.9868               864.7577
 Red. masses --      1.7159                 2.5294                 4.1471
 Frc consts  --      0.7233                 1.1048                 1.8272
 IR Inten    --      4.4657                 5.5355                22.4353

                     16                     17                     18
                      A                      A                      A
 Frequencies --    920.4738               930.7356               953.3024
 Red. masses --      2.3949                 2.6572                 2.0134
 Frc consts  --      1.1955                 1.3562                 1.0781
 IR Inten    --      1.3150                 4.8592                 2.2466

                     19                     20                     21
                      A                      A                      A
 Frequencies --   1014.8027              1025.9294              1038.1842
 Red. masses --      2.6405                 3.1686                 3.3556
 Frc consts  --      1.6021                 1.9650                 2.1309
 IR Inten    --     58.2026                26.5424                11.2052

                     22                     23                     24
                      A                      A                      A
 Frequencies --   1054.2408              1075.6802              1091.4020
 Red. masses --      1.3440                 2.1949                 2.0635
 Frc consts  --      0.8801                 1.4963                 1.4482
 IR Inten    --      7.3277                11.9395                 3.2519

                     25                     26                     27
                      A                      A                      A
 Frequencies --   1105.1651              1148.7693              1182.1396
 Red. masses --      1.6781                 1.6029                 2.8128
 Frc consts  --      1.2076                 1.2463                 2.3160
 IR Inten    --      1.9349                 2.1404                69.5761

                     28                     29                     30
                      A                      A                      A
 Frequencies --   1205.0116              1227.1616              1252.7320
 Red. masses --      1.5236                 1.4174                 1.1990
 Frc consts  --      1.3035                 1.2576                 1.1086
 IR Inten    --      1.9496                 4.9549                 0.4026

                     31                     32                     33
                      A                      A                      A
 Frequencies --   1272.9867              1302.2661              1330.6110
 Red. masses --      1.3005                 1.3948                 1.4684
 Frc consts  --      1.2417                 1.3936                 1.5318
 IR Inten    --      4.8060                 3.0913                 1.4513

                     34                     35                     36
                      A                      A                      A
 Frequencies --   1334.4952              1351.6747              1383.6256
 Red. masses --      1.3801                 1.4810                 1.5029
 Frc consts  --      1.4480                 1.5942                 1.6952
 IR Inten    --      6.6785                 4.0363                 5.7666

                     37                     38                     39
                      A                      A                      A
 Frequencies --   1414.6301              1475.2319              1482.4240
 Red. masses --      1.3545                 1.8934                 1.0891
 Frc consts  --      1.5970                 2.4278                 1.4102
 IR Inten    --      5.2375                18.9893                 0.2840

                     40                     41                     42
                      A                      A                      A
 Frequencies --   1499.7519              1510.3127              2983.0378
 Red. masses --      1.1173                 1.1245                 1.0702
 Frc consts  --      1.4807                 1.5113                 5.6108
 IR Inten    --      1.6467                 4.6760                61.5310

                     43                     44                     45
                      A                      A                      A
 Frequencies --   3057.1375              3064.6236              3081.5347
 Red. masses --      1.0597                 1.0627                 1.0910
 Frc consts  --      5.8353                 5.8803                 6.1041
 IR Inten    --     29.3327                29.1210                14.1786

                     46                     47                     48
                      A                      A                      A
 Frequencies --   3085.8726              3094.7895              3105.1405
 Red. masses --      1.0869                 1.0939                 1.1003
 Frc consts  --      6.0984                 6.1729                 6.2504
 IR Inten    --     34.7202                45.9564                 8.4324

                     49                     50                     51
                      A                      A                      A
 Frequencies --   3118.9825              3138.4440              3232.4740
 Red. masses --      1.1055                 1.0552                 1.1169
 Frc consts  --      6.3362                 6.1238                 6.8757
 IR Inten    --     48.0604                 8.2894                 2.6557

 - Thermochemistry -
 -------------------
 Temperature   298.150 Kelvin.  Pressure   1.00000 Atm.
 Atom     1 has atomic number  6 and mass  12.00000

 Molecular mass:   126.06808 amu.
 Principal axes and moments of inertia in atomic units:
                           1         2         3
     Eigenvalues --   729.91856 811.774271164.97281
           X            0.98199   0.18813  -0.01768
           Y           -0.18773   0.98198   0.02173
           Z            0.02145  -0.01802   0.99961
 This molecule is an asymmetric top.
 Rotational symmetry number  1.
 Warning -- assumption of classical behavior for rotation
           may cause significant error
 Rotational temperatures (Kelvin)      0.11866     0.10670     0.07435
 Rotational constants (GHZ):           2.47252     2.22321     1.54917
 Zero-point vibrational energy     425750.9 (Joules/Mol)
                                  101.75691 (Kcal/Mol)
 Warning -- explicit consideration of   8 degrees of freedom as
           vibrations may cause significant error
 Vibrational temperatures:    204.73   351.35   469.59   508.38   580.84
          (Kelvin)            701.03   781.01   820.38   935.52  1062.81
                             1119.55  1187.63  1216.92  1238.77  1244.19
                             1324.35  1339.12  1371.59  1460.07  1476.08
                             1493.71  1516.82  1547.66  1570.28  1590.08
                             1652.82  1700.83  1733.74  1765.61  1802.40
                             1831.54  1873.67  1914.45  1920.04  1944.76
                             1990.73  2035.33  2122.53  2132.87  2157.81
                             2173.00  4291.92  4398.53  4409.30  4433.64
                             4439.88  4452.71  4467.60  4487.51  4515.52
                             4650.80

 Zero-point correction=                           0.162160 (Hartree/Particle)
 Thermal correction to Energy=                    0.168900
 Thermal correction to Enthalpy=                  0.169845
 Thermal correction to Gibbs Free Energy=         0.131377
 Sum of electronic and zero-point Energies=           -423.000620
 Sum of electronic and thermal Energies=              -422.993879
 Sum of electronic and thermal Enthalpies=            -422.992935
 Sum of electronic and thermal Free Energies=         -423.031402

                     E (Thermal)             CV                S
                      KCal/Mol        Cal/Mol-Kelvin    Cal/Mol-Kelvin
 Total                  105.987             28.332             80.961
 Electronic               0.000              0.000              0.000
 Translational            0.889              2.981             40.409
 Rotational               0.889              2.981             28.025
 Vibrational            104.209             22.370             12.527
 Vibration     1          0.616              1.911              2.773
 Vibration     2          0.660              1.772              1.772
 Vibration     3          0.710              1.623              1.278
 Vibration     4          0.730              1.568              1.151
 Vibration     5          0.769              1.462              0.949
 Vibration     6          0.843              1.278              0.691
 Vibration     7          0.898              1.155              0.559
 Vibration     8          0.926              1.096              0.504

 Normal termination of Gaussian 09 at Mon Jan 27 12:10:22 2020.
