 Gaussian 09, Revision D.01,
 Gaussian 09:  ES64L-G09RevD.01 24-Apr-2013

 -----------------------------
 # b3lyp 6-31G(2df,p) opt Freq
 -----------------------------

 -----
 titel
 -----
 Symbolic Z-matrix:
 Charge =  0 Multiplicity = 1

 SCF Done:  E(RB3LYP) =  -423.166855381     A.U. after   14 cycles
 Optimization completed.
    -- Stationary point found.
 Normal termination of Gaussian 09 at Mon Jan 27 22:08:30 2020.

 ----------------------------------------------------------------------
 #N Geom=AllCheck Guess=TCheck SCRF=Check GenChk RB3LYP/6-31G(2df,p) Fr
 eq
 ----------------------------------------------------------------------

 Structure from the checkpoint file:  "/scratch/puck/g09_44418c33-4427-4b0a-96ce-ef846e36dc6d/Gau-51184.chk"
 -----
 titel
 -----
 Charge =  0 Multiplicity = 1

                         Standard orientation:
 ---------------------------------------------------------------------
 Center     Atomic      Atomic             Coordinates (Angstroms)
 Number     Number       Type             X           Y           Z
 ---------------------------------------------------------------------
      1          6           0        1.781679    1.512670    0.340148
      2          6           0        0.741853    0.432085    0.636253
      3          6           0        0.974800   -0.879804   -0.150081
      4          8           0        1.936089   -1.570957   -0.320590
      5          6           0       -0.454545   -0.861548   -0.725751
      6          8           0       -1.368049   -1.497747    0.196458
      7          6           0       -1.741553   -0.228655    0.785750
      8          6           0       -0.680531    0.531925   -0.032982
      9          6           0       -1.083540    1.801185   -0.748352
     10          1           0        1.508280    2.465312    0.803819
     11          1           0        2.753098    1.203728    0.736006
     12          1           0        1.904641    1.679572   -0.734354
     13          1           0        0.683212    0.268655    1.718550
     14          1           0       -0.638412   -1.124838   -1.771525
     15          1           0       -2.779377    0.027673    0.535379
     16          1           0       -1.622250   -0.224285    1.876141
     17          1           0       -1.235198    2.622727   -0.038304
     18          1           0       -0.325912    2.125364   -1.467731
     19          1           0       -2.021390    1.658562   -1.294837
 ---------------------------------------------------------------------

 SCF Done:  E(RB3LYP) =  -423.166855381     A.U. after    1 cycles

 The electronic state is 1-A.
 Alpha  occ. eigenvalues --  -19.14938 -19.14288 -10.26801 -10.23965 -10.23903
 Alpha  occ. eigenvalues --  -10.21199 -10.20238 -10.19302 -10.19148  -1.05847
 Alpha  occ. eigenvalues --   -1.04339  -0.84246  -0.75119  -0.72770  -0.69278
 Alpha  occ. eigenvalues --   -0.62144  -0.56684  -0.52600  -0.49550  -0.49079
 Alpha  occ. eigenvalues --   -0.46584  -0.44267  -0.43082  -0.42473  -0.41636
 Alpha  occ. eigenvalues --   -0.40139  -0.39440  -0.38414  -0.36937  -0.33973
 Alpha  occ. eigenvalues --   -0.31544  -0.29447  -0.28150  -0.23141
 Alpha virt. eigenvalues --   -0.03455   0.06942   0.09115   0.10708   0.11831
 Alpha virt. eigenvalues --    0.12542   0.13432   0.13598   0.15071   0.15407
 Alpha virt. eigenvalues --    0.16956   0.17887   0.18968   0.20393   0.20499

 Mulliken charges:
               1
     1  C   -0.414874
     2  C   -0.177443
     3  C    0.429965
     4  O   -0.301399
     5  C   -0.068221
     6  O   -0.288397
     7  C   -0.114711
     8  C    0.275021
     9  C   -0.498991
    10  H    0.121839
    11  H    0.141004
    12  H    0.123251
    13  H    0.101686
    14  H    0.087383
    15  H    0.101952
    16  H    0.105327
    17  H    0.125587
    18  H    0.126253
    19  H    0.124769
 Sum of Mulliken charges =   0.00000

 Dipole moment (field-independent basis, Debye):
    X=             -1.4769    Y=              3.4855    Z=              0.2272  Tot=              3.7923
 Quadrupole moment (field-independent basis, Debye-Ang):
   XX=            -56.8623   YY=            -58.6472   ZZ=            -50.3166
   XY=              1.9133   XZ=              0.9713   YZ=              0.2442

  Exact polarizability:  83.679  -2.014  75.272  -0.491   2.887  66.989
 Approx polarizability: 118.825  -6.908 109.880  -3.769   6.176 102.501

                      1                      2                      3
                      A                      A                      A
 Frequencies --     50.8976               176.9524               195.0229
 Red. masses --      4.3726                 3.8664                 1.7369
 Frc consts  --      0.0067                 0.0713                 0.0389
 IR Inten    --      1.0969                 3.2722                 2.6224

                      4                      5                      6
                      A                      A                      A
 Frequencies --    200.5194               206.4849               254.7157
 Red. masses --      1.3816                 1.4943                 1.7283
 Frc consts  --      0.0327                 0.0375                 0.0661
 IR Inten    --      0.1357                 2.6969                 0.4125

                      7                      8                      9
                      A                      A                      A
 Frequencies --    301.7779               337.6965               390.1767
 Red. masses --      2.8998                 2.4294                 3.5356
 Frc consts  --      0.1556                 0.1632                 0.3171
 IR Inten    --      0.4262                 1.0611                 1.8329

                     10                     11                     12
                      A                      A                      A
 Frequencies --    441.0680               593.8285               658.9367
 Red. masses --      3.6343                 4.7721                 3.4275
 Frc consts  --      0.4166                 0.9915                 0.8768
 IR Inten    --      1.8186                 0.9573                 1.3693

                     13                     14                     15
                      A                      A                      A
 Frequencies --    742.8031               776.4500               782.5616
 Red. masses --      3.2270                 3.0306                 2.4606
 Frc consts  --      1.0491                 1.0765                 0.8878
 IR Inten    --      4.8306                 7.1598                 0.3497

                     16                     17                     18
                      A                      A                      A
 Frequencies --    836.0064               921.0337               978.8801
 Red. masses --      2.5190                 2.0771                 1.7293
 Frc consts  --      1.0373                 1.0381                 0.9763
 IR Inten    --     17.4844                16.8470                 8.4417

                     19                     20                     21
                      A                      A                      A
 Frequencies --    991.9662               996.4771              1035.8342
 Red. masses --      1.9672                 3.3217                 1.8546
 Frc consts  --      1.1405                 1.9433                 1.1724
 IR Inten    --     17.1594                19.2133                12.9140

                     22                     23                     24
                      A                      A                      A
 Frequencies --   1043.4510              1094.7005              1105.7167
 Red. masses --      1.9839                 2.7850                 3.1265
 Frc consts  --      1.2726                 1.9664                 2.2522
 IR Inten    --     30.7827                14.0894                 6.4102

                     25                     26                     27
                      A                      A                      A
 Frequencies --   1142.1546              1159.0978              1169.7579
 Red. masses --      1.5145                 1.9963                 1.4746
 Frc consts  --      1.1640                 1.5802                 1.1888
 IR Inten    --      0.8493                 9.3364                 1.3745

                     28                     29                     30
                      A                      A                      A
 Frequencies --   1219.9996              1239.3760              1264.4939
 Red. masses --      2.0794                 1.8544                 1.3850
 Frc consts  --      1.8235                 1.6783                 1.3047
 IR Inten    --     11.1079                 2.3585                 1.7481

                     31                     32                     33
                      A                      A                      A
 Frequencies --   1288.1787              1325.1824              1366.8830
 Red. masses --      2.2955                 1.5687                 1.7781
 Frc consts  --      2.2443                 1.6231                 1.9574
 IR Inten    --      2.5442                 3.2862                 0.3388

                     34                     35                     36
                      A                      A                      A
 Frequencies --   1404.5635              1420.1095              1486.9348
 Red. masses --      1.2423                 1.2512                 1.0461
 Frc consts  --      1.4440                 1.4867                 1.3627
 IR Inten    --      1.8910                 2.1674                 5.8385

                     37                     38                     39
                      A                      A                      A
 Frequencies --   1488.9088              1500.3041              1503.4871
 Red. masses --      1.0499                 1.0521                 1.0459
 Frc consts  --      1.3713                 1.3953                 1.3930
 IR Inten    --      3.7020                 2.4782                 8.3639

                     40                     41                     42
                      A                      A                      A
 Frequencies --   1521.8114              1887.5834              3007.0607
 Red. masses --      1.0952                12.5830                 1.0556
 Frc consts  --      1.4944                26.4148                 5.6241
 IR Inten    --      0.8496               230.9738                68.4168

                     43                     44                     45
                      A                      A                      A
 Frequencies --   3030.0806              3040.2096              3041.0898
 Red. masses --      1.0375                 1.0364                 1.0823
 Frc consts  --      5.6125                 5.6441                 5.8972
 IR Inten    --     20.6684                25.4706                 6.0303

                     46                     47                     48
                      A                      A                      A
 Frequencies --   3056.5408              3072.8490              3092.0925
 Red. masses --      1.1093                 1.0892                 1.0993
 Frc consts  --      6.1059                 6.0593                 6.1928
 IR Inten    --     40.1536                32.8254                14.7944

                     49                     50                     51
                      A                      A                      A
 Frequencies --   3105.7698              3111.4199              3118.2430
 Red. masses --      1.1013                 1.1013                 1.1013
 Frc consts  --      6.2587                 6.2819                 6.3091
 IR Inten    --     20.1100                28.9497                12.6366

 - Thermochemistry -
 -------------------
 Temperature   298.150 Kelvin.  Pressure   1.00000 Atm.
 Atom     1 has atomic number  6 and mass  12.00000

 Molecular mass:   126.06808 amu.
 Principal axes and moments of inertia in atomic units:
                           1         2         3
     Eigenvalues --   842.121151001.026231523.45075
           X            0.99586   0.08979   0.01409
           Y           -0.08964   0.99592  -0.01081
           Z           -0.01500   0.00950   0.99984
 This molecule is an asymmetric top.
 Rotational symmetry number  1.
 Warning -- assumption of classical behavior for rotation
           may cause significant error
 Rotational temperatures (Kelvin)      0.10285     0.08653     0.05685
 Rotational constants (GHZ):           2.14309     1.80289     1.18464
 Zero-point vibrational energy     413777.2 (Joules/Mol)
                                   98.89512 (Kcal/Mol)
 Warning -- explicit consideration of  11 degrees of freedom as
           vibrations may cause significant error
 Vibrational temperatures:     73.23   254.59   280.59   288.50   297.09
          (Kelvin)            366.48   434.19   485.87   561.38   634.60
                              854.39   948.06  1068.73  1117.14  1125.93
                             1202.83  1325.16  1408.39  1427.22  1433.71
                             1490.33  1501.29  1575.03  1590.88  1643.30
                             1667.68  1683.02  1755.31  1783.18  1819.32
                             1853.40  1906.64  1966.64  2020.85  2043.22
                             2139.36  2142.20  2158.60  2163.18  2189.54
                             2715.81  4326.48  4359.60  4374.18  4375.44
                             4397.67  4421.14  4448.83  4468.50  4476.63
                             4486.45

 Zero-point correction=                           0.157599 (Hartree/Particle)
 Thermal correction to Energy=                    0.166484
 Thermal correction to Enthalpy=                  0.167428
 Thermal correction to Gibbs Free Energy=         0.123924
 Sum of electronic and zero-point Energies=           -423.009256
 Sum of electronic and thermal Energies=              -423.000371
 Sum of electronic and thermal Enthalpies=            -422.999427
 Sum of electronic and thermal Free Energies=         -423.042931

                     E (Thermal)             CV                S
                      KCal/Mol        Cal/Mol-Kelvin    Cal/Mol-Kelvin
 Total                  104.470             33.012             91.562
 Electronic               0.000              0.000              0.000
 Translational            0.889              2.981             40.409
 Rotational               0.889              2.981             28.642
 Vibrational            102.693             27.050             22.511
 Vibration     1          0.595              1.977              4.782
 Vibration     2          0.628              1.871              2.360
 Vibration     3          0.636              1.847              2.180
 Vibration     4          0.638              1.839              2.128
 Vibration     5          0.641              1.831              2.075
 Vibration     6          0.665              1.755              1.698
 Vibration     7          0.694              1.670              1.407
 Vibration     8          0.718              1.600              1.223
 Vibration     9          0.758              1.491              0.999
 Vibration    10          0.801              1.381              0.823
 Vibration    11          0.951              1.045              0.460

 Normal termination of Gaussian 09 at Mon Jan 27 23:51:20 2020.
