 Gaussian 09, Revision D.01,
 Gaussian 09:  ES64L-G09RevD.01 24-Apr-2013

 -----------------------------
 # b3lyp 6-31G(2df,p) opt Freq
 -----------------------------

 -----
 titel
 -----
 Symbolic Z-matrix:
 Charge =  0 Multiplicity = 1

 SCF Done:  E(RB3LYP) =  -423.172422441     A.U. after   14 cycles
 Optimization completed.
    -- Stationary point found.
 Normal termination of Gaussian 09 at Tue Jan 28 02:06:00 2020.

 ----------------------------------------------------------------------
 #N Geom=AllCheck Guess=TCheck SCRF=Check GenChk RB3LYP/6-31G(2df,p) Fr
 eq
 ----------------------------------------------------------------------

 Structure from the checkpoint file:  "/scratch/puck/g09_0d32d945-3ae1-4d7f-88ec-314b5794fc42/Gau-75894.chk"
 -----
 titel
 -----
 Charge =  0 Multiplicity = 1

                         Standard orientation:
 ---------------------------------------------------------------------
 Center     Atomic      Atomic             Coordinates (Angstroms)
 Number     Number       Type             X           Y           Z
 ---------------------------------------------------------------------
      1          6           0       -2.890046    0.578584   -0.401766
      2          6           0       -1.813299   -0.460839   -0.220531
      3          8           0       -1.266996   -0.630956    1.086986
      4          6           0       -0.385284   -0.176556    0.031069
      5          6           0        0.645787   -1.180476   -0.454618
      6          8           0        1.906773   -0.978255    0.155207
      7          6           0        2.452875    0.288664   -0.148972
      8          6           0        1.471376    1.411112    0.045753
      9          6           0        0.161604    1.193141    0.165708
     10          1           0       -3.841381    0.200453   -0.013184
     11          1           0       -2.656442    1.503385    0.129057
     12          1           0       -3.028884    0.806275   -1.464080
     13          1           0       -2.022984   -1.407014   -0.728985
     14          1           0        0.327375   -2.192430   -0.193065
     15          1           0        0.734448   -1.109400   -1.553185
     16          1           0        3.313523    0.417271    0.517116
     17          1           0        2.845803    0.307212   -1.184130
     18          1           0        1.878754    2.417427    0.094361
     19          1           0       -0.526504    2.008726    0.358690
 ---------------------------------------------------------------------

 SCF Done:  E(RB3LYP) =  -423.172422441     A.U. after    1 cycles

 The electronic state is 1-A.
 Alpha  occ. eigenvalues --  -19.14462 -19.14174 -10.23989 -10.23913 -10.23603
 Alpha  occ. eigenvalues --  -10.23007 -10.19275 -10.18913 -10.18595  -1.06613
 Alpha  occ. eigenvalues --   -1.03689  -0.79895  -0.75529  -0.74669  -0.65815
 Alpha  occ. eigenvalues --   -0.63065  -0.59571  -0.52355  -0.51478  -0.49704
 Alpha  occ. eigenvalues --   -0.47408  -0.45106  -0.43305  -0.41971  -0.41059
 Alpha  occ. eigenvalues --   -0.39950  -0.39051  -0.37483  -0.36404  -0.32629
 Alpha  occ. eigenvalues --   -0.29571  -0.27870  -0.25813  -0.23922
 Alpha virt. eigenvalues --    0.00260   0.08458   0.10950   0.11206   0.11548
 Alpha virt. eigenvalues --    0.12812   0.13932   0.15111   0.15569   0.16780
 Alpha virt. eigenvalues --    0.17013   0.18089   0.19959   0.21113   0.22297

 Mulliken charges:
               1
     1  C   -0.427928
     2  C    0.013013
     3  O   -0.299900
     4  C    0.363986
     5  C   -0.161804
     6  O   -0.243281
     7  C   -0.128018
     8  C   -0.087811
     9  C   -0.121654
    10  H    0.132455
    11  H    0.130352
    12  H    0.123784
    13  H    0.082621
    14  H    0.120456
    15  H    0.088554
    16  H    0.122789
    17  H    0.097859
    18  H    0.099932
    19  H    0.094596
 Sum of Mulliken charges =   0.00000

 Dipole moment (field-independent basis, Debye):
    X=             -0.3147    Y=              1.4692    Z=             -2.2471  Tot=              2.7031
 Quadrupole moment (field-independent basis, Debye-Ang):
   XX=            -49.4554   YY=            -51.7204   ZZ=            -56.0034
   XY=              2.9429   XZ=              1.5389   YZ=              2.4879

  Exact polarizability: 107.093   6.888  73.293  -0.206   2.384  57.215
 Approx polarizability: 147.218  13.168 105.249  -2.980  -0.657  94.158

                      1                      2                      3
                      A                      A                      A
 Frequencies --     87.3427               150.8942               192.7603
 Red. masses --      2.9691                 1.4220                 2.0143
 Frc consts  --      0.0133                 0.0191                 0.0441
 IR Inten    --      0.0615                 0.3584                 0.1230

                      4                      5                      6
                      A                      A                      A
 Frequencies --    224.4281               290.1670               292.4320
 Red. masses --      2.5514                 2.7629                 2.8000
 Frc consts  --      0.0757                 0.1371                 0.1411
 IR Inten    --      0.1691                 4.0219                 3.8264

                      7                      8                      9
                      A                      A                      A
 Frequencies --    385.8822               453.0796               472.7999
 Red. masses --      3.1071                 2.6568                 4.2261
 Frc consts  --      0.2726                 0.3213                 0.5566
 IR Inten    --      3.1584                 2.6335                 2.3543

                     10                     11                     12
                      A                      A                      A
 Frequencies --    498.6719               565.1378               688.7336
 Red. masses --      3.2398                 3.0182                 5.5602
 Frc consts  --      0.4747                 0.5679                 1.5540
 IR Inten    --     10.3446                 8.3099                 1.7248

                     13                     14                     15
                      A                      A                      A
 Frequencies --    723.2070               761.7495               865.6567
 Red. masses --      2.1672                 2.2282                 3.0990
 Frc consts  --      0.6678                 0.7618                 1.3682
 IR Inten    --     10.3927                18.0647                15.8765

                     16                     17                     18
                      A                      A                      A
 Frequencies --    903.4980               930.9992               971.6620
 Red. masses --      3.2283                 3.4749                 2.8922
 Frc consts  --      1.5527                 1.7746                 1.6088
 IR Inten    --     26.1634                12.4504                18.1721

                     19                     20                     21
                      A                      A                      A
 Frequencies --    979.0935               987.8461              1025.0175
 Red. masses --      1.4223                 1.3217                 1.8874
 Frc consts  --      0.8033                 0.7599                 1.1684
 IR Inten    --      5.8205                 5.1415                10.4696

                     22                     23                     24
                      A                      A                      A
 Frequencies --   1037.5906              1080.5570              1121.4628
 Red. masses --      2.2229                 2.1161                 2.2434
 Frc consts  --      1.4100                 1.4557                 1.6624
 IR Inten    --      4.3603                13.2535                10.1366

                     25                     26                     27
                      A                      A                      A
 Frequencies --   1132.0680              1166.4546              1204.9108
 Red. masses --      2.5731                 1.7730                 1.5813
 Frc consts  --      1.9429                 1.4214                 1.3526
 IR Inten    --     70.7992                27.0380                 9.2095

                     28                     29                     30
                      A                      A                      A
 Frequencies --   1246.2676              1292.1965              1308.4459
 Red. masses --      1.1283                 1.7531                 1.3643
 Frc consts  --      1.0326                 1.7247                 1.3762
 IR Inten    --      7.9007                 4.6398                 0.1622

                     31                     32                     33
                      A                      A                      A
 Frequencies --   1327.9239              1369.2606              1406.6272
 Red. masses --      1.3504                 1.3349                 1.3170
 Frc consts  --      1.4030                 1.4745                 1.5353
 IR Inten    --     15.1629                 2.1292                 7.6713

                     34                     35                     36
                      A                      A                      A
 Frequencies --   1414.1140              1426.7905              1464.8792
 Red. masses --      1.4640                 1.5464                 1.5285
 Frc consts  --      1.7248                 1.8548                 1.9325
 IR Inten    --      5.0738                 4.9713                12.0659

                     37                     38                     39
                      A                      A                      A
 Frequencies --   1476.0159              1486.9107              1489.1193
 Red. masses --      1.0784                 1.1024                 1.1671
 Frc consts  --      1.3842                 1.4361                 1.5249
 IR Inten    --      0.5248                 6.0331                 5.1513

                     40                     41                     42
                      A                      A                      A
 Frequencies --   1508.6438              1711.5311              2919.1519
 Red. masses --      1.4059                 7.0445                 1.0728
 Frc consts  --      1.8853                12.1582                 5.3861
 IR Inten    --      6.9817                 0.4419                64.9331

                     43                     44                     45
                      A                      A                      A
 Frequencies --   2951.5299              3040.2781              3057.6318
 Red. masses --      1.0706                 1.0392                 1.0837
 Frc consts  --      5.4950                 5.6592                 5.9693
 IR Inten    --     53.8247                19.6929                31.2089

                     46                     47                     48
                      A                      A                      A
 Frequencies --   3059.7116              3101.4806              3103.3386
 Red. masses --      1.0864                 1.1006                 1.0922
 Frc consts  --      5.9926                 6.2378                 6.1973
 IR Inten    --     28.1521                14.7153                19.1553

                     49                     50                     51
                      A                      A                      A
 Frequencies --   3136.0203              3163.1164              3192.6980
 Red. masses --      1.0994                 1.0862                 1.0955
 Frc consts  --      6.3701                 6.4030                 6.5795
 IR Inten    --     21.7725                 6.4878                16.7426

 - Thermochemistry -
 -------------------
 Temperature   298.150 Kelvin.  Pressure   1.00000 Atm.
 Atom     1 has atomic number  6 and mass  12.00000

 Molecular mass:   126.06808 amu.
 Principal axes and moments of inertia in atomic units:
                           1         2         3
     Eigenvalues --   501.012061497.992671772.85281
           X            0.99997  -0.00117   0.00787
           Y            0.00088   0.99931   0.03720
           Z           -0.00790  -0.03720   0.99928
 This molecule is an asymmetric top.
 Rotational symmetry number  1.
 Warning -- assumption of classical behavior for rotation
           may cause significant error
 Rotational temperatures (Kelvin)      0.17288     0.05782     0.04886
 Rotational constants (GHZ):           3.60219     1.20477     1.01799
 Zero-point vibrational energy     417782.5 (Joules/Mol)
                                   99.85242 (Kcal/Mol)
 Warning -- explicit consideration of  11 degrees of freedom as
           vibrations may cause significant error
 Vibrational temperatures:    125.67   217.10   277.34   322.90   417.49
          (Kelvin)            420.74   555.20   651.88   680.25   717.48
                              813.11   990.93  1040.53  1095.99  1245.49
                             1299.93  1339.50  1398.00  1408.70  1421.29
                             1474.77  1492.86  1554.68  1613.53  1628.79
                             1678.27  1733.60  1793.10  1859.18  1882.56
                             1910.58  1970.06  2023.82  2034.59  2052.83
                             2107.63  2123.65  2139.33  2142.51  2170.60
                             2462.51  4200.00  4246.59  4374.28  4399.24
                             4402.24  4462.33  4465.01  4512.03  4551.01
                             4593.57

 Zero-point correction=                           0.159125 (Hartree/Particle)
 Thermal correction to Energy=                    0.167421
 Thermal correction to Enthalpy=                  0.168365
 Thermal correction to Gibbs Free Energy=         0.126326
 Sum of electronic and zero-point Energies=           -423.013297
 Sum of electronic and thermal Energies=              -423.005001
 Sum of electronic and thermal Enthalpies=            -423.004057
 Sum of electronic and thermal Free Energies=         -423.046097

                     E (Thermal)             CV                S
                      KCal/Mol        Cal/Mol-Kelvin    Cal/Mol-Kelvin
 Total                  105.058             31.824             88.480
 Electronic               0.000              0.000              0.000
 Translational            0.889              2.981             40.409
 Rotational               0.889              2.981             28.677
 Vibrational            103.281             25.862             19.394
 Vibration     1          0.601              1.958              3.719
 Vibration     2          0.618              1.902              2.661
 Vibration     3          0.635              1.850              2.201
 Vibration     4          0.649              1.804              1.923
 Vibration     5          0.686              1.692              1.473
 Vibration     6          0.688              1.688              1.460
 Vibration     7          0.755              1.500              1.016
 Vibration     8          0.812              1.354              0.787
 Vibration     9          0.830              1.310              0.730
 Vibration    10          0.854              1.253              0.661
 Vibration    11          0.921              1.107              0.514

 Optimization completed.
    -- Stationary point found.
 Normal termination of Gaussian 09 at Tue Jan 28 02:47:01 2020.
