 Gaussian 09, Revision D.01,
 Gaussian 09:  ES64L-G09RevD.01 24-Apr-2013

 -----------------------------
 # b3lyp 6-31G(2df,p) opt Freq
 -----------------------------

 -----
 titel
 -----
 Symbolic Z-matrix:
 Charge =  0 Multiplicity = 1

 SCF Done:  E(RB3LYP) =  -423.173040482     A.U. after   14 cycles
 Optimization completed.
    -- Stationary point found.
 Normal termination of Gaussian 09 at Mon Jan 27 14:09:47 2020.

 ----------------------------------------------------------------------
 #N Geom=AllCheck Guess=TCheck SCRF=Check GenChk RB3LYP/6-31G(2df,p) Fr
 eq
 ----------------------------------------------------------------------

 Structure from the checkpoint file:  "/scratch/puck/g09_dec3a2af-6e87-468b-924a-28294ea02155/Gau-171968.chk"
 -----
 titel
 -----
 Charge =  0 Multiplicity = 1

                         Standard orientation:
 ---------------------------------------------------------------------
 Center     Atomic      Atomic             Coordinates (Angstroms)
 Number     Number       Type             X           Y           Z
 ---------------------------------------------------------------------
      1          6           0       -2.527225    0.631741   -0.662383
      2          6           0       -1.515311   -0.242726    0.054014
      3          8           0       -1.760871   -0.764373    1.119375
      4          6           0       -0.163989   -0.392758   -0.624593
      5          6           0        0.674724   -1.624097   -0.145661
      6          6           0        1.719733   -0.656594    0.411851
      7          8           0        2.152469    0.185188   -0.673252
      8          6           0        0.942532    0.524512    0.005495
      9          6           0        0.796182    1.900997    0.566099
     10          1           0       -2.084801    1.597007   -0.932880
     11          1           0       -2.827668    0.150943   -1.601030
     12          1           0       -3.405401    0.784052   -0.033926
     13          1           0       -0.248852   -0.248890   -1.704799
     14          1           0        0.141647   -2.165982    0.637534
     15          1           0        1.027061   -2.305914   -0.922416
     16          1           0        2.416897   -0.795512    1.230197
     17          1           0        0.594758    2.629211   -0.228141
     18          1           0       -0.025713    1.943555    1.287498
     19          1           0        1.719418    2.198558    1.070058
 ---------------------------------------------------------------------

 SCF Done:  E(RB3LYP) =  -423.173040482     A.U. after    1 cycles

 The electronic state is 1-A.
 Alpha  occ. eigenvalues --  -19.15064 -19.13238 -10.27331 -10.25050 -10.23621
 Alpha  occ. eigenvalues --  -10.19999 -10.19312 -10.19309 -10.18871  -1.07926
 Alpha  occ. eigenvalues --   -1.04237  -0.81356  -0.75309  -0.74697  -0.66965
 Alpha  occ. eigenvalues --   -0.61390  -0.57856  -0.51248  -0.49595  -0.47844
 Alpha  occ. eigenvalues --   -0.47164  -0.44030  -0.43151  -0.42778  -0.41970
 Alpha  occ. eigenvalues --   -0.40391  -0.38967  -0.36873  -0.35753  -0.34883
 Alpha  occ. eigenvalues --   -0.32696  -0.29281  -0.25945  -0.24487
 Alpha virt. eigenvalues --   -0.01970   0.08026   0.09176   0.10927   0.12448
 Alpha virt. eigenvalues --    0.13007   0.13263   0.13951   0.15045   0.16359
 Alpha virt. eigenvalues --    0.16656   0.18294   0.18841   0.19470   0.21740

 Mulliken charges:
               1
     1  C   -0.484006
     2  C    0.371949
     3  O   -0.308101
     4  C   -0.170901
     5  C   -0.269954
     6  C   -0.032029
     7  O   -0.291438
     8  C    0.431338
     9  C   -0.512896
    10  H    0.138829
    11  H    0.145524
    12  H    0.141948
    13  H    0.083863
    14  H    0.135462
    15  H    0.107743
    16  H    0.104657
    17  H    0.129330
    18  H    0.139076
    19  H    0.139605
 Sum of Mulliken charges =   0.00000

 Dipole moment (field-independent basis, Debye):
    X=             -0.5560    Y=              1.0602    Z=             -0.8080  Tot=              1.4444
 Quadrupole moment (field-independent basis, Debye-Ang):
   XX=            -56.4598   YY=            -50.8755   ZZ=            -54.6394
   XY=             -3.3777   XZ=              7.9126   YZ=              1.9096

  Exact polarizability:  83.749  -3.863  77.261   2.767  -2.434  66.595
 Approx polarizability: 114.766  -2.163 110.765  -3.399 -10.893 110.822

                      1                      2                      3
                      A                      A                      A
 Frequencies --     49.1244               115.8752               134.4829
 Red. masses --      3.9836                 3.5036                 1.3922
 Frc consts  --      0.0057                 0.0277                 0.0148
 IR Inten    --      4.0934                 3.7476                 0.8333

                      4                      5                      6
                      A                      A                      A
 Frequencies --    146.5529               212.6465               278.7009
 Red. masses --      1.8686                 1.0755                 2.5599
 Frc consts  --      0.0236                 0.0287                 0.1172
 IR Inten    --      0.5631                 0.4361                 6.6912

                      7                      8                      9
                      A                      A                      A
 Frequencies --    317.6821               365.0422               388.2290
 Red. masses --      2.7918                 3.2888                 3.3470
 Frc consts  --      0.1660                 0.2582                 0.2972
 IR Inten    --      0.3866                 3.3349                 2.3878

                     10                     11                     12
                      A                      A                      A
 Frequencies --    472.1948               570.5578               588.3541
 Red. masses --      3.1537                 3.0314                 3.5324
 Frc consts  --      0.4143                 0.5814                 0.7204
 IR Inten    --      8.3388                 1.9893                14.3927

                     13                     14                     15
                      A                      A                      A
 Frequencies --    645.1161               741.0892               790.5761
 Red. masses --      3.3141                 3.2853                 3.0228
 Frc consts  --      0.8126                 1.0631                 1.1131
 IR Inten    --      0.8723                 5.3535                 1.3560

                     16                     17                     18
                      A                      A                      A
 Frequencies --    866.2575               871.0462               927.6865
 Red. masses --      2.5694                 2.8630                 2.2368
 Frc consts  --      1.1360                 1.2799                 1.1342
 IR Inten    --     30.2393                 2.0292                 0.8242

                     19                     20                     21
                      A                      A                      A
 Frequencies --    937.5503               970.2698              1003.0850
 Red. masses --      2.2698                 1.6460                 1.7799
 Frc consts  --      1.1755                 0.9130                 1.0552
 IR Inten    --     10.4499                 5.7468                 6.5952

                     22                     23                     24
                      A                      A                      A
 Frequencies --   1029.3723              1040.2663              1067.7957
 Red. masses --      1.6908                 2.4665                 2.1642
 Frc consts  --      1.0556                 1.5726                 1.4538
 IR Inten    --      1.8525                12.1516                 4.5772

                     25                     26                     27
                      A                      A                      A
 Frequencies --   1099.7040              1167.0489              1182.0576
 Red. masses --      1.7456                 1.5458                 1.9225
 Frc consts  --      1.2438                 1.2404                 1.5827
 IR Inten    --      4.8305                24.1793                90.2233

                     28                     29                     30
                      A                      A                      A
 Frequencies --   1186.9493              1212.1044              1264.8494
 Red. masses --      1.8216                 1.4319                 1.6026
 Frc consts  --      1.5120                 1.2395                 1.5106
 IR Inten    --     29.3697                 4.9892                 3.8600

                     31                     32                     33
                      A                      A                      A
 Frequencies --   1270.7775              1345.8872              1381.9549
 Red. masses --      1.5504                 1.6652                 1.3866
 Frc consts  --      1.4751                 1.7772                 1.5603
 IR Inten    --     13.6104                29.2762                45.8479

                     34                     35                     36
                      A                      A                      A
 Frequencies --   1404.9898              1449.5050              1461.1195
 Red. masses --      1.2913                 1.6635                 1.0561
 Frc consts  --      1.5018                 2.0593                 1.3284
 IR Inten    --      3.9020                 9.3522                11.4278

                     37                     38                     39
                      A                      A                      A
 Frequencies --   1471.0482              1474.8564              1486.1950
 Red. masses --      1.3236                 1.0726                 1.0906
 Frc consts  --      1.6876                 1.3746                 1.4193
 IR Inten    --      9.4130                 5.0865                 7.1599

                     40                     41                     42
                      A                      A                      A
 Frequencies --   1495.5233              1801.2994              3033.1818
 Red. masses --      1.3993                10.4245                 1.0374
 Frc consts  --      1.8440                19.9286                 5.6232
 IR Inten    --      5.9276               115.5526                15.7496

                     43                     44                     45
                      A                      A                      A
 Frequencies --   3033.6716              3072.9499              3079.6786
 Red. masses --      1.0373                 1.0633                 1.0799
 Frc consts  --      5.6244                 5.9157                 6.0345
 IR Inten    --      3.8455                27.2401                18.3861

                     46                     47                     48
                      A                      A                      A
 Frequencies --   3093.6125              3097.8060              3123.4444
 Red. masses --      1.0976                 1.0985                 1.1011
 Frc consts  --      6.1893                 6.2110                 6.3294
 IR Inten    --      8.4911                13.0131                11.5124

                     49                     50                     51
                      A                      A                      A
 Frequencies --   3142.0957              3152.1824              3186.9856
 Red. masses --      1.1079                 1.1020                 1.0942
 Frc consts  --      6.4446                 6.4517                 6.5479
 IR Inten    --      6.5456                10.9900                19.5459

 - Thermochemistry -
 -------------------
 Temperature   298.150 Kelvin.  Pressure   1.00000 Atm.
 Atom     1 has atomic number  6 and mass  12.00000

 Molecular mass:   126.06808 amu.
 Principal axes and moments of inertia in atomic units:
                           1         2         3
     Eigenvalues --   661.074401347.848531616.45708
           X            0.99873  -0.03139   0.03944
           Y            0.03014   0.99904   0.03186
           Z           -0.04040  -0.03063   0.99871
 This molecule is an asymmetric top.
 Rotational symmetry number  1.
 Warning -- assumption of classical behavior for rotation
           may cause significant error
 Rotational temperatures (Kelvin)      0.13102     0.06426     0.05358
 Rotational constants (GHZ):           2.73001     1.33898     1.11648
 Zero-point vibrational energy     410923.4 (Joules/Mol)
                                   98.21306 (Kcal/Mol)
 Warning -- explicit consideration of  12 degrees of freedom as
           vibrations may cause significant error
 Vibrational temperatures:     70.68   166.72   193.49   210.86   305.95
          (Kelvin)            400.99   457.07   525.21   558.57   679.38
                              820.90   846.51   928.18  1066.26  1137.46
                             1246.35  1253.24  1334.73  1348.92  1396.00
                             1443.21  1481.04  1496.71  1536.32  1582.23
                             1679.12  1700.72  1707.75  1743.95  1819.83
                             1828.36  1936.43  1988.32  2021.46  2085.51
                             2102.22  2116.51  2121.99  2138.30  2151.72
                             2591.66  4364.07  4364.77  4421.28  4430.97
                             4451.01  4457.05  4493.93  4520.77  4535.28
                             4585.36

 Zero-point correction=                           0.156512 (Hartree/Particle)
 Thermal correction to Energy=                    0.165731
 Thermal correction to Enthalpy=                  0.166675
 Thermal correction to Gibbs Free Energy=         0.122123
 Sum of electronic and zero-point Energies=           -423.016528
 Sum of electronic and thermal Energies=              -423.007309
 Sum of electronic and thermal Enthalpies=            -423.006365
 Sum of electronic and thermal Free Energies=         -423.050918

                     E (Thermal)             CV                S
                      KCal/Mol        Cal/Mol-Kelvin    Cal/Mol-Kelvin
 Total                  103.998             33.841             93.768
 Electronic               0.000              0.000              0.000
 Translational            0.889              2.981             40.409
 Rotational               0.889              2.981             28.756
 Vibrational            102.220             27.880             24.604
 Vibration     1          0.595              1.978              4.852
 Vibration     2          0.608              1.936              3.168
 Vibration     3          0.613              1.919              2.881
 Vibration     4          0.617              1.906              2.717
 Vibration     5          0.644              1.822              2.021
 Vibration     6          0.679              1.713              1.542
 Vibration     7          0.704              1.640              1.322
 Vibration     8          0.738              1.544              1.101
 Vibration     9          0.756              1.495              1.007
 Vibration    10          0.829              1.312              0.731
 Vibration    11          0.927              1.095              0.503
 Vibration    12          0.946              1.057              0.470

 Normal termination of Gaussian 09 at Mon Jan 27 14:51:58 2020.
