 Gaussian 09, Revision D.01,
 Gaussian 09:  ES64L-G09RevD.01 24-Apr-2013

 -----------------------------
 # b3lyp 6-31G(2df,p) opt Freq
 -----------------------------

 -----
 titel
 -----
 Symbolic Z-matrix:
 Charge =  0 Multiplicity = 1

 SCF Done:  E(RB3LYP) =  -423.108756647     A.U. after   14 cycles
 Optimization completed.
    -- Stationary point found.
 Normal termination of Gaussian 09 at Tue Jan 28 12:08:14 2020.

 ----------------------------------------------------------------------
 #N Geom=AllCheck Guess=TCheck SCRF=Check GenChk RB3LYP/6-31G(2df,p) Fr
 eq
 ----------------------------------------------------------------------

 Structure from the checkpoint file:  "/scratch/puck/g09_1fe460c9-5b42-44ee-b2e7-28e619364cf5/Gau-138087.chk"
 -----
 titel
 -----
 Charge =  0 Multiplicity = 1

                         Standard orientation:
 ---------------------------------------------------------------------
 Center     Atomic      Atomic             Coordinates (Angstroms)
 Number     Number       Type             X           Y           Z
 ---------------------------------------------------------------------
      1          6           0        2.813346   -0.289577    0.103535
      2          8           0        1.657541   -1.088805    0.274555
      3          6           0        0.626042   -0.871334   -0.661236
      4          6           0       -0.473831    0.062408   -0.121137
      5          6           0       -1.240963   -0.505355    1.106507
      6          6           0       -2.434601   -0.611019    0.139733
      7          8           0       -1.662635   -0.063944   -0.954879
      8          6           0       -0.042967    1.450692   -0.008415
      9          6           0        0.285194    2.604366    0.081215
     10          1           0        2.606733    0.777016    0.249338
     11          1           0        3.536675   -0.619178    0.853671
     12          1           0        3.252007   -0.430868   -0.895656
     13          1           0        1.009138   -0.479513   -1.613368
     14          1           0        0.151033   -1.839053   -0.859406
     15          1           0       -0.834852   -1.444023    1.483936
     16          1           0       -1.365088    0.197096    1.929491
     17          1           0       -2.787000   -1.625156   -0.080928
     18          1           0       -3.296929    0.021116    0.379582
     19          1           0        0.575712    3.623475    0.154725
 ---------------------------------------------------------------------

 SCF Done:  E(RB3LYP) =  -423.108756647     A.U. after    1 cycles

 The electronic state is 1-A.
 Alpha  occ. eigenvalues --  -19.14285 -19.13747 -10.26020 -10.23342 -10.23119
 Alpha  occ. eigenvalues --  -10.22164 -10.19258 -10.18519 -10.18166  -1.04446
 Alpha  occ. eigenvalues --   -1.03032  -0.78618  -0.74209  -0.73299  -0.68453
 Alpha  occ. eigenvalues --   -0.62869  -0.58698  -0.52318  -0.50534  -0.49159
 Alpha  occ. eigenvalues --   -0.48822  -0.46493  -0.44694  -0.44085  -0.40633
 Alpha  occ. eigenvalues --   -0.38540  -0.37881  -0.34340  -0.31933  -0.31112
 Alpha  occ. eigenvalues --   -0.29021  -0.27446  -0.26252  -0.24139
 Alpha virt. eigenvalues --    0.01956   0.04593   0.09074   0.10562   0.11712
 Alpha virt. eigenvalues --    0.12602   0.12667   0.13442   0.15090   0.16357
 Alpha virt. eigenvalues --    0.16444   0.17253   0.17806   0.18651   0.21557

 Mulliken charges:
               1
     1  C   -0.240647
     2  O   -0.238750
     3  C   -0.126668
     4  C    0.211721
     5  C   -0.320483
     6  C   -0.071389
     7  O   -0.313099
     8  C    0.324261
     9  C   -0.465183
    10  H    0.126554
    11  H    0.125338
    12  H    0.106747
    13  H    0.104016
    14  H    0.106847
    15  H    0.128572
    16  H    0.123451
    17  H    0.106645
    18  H    0.110921
    19  H    0.201147
 Sum of Mulliken charges =   0.00000

 Dipole moment (field-independent basis, Debye):
    X=              0.4327    Y=              0.2597    Z=              0.8946  Tot=              1.0272
 Quadrupole moment (field-independent basis, Debye-Ang):
   XX=            -49.5209   YY=            -49.4857   ZZ=            -55.0721
   XY=              4.0781   XZ=             -4.0215   YZ=              1.4009

  Exact polarizability:  85.371   9.082  87.379  -0.829   1.745  60.410
 Approx polarizability: 107.339  16.478 135.601   1.722   2.408  92.127

                      1                      2                      3
                      A                      A                      A
 Frequencies --     35.6124                59.2603                98.6236
 Red. masses --      2.5876                 2.2708                 1.9515
 Frc consts  --      0.0019                 0.0047                 0.0112
 IR Inten    --      1.8250                 1.1252                 3.2054

                      4                      5                      6
                      A                      A                      A
 Frequencies --    135.7288               168.8123               187.6384
 Red. masses --      3.7077                 1.8004                 2.8867
 Frc consts  --      0.0402                 0.0302                 0.0599
 IR Inten    --      0.9629                 2.5813                 2.6017

                      7                      8                      9
                      A                      A                      A
 Frequencies --    244.8252               322.4365               392.4649
 Red. masses --      3.4224                 3.7157                 3.3729
 Frc consts  --      0.1209                 0.2276                 0.3061
 IR Inten    --      6.4592                 2.0051                 1.9705

                     10                     11                     12
                      A                      A                      A
 Frequencies --    451.6486               524.1067               552.7747
 Red. masses --      2.4837                 5.4006                 6.9793
 Frc consts  --      0.2985                 0.8740                 1.2565
 IR Inten    --      0.7687                 4.9108                 3.2293

                     13                     14                     15
                      A                      A                      A
 Frequencies --    617.3842               663.0711               666.2477
 Red. masses --      1.2316                 1.7684                 2.1012
 Frc consts  --      0.2766                 0.4581                 0.5495
 IR Inten    --     41.5251                27.7369                24.9512

                     16                     17                     18
                      A                      A                      A
 Frequencies --    784.8301               853.9168               925.4681
 Red. masses --      1.1085                 5.0356                 2.5596
 Frc consts  --      0.4023                 2.1634                 1.2917
 IR Inten    --      0.4524                 5.7247                 9.1851

                     19                     20                     21
                      A                      A                      A
 Frequencies --    941.6774               969.4851               981.2073
 Red. masses --      2.3739                 2.7312                 2.1260
 Frc consts  --      1.2403                 1.5125                 1.2060
 IR Inten    --     16.6443                17.0888                 6.6656

                     22                     23                     24
                      A                      A                      A
 Frequencies --   1011.4244              1032.1625              1124.0742
 Red. masses --     10.6867                 4.6611                 2.5272
 Frc consts  --      6.4411                 2.9257                 1.8814
 IR Inten    --    150.0571                 7.8808                94.7776

                     25                     26                     27
                      A                      A                      A
 Frequencies --   1156.8513              1180.0031              1189.9867
 Red. masses --      1.3136                 1.3782                 2.3279
 Frc consts  --      1.0358                 1.1306                 1.9423
 IR Inten    --      1.5953                 7.9254                13.8790

                     28                     29                     30
                      A                      A                      A
 Frequencies --   1202.3859              1219.0980              1244.3801
 Red. masses --      1.9236                 1.5349                 1.6852
 Frc consts  --      1.6385                 1.3440                 1.5374
 IR Inten    --     34.0745                23.3193                 4.9206

                     31                     32                     33
                      A                      A                      A
 Frequencies --   1260.2237              1326.2761              1347.5130
 Red. masses --      1.7056                 1.4289                 1.3847
 Frc consts  --      1.5959                 1.4808                 1.4814
 IR Inten    --      6.8478                31.8528                 4.2020

                     34                     35                     36
                      A                      A                      A
 Frequencies --   1385.5910              1475.5701              1485.7278
 Red. masses --      1.2509                 1.1123                 1.0656
 Frc consts  --      1.4150                 1.4270                 1.3858
 IR Inten    --     10.6895                 0.4069                 6.4819

                     37                     38                     39
                      A                      A                      A
 Frequencies --   1489.4646              1496.8694              1512.7110
 Red. masses --      1.0938                 1.0970                 1.0539
 Frc consts  --      1.4297                 1.4481                 1.4210
 IR Inten    --      2.4587                 0.5254                 6.4603

                     40                     41                     42
                      A                      A                      A
 Frequencies --   1529.2736              2227.0134              2990.6265
 Red. masses --      1.1043                 5.9399                 1.0422
 Frc consts  --      1.5217                17.3571                 5.4921
 IR Inten    --      1.2139                 1.3304                58.0634

                     43                     44                     45
                      A                      A                      A
 Frequencies --   3011.1638              3026.2422              3065.3740
 Red. masses --      1.0580                 1.0553                 1.0931
 Frc consts  --      5.6521                 5.6943                 6.0515
 IR Inten    --     40.4676                82.4550                30.1641

                     46                     47                     48
                      A                      A                      A
 Frequencies --   3067.0648              3068.6686              3096.5640
 Red. masses --      1.1098                 1.1075                 1.0595
 Frc consts  --      6.1510                 6.1444                 5.9856
 IR Inten    --     22.2531                39.4954                14.4849

                     49                     50                     51
                      A                      A                      A
 Frequencies --   3116.2871              3156.3326              3498.8221
 Red. masses --      1.1012                 1.1094                 1.1615
 Frc consts  --      6.3006                 6.5116                 8.3778
 IR Inten    --     27.0051                12.5656                64.1936

 - Thermochemistry -
 -------------------
 Temperature   298.150 Kelvin.  Pressure   1.00000 Atm.
 Atom     1 has atomic number  6 and mass  12.00000

 Molecular mass:   126.06808 amu.
 Principal axes and moments of inertia in atomic units:
                           1         2         3
     Eigenvalues --   762.044191362.464621786.52807
           X            0.99934   0.03049  -0.01977
           Y           -0.03029   0.99949   0.01016
           Z            0.02007  -0.00955   0.99975
 This molecule is an asymmetric top.
 Rotational symmetry number  1.
 Warning -- assumption of classical behavior for rotation
           may cause significant error
 Rotational temperatures (Kelvin)      0.11366     0.06357     0.04848
 Rotational constants (GHZ):           2.36829     1.32462     1.01019
 Zero-point vibrational energy     410145.5 (Joules/Mol)
                                   98.02712 (Kcal/Mol)
 Warning -- explicit consideration of  13 degrees of freedom as
           vibrations may cause significant error
 Vibrational temperatures:     51.24    85.26   141.90   195.28   242.88
          (Kelvin)            269.97   352.25   463.91   564.67   649.82
                              754.07   795.32   888.28   954.01   958.58
                             1129.19  1228.59  1331.54  1354.86  1394.87
                             1411.74  1455.21  1485.05  1617.29  1664.45
                             1697.76  1712.12  1729.96  1754.01  1790.38
                             1813.18  1908.21  1938.77  1993.55  2123.01
                             2137.63  2143.00  2153.66  2176.45  2200.28
                             3204.17  4302.84  4332.39  4354.08  4410.38
                             4412.82  4415.12  4455.26  4483.64  4541.25
                             5034.02

 Zero-point correction=                           0.156216 (Hartree/Particle)
 Thermal correction to Energy=                    0.166179
 Thermal correction to Enthalpy=                  0.167124
 Thermal correction to Gibbs Free Energy=         0.120073
 Sum of electronic and zero-point Energies=           -422.952540
 Sum of electronic and thermal Energies=              -422.942577
 Sum of electronic and thermal Enthalpies=            -422.941633
 Sum of electronic and thermal Free Energies=         -422.988684

                     E (Thermal)             CV                S
                      KCal/Mol        Cal/Mol-Kelvin    Cal/Mol-Kelvin
 Total                  104.279             35.062             99.027
 Electronic               0.000              0.000              0.000
 Translational            0.889              2.981             40.409
 Rotational               0.889              2.981             29.007
 Vibrational            102.502             29.101             29.611
 Vibration     1          0.594              1.982              5.489
 Vibration     2          0.597              1.974              4.482
 Vibration     3          0.604              1.950              3.481
 Vibration     4          0.614              1.918              2.863
 Vibration     5          0.625              1.881              2.449
 Vibration     6          0.632              1.857              2.251
 Vibration     7          0.660              1.771              1.768
 Vibration     8          0.707              1.631              1.298
 Vibration     9          0.760              1.486              0.991
 Vibration    10          0.810              1.357              0.791
 Vibration    11          0.879              1.197              0.601
 Vibration    12          0.908              1.134              0.538
 Vibration    13          0.977              0.995              0.421

 Normal termination of Gaussian 09 at Tue Jan 28 12:51:40 2020.
