 Gaussian 09, Revision D.01,
 Gaussian 09:  ES64L-G09RevD.01 24-Apr-2013

 -----------------------------
 # b3lyp 6-31G(2df,p) opt Freq
 -----------------------------

 -----
 titel
 -----
 Symbolic Z-matrix:
 Charge =  0 Multiplicity = 1

 SCF Done:  E(RB3LYP) =  -423.184780423     A.U. after   14 cycles
 Optimization completed.
    -- Stationary point found.
 Normal termination of Gaussian 09 at Mon Jan 27 21:59:57 2020.

 ----------------------------------------------------------------------
 #N Geom=AllCheck Guess=TCheck SCRF=Check GenChk RB3LYP/6-31G(2df,p) Fr
 eq
 ----------------------------------------------------------------------

 Structure from the checkpoint file:  "/scratch/puck/g09_bfe72e4f-a55d-47ae-b488-f8c7f82189e9/Gau-99234.chk"
 -----
 titel
 -----
 Charge =  0 Multiplicity = 1

                         Standard orientation:
 ---------------------------------------------------------------------
 Center     Atomic      Atomic             Coordinates (Angstroms)
 Number     Number       Type             X           Y           Z
 ---------------------------------------------------------------------
      1          6           0        2.929008    0.259978   -0.336257
      2          6           0        1.466553    0.143815   -0.045434
      3          6           0        0.497427    0.975534   -0.444242
      4          6           0       -0.869687    0.559355    0.019958
      5          8           0       -1.618099    1.566234    0.654363
      6          6           0       -1.705664   -0.270829   -0.972372
      7          8           0       -1.200718   -1.502750   -0.414746
      8          6           0       -0.595628   -0.817100    0.707430
      9          6           0        0.919529   -1.012925    0.774927
     10          1           0        3.285041   -0.607961   -0.905242
     11          1           0        3.160967    1.161830   -0.908675
     12          1           0        3.512996    0.280853    0.592797
     13          1           0        0.647829    1.863897   -1.050239
     14          1           0       -1.012740    2.092277    1.187983
     15          1           0       -2.784382   -0.152360   -0.806817
     16          1           0       -1.477210   -0.172536   -2.039067
     17          1           0       -1.132563   -1.016711    1.641020
     18          1           0        1.311720   -0.998707    1.801296
     19          1           0        1.189642   -1.985420    0.345949
 ---------------------------------------------------------------------

 SCF Done:  E(RB3LYP) =  -423.184780423     A.U. after    1 cycles

 The electronic state is 1-A.
 Alpha  occ. eigenvalues --  -19.14280 -19.12745 -10.23680 -10.22302 -10.21998
 Alpha  occ. eigenvalues --  -10.19907 -10.18864 -10.18563 -10.17700  -1.04261
 Alpha  occ. eigenvalues --   -1.01526  -0.83563  -0.73833  -0.72835  -0.67069
 Alpha  occ. eigenvalues --   -0.64188  -0.54626  -0.53791  -0.52639  -0.47672
 Alpha  occ. eigenvalues --   -0.46324  -0.44075  -0.42567  -0.42149  -0.40505
 Alpha  occ. eigenvalues --   -0.39146  -0.37491  -0.36234  -0.34553  -0.33636
 Alpha  occ. eigenvalues --   -0.30648  -0.26369  -0.24630  -0.24162
 Alpha virt. eigenvalues --    0.00918   0.08279   0.09737   0.10092   0.12637
 Alpha virt. eigenvalues --    0.13294   0.14517   0.14749   0.16529   0.17042
 Alpha virt. eigenvalues --    0.17422   0.18369   0.20156   0.21470   0.22767

 Mulliken charges:
               1
     1  C   -0.487935
     2  C    0.334775
     3  C   -0.291689
     4  C    0.333168
     5  O   -0.473639
     6  C   -0.106044
     7  O   -0.296896
     8  C    0.059367
     9  C   -0.328587
    10  H    0.134033
    11  H    0.125792
    12  H    0.127373
    13  H    0.090996
    14  H    0.276503
    15  H    0.104066
    16  H    0.101306
    17  H    0.073224
    18  H    0.100564
    19  H    0.123623
 Sum of Mulliken charges =   0.00000

 Dipole moment (field-independent basis, Debye):
    X=              2.2812    Y=              1.2880    Z=              0.6888  Tot=              2.7088
 Quadrupole moment (field-independent basis, Debye-Ang):
   XX=            -53.9349   YY=            -54.7797   ZZ=            -50.4847
   XY=             -0.2207   XZ=              0.7830   YZ=             -0.6937

  Exact polarizability:  93.363  -5.417  72.065   3.631  -5.081  67.643
 Approx polarizability: 126.524 -15.100 113.283   8.169  -7.469 102.265

                      1                      2                      3
                      A                      A                      A
 Frequencies --    120.0199               139.9872               183.6404
 Red. masses --      3.4253                 2.3589                 1.1429
 Frc consts  --      0.0291                 0.0272                 0.0227
 IR Inten    --      1.1536                 0.3031                 0.2740

                      4                      5                      6
                      A                      A                      A
 Frequencies --    276.4459               282.6630               324.8096
 Red. masses --      2.5859                 2.6916                 1.2368
 Frc consts  --      0.1164                 0.1267                 0.0769
 IR Inten    --      1.6991                 0.9792                78.7543

                      7                      8                      9
                      A                      A                      A
 Frequencies --    369.4616               394.5012               442.8479
 Red. masses --      3.0698                 2.7996                 2.4613
 Frc consts  --      0.2469                 0.2567                 0.2844
 IR Inten    --      7.0845                11.7686                 4.5573

                     10                     11                     12
                      A                      A                      A
 Frequencies --    484.4184               567.1916               653.1030
 Red. masses --      2.3723                 4.4391                 4.0505
 Frc consts  --      0.3280                 0.8414                 1.0179
 IR Inten    --      0.2250                 2.8253                 7.1807

                     13                     14                     15
                      A                      A                      A
 Frequencies --    698.6102               834.9403               859.4056
 Red. masses --      4.3157                 1.8559                 4.1099
 Frc consts  --      1.2410                 0.7623                 1.7884
 IR Inten    --      1.1681                 4.4267                 0.3616

                     16                     17                     18
                      A                      A                      A
 Frequencies --    876.6450               882.5881               945.0511
 Red. masses --      2.3197                 1.9096                 1.7514
 Frc consts  --      1.0503                 0.8764                 0.9216
 IR Inten    --     11.9430                15.7193                 9.0287

                     19                     20                     21
                      A                      A                      A
 Frequencies --    992.7606              1001.7697              1015.3647
 Red. masses --      1.8806                 2.2248                 3.7795
 Frc consts  --      1.0920                 1.3154                 2.2958
 IR Inten    --      8.8343                13.0576                39.2766

                     22                     23                     24
                      A                      A                      A
 Frequencies --   1026.0388              1037.5396              1078.5104
 Red. masses --      1.6019                 1.9309                 2.0985
 Frc consts  --      0.9936                 1.2247                 1.4381
 IR Inten    --     16.0461                 2.8799                11.3099

                     25                     26                     27
                      A                      A                      A
 Frequencies --   1137.9211              1146.4522              1167.7539
 Red. masses --      2.9813                 1.4777                 1.4003
 Frc consts  --      2.2745                 1.1443                 1.1250
 IR Inten    --    126.5451                 1.0494                 8.0383

                     28                     29                     30
                      A                      A                      A
 Frequencies --   1198.0322              1209.0093              1260.8552
 Red. masses --      1.8372                 1.7308                 2.0429
 Frc consts  --      1.5536                 1.4906                 1.9135
 IR Inten    --      9.6945                22.9489                28.8822

                     31                     32                     33
                      A                      A                      A
 Frequencies --   1292.0045              1320.8212              1346.2755
 Red. masses --      1.4071                 1.9510                 1.3821
 Frc consts  --      1.3839                 2.0054                 1.4759
 IR Inten    --      0.2106                12.9376                31.6292

                     34                     35                     36
                      A                      A                      A
 Frequencies --   1365.9385              1385.5757              1412.2645
 Red. masses --      1.9822                 1.8865                 1.2899
 Frc consts  --      2.1790                 2.1339                 1.5158
 IR Inten    --     29.0700                32.6118                 1.7446

                     37                     38                     39
                      A                      A                      A
 Frequencies --   1462.3759              1478.2571              1485.8235
 Red. masses --      1.0935                 1.0450                 1.0656
 Frc consts  --      1.3778                 1.3454                 1.3860
 IR Inten    --      4.5204                 7.2585                 9.3303

                     40                     41                     42
                      A                      A                      A
 Frequencies --   1512.6961              1707.4088              3011.8171
 Red. masses --      1.1087                 7.0238                 1.0634
 Frc consts  --      1.4947                12.0642                 5.6833
 IR Inten    --      1.6044                16.9564                13.8885

                     43                     44                     45
                      A                      A                      A
 Frequencies --   3014.8772              3020.0477              3051.3599
 Red. masses --      1.0570                 1.0400                 1.0864
 Frc consts  --      5.6607                 5.5884                 5.9597
 IR Inten    --     75.8129                37.1088                47.3477

                     46                     47                     48
                      A                      A                      A
 Frequencies --   3060.8369              3067.0206              3074.0734
 Red. masses --      1.0964                 1.0979                 1.1088
 Frc consts  --      6.0518                 6.0851                 6.1737
 IR Inten    --     12.0928                19.6707                37.1644

                     49                     50                     51
                      A                      A                      A
 Frequencies --   3114.0826              3178.4957              3805.3720
 Red. masses --      1.0996                 1.0932                 1.0660
 Frc consts  --      6.2826                 6.5072                 9.0948
 IR Inten    --     17.7872                11.6181                16.9127

 - Thermochemistry -
 -------------------
 Temperature   298.150 Kelvin.  Pressure   1.00000 Atm.
 Atom     1 has atomic number  6 and mass  12.00000

 Molecular mass:   126.06808 amu.
 Principal axes and moments of inertia in atomic units:
                           1         2         3
     Eigenvalues --   649.938181275.819671545.43856
           X            1.00000  -0.00026   0.00206
           Y            0.00036   0.99895  -0.04581
           Z           -0.00204   0.04581   0.99895
 This molecule is an asymmetric top.
 Rotational symmetry number  1.
 Warning -- assumption of classical behavior for rotation
           may cause significant error
 Rotational temperatures (Kelvin)      0.13326     0.06789     0.05604
 Rotational constants (GHZ):           2.77679     1.41457     1.16779
 Zero-point vibrational energy     417351.7 (Joules/Mol)
                                   99.74946 (Kcal/Mol)
 Warning -- explicit consideration of  11 degrees of freedom as
           vibrations may cause significant error
 Vibrational temperatures:    172.68   201.41   264.22   397.74   406.69
          (Kelvin)            467.33   531.57   567.60   637.16   696.97
                              816.06   939.67  1005.14  1201.29  1236.49
                             1261.29  1269.85  1359.72  1428.36  1441.32
                             1460.88  1476.24  1492.79  1551.73  1637.21
                             1649.49  1680.14  1723.70  1739.49  1814.09
                             1858.90  1900.36  1936.99  1965.28  1993.53
                             2031.93  2104.03  2126.88  2137.77  2176.43
                             2456.58  4333.33  4337.73  4345.17  4390.22
                             4403.86  4412.75  4422.90  4480.46  4573.14
                             5475.07

 Zero-point correction=                           0.158961 (Hartree/Particle)
 Thermal correction to Energy=                    0.167288
 Thermal correction to Enthalpy=                  0.168232
 Thermal correction to Gibbs Free Energy=         0.126375
 Sum of electronic and zero-point Energies=           -423.025820
 Sum of electronic and thermal Energies=              -423.017493
 Sum of electronic and thermal Enthalpies=            -423.016549
 Sum of electronic and thermal Free Energies=         -423.058406

                     E (Thermal)             CV                S
                      KCal/Mol        Cal/Mol-Kelvin    Cal/Mol-Kelvin
 Total                  104.975             32.405             88.096
 Electronic               0.000              0.000              0.000
 Translational            0.889              2.981             40.409
 Rotational               0.889              2.981             28.640
 Vibrational            103.197             26.443             19.047
 Vibration     1          0.609              1.933              3.100
 Vibration     2          0.615              1.913              2.804
 Vibration     3          0.631              1.862              2.291
 Vibration     4          0.678              1.717              1.556
 Vibration     5          0.682              1.706              1.518
 Vibration     6          0.709              1.626              1.286
 Vibration     7          0.742              1.535              1.082
 Vibration     8          0.761              1.482              0.983
 Vibration     9          0.802              1.377              0.818
 Vibration    10          0.841              1.285              0.698
 Vibration    11          0.923              1.102              0.510

 Normal termination of Gaussian 09 at Mon Jan 27 22:41:25 2020.
