 Gaussian 09, Revision D.01,
 Gaussian 09:  ES64L-G09RevD.01 24-Apr-2013

 -----------------------------
 # b3lyp 6-31G(2df,p) opt Freq
 -----------------------------

 -----
 titel
 -----
 Symbolic Z-matrix:
 Charge =  0 Multiplicity = 1

 SCF Done:  E(RB3LYP) =  -423.165918688     A.U. after   14 cycles
 Optimization completed.
    -- Stationary point found.
 Normal termination of Gaussian 09 at Mon Jan 27 16:19:25 2020.

 ----------------------------------------------------------------------
 #N Geom=AllCheck Guess=TCheck SCRF=Check GenChk RB3LYP/6-31G(2df,p) Fr
 eq
 ----------------------------------------------------------------------

 Structure from the checkpoint file:  "/scratch/puck/g09_0cdefb5e-8571-462f-9eae-bd2b60c0ef3f/Gau-176854.chk"
 -----
 titel
 -----
 Charge =  0 Multiplicity = 1

                         Standard orientation:
 ---------------------------------------------------------------------
 Center     Atomic      Atomic             Coordinates (Angstroms)
 Number     Number       Type             X           Y           Z
 ---------------------------------------------------------------------
      1          6           0        1.711780    1.573783    0.373211
      2          6           0        1.391037    0.148550   -0.051864
      3          8           0        2.455630   -0.402066   -0.814236
      4          6           0        1.025110   -0.907900    1.042224
      5          6           0       -0.289400   -1.190605    0.303856
      6          6           0       -1.118630    0.080809    0.250505
      7          6           0       -2.475290   -0.055562   -0.325813
      8          8           0       -3.435648    0.591834    0.011140
      9          6           0        0.027360   -0.136279   -0.727394
     10          1           0        0.923103    2.005718    0.994541
     11          1           0        2.647904    1.591542    0.939709
     12          1           0        1.832187    2.220558   -0.504963
     13          1           0        2.626771    0.191845   -1.553931
     14          1           0        1.731948   -1.737238    0.999632
     15          1           0        0.935419   -0.550195    2.071885
     16          1           0       -0.749236   -2.162258    0.171011
     17          1           0       -1.045066    0.818437    1.044808
     18          1           0       -2.553936   -0.829439   -1.127201
     19          1           0       -0.140755   -0.143887   -1.799074
 ---------------------------------------------------------------------

 SCF Done:  E(RB3LYP) =  -423.165918687     A.U. after    1 cycles

 The electronic state is 1-A.
 Alpha  occ. eigenvalues --  -19.14605 -19.13114 -10.26824 -10.25417 -10.21219
 Alpha  occ. eigenvalues --  -10.20816 -10.20675 -10.19333 -10.18507  -1.03937
 Alpha  occ. eigenvalues --   -1.03218  -0.91000  -0.76511  -0.72050  -0.65436
 Alpha  occ. eigenvalues --   -0.62202  -0.57913  -0.54970  -0.51580  -0.49547
 Alpha  occ. eigenvalues --   -0.47393  -0.43888  -0.43286  -0.42744  -0.40721
 Alpha  occ. eigenvalues --   -0.40483  -0.38829  -0.36962  -0.34860  -0.32878
 Alpha  occ. eigenvalues --   -0.30507  -0.28377  -0.27237  -0.24779
 Alpha virt. eigenvalues --   -0.01858   0.06410   0.09659   0.10274   0.10718
 Alpha virt. eigenvalues --    0.12137   0.13714   0.14275   0.15215   0.16328
 Alpha virt. eigenvalues --    0.16578   0.17623   0.18838   0.20014   0.22958

 Mulliken charges:
               1
     1  C   -0.454510
     2  C    0.409111
     3  O   -0.472547
     4  C   -0.285741
     5  C   -0.060365
     6  C   -0.123811
     7  C    0.157687
     8  O   -0.273009
     9  C   -0.124283
    10  H    0.125707
    11  H    0.129823
    12  H    0.109824
    13  H    0.275792
    14  H    0.129194
    15  H    0.101456
    16  H    0.098914
    17  H    0.099329
    18  H    0.065478
    19  H    0.091951
 Sum of Mulliken charges =   0.00000

 Dipole moment (field-independent basis, Debye):
    X=              2.5874    Y=             -0.1404    Z=             -0.7575  Tot=              2.6996
 Quadrupole moment (field-independent basis, Debye-Ang):
   XX=            -67.5363   YY=            -52.7349   ZZ=            -49.4006
   XY=              7.4128   XZ=              0.0992   YZ=             -1.3682

  Exact polarizability:  95.543  -1.803  70.539   0.362   0.762  67.844
 Approx polarizability: 131.769 -11.776 107.241  -5.529   1.427 105.273

                      1                      2                      3
                      A                      A                      A
 Frequencies --     97.3950               129.6006               206.4755
 Red. masses --      5.5661                 4.6636                 2.6339
 Frc consts  --      0.0311                 0.0462                 0.0662
 IR Inten    --      4.8163                 3.5891                 2.6576

                      4                      5                      6
                      A                      A                      A
 Frequencies --    231.9288               257.3759               283.4739
 Red. masses --      1.1985                 1.7907                 1.5956
 Frc consts  --      0.0380                 0.0699                 0.0755
 IR Inten    --      1.2527                 1.2894                42.8135

                      7                      8                      9
                      A                      A                      A
 Frequencies --    311.3000               356.1339               410.5983
 Red. masses --      1.7207                 3.3291                 2.9681
 Frc consts  --      0.0982                 0.2488                 0.2948
 IR Inten    --     29.0078                31.9155                 1.7216

                     10                     11                     12
                      A                      A                      A
 Frequencies --    434.8819               475.0676               533.2104
 Red. masses --      3.0575                 2.4865                 4.4106
 Frc consts  --      0.3407                 0.3306                 0.7388
 IR Inten    --      1.9687                 6.0374                38.4599

                     13                     14                     15
                      A                      A                      A
 Frequencies --    637.4195               815.6776               831.8989
 Red. masses --      3.9403                 2.7150                 2.0759
 Frc consts  --      0.9433                 1.0643                 0.8465
 IR Inten    --      2.6641                 1.2043                13.2822

                     16                     17                     18
                      A                      A                      A
 Frequencies --    860.5945               876.7832               945.7147
 Red. masses --      1.8947                 2.1167                 2.3426
 Frc consts  --      0.8268                 0.9587                 1.2344
 IR Inten    --      7.1150                11.2553                 6.9523

                     19                     20                     21
                      A                      A                      A
 Frequencies --    954.7096               966.7911              1001.3196
 Red. masses --      2.4546                 1.7988                 2.1411
 Frc consts  --      1.3182                 0.9906                 1.2648
 IR Inten    --     17.5230                18.9115                 3.2529

                     22                     23                     24
                      A                      A                      A
 Frequencies --   1014.1103              1056.4249              1074.5608
 Red. masses --      1.2880                 1.5435                 1.2890
 Frc consts  --      0.7804                 1.0149                 0.8769
 IR Inten    --      8.9502                 1.8090                 4.0571

                     25                     26                     27
                      A                      A                      A
 Frequencies --   1096.4880              1120.1745              1137.7003
 Red. masses --      1.6511                 1.7461                 1.5964
 Frc consts  --      1.1696                 1.2909                 1.2175
 IR Inten    --     19.6710                86.6330                 8.0547

                     28                     29                     30
                      A                      A                      A
 Frequencies --   1163.7235              1207.5576              1217.3828
 Red. masses --      2.1750                 2.0626                 1.8620
 Frc consts  --      1.7354                 1.7720                 1.6259
 IR Inten    --     63.6688                37.3525                 3.5853

                     31                     32                     33
                      A                      A                      A
 Frequencies --   1254.2676              1276.1090              1286.8204
 Red. masses --      1.5812                 1.7660                 1.9312
 Frc consts  --      1.4656                 1.6944                 1.8842
 IR Inten    --      5.3971                10.7829                41.2195

                     34                     35                     36
                      A                      A                      A
 Frequencies --   1349.3566              1388.9506              1411.4135
 Red. masses --      1.9395                 1.9478                 1.2907
 Frc consts  --      2.0807                 2.2140                 1.5149
 IR Inten    --     14.4554                28.4103                11.1900

                     37                     38                     39
                      A                      A                      A
 Frequencies --   1443.1720              1477.0343              1489.9090
 Red. masses --      1.3474                 1.1082                 1.0539
 Frc consts  --      1.6534                 1.4244                 1.3784
 IR Inten    --      5.4587                 3.3280                 1.5023

                     40                     41                     42
                      A                      A                      A
 Frequencies --   1493.0346              1822.4024              2840.7449
 Red. masses --      1.0722                10.0310                 1.0810
 Frc consts  --      1.4082                19.6282                 5.1396
 IR Inten    --      6.2594               284.5280                98.5326

                     43                     44                     45
                      A                      A                      A
 Frequencies --   3027.0282              3061.4844              3095.5965
 Red. masses --      1.0402                 1.0624                 1.0958
 Frc consts  --      5.6155                 5.8666                 6.1866
 IR Inten    --     20.5450                30.2779                19.3775

                     46                     47                     48
                      A                      A                      A
 Frequencies --   3121.3638              3135.8562              3149.0565
 Red. masses --      1.1011                 1.1039                 1.0893
 Frc consts  --      6.3204                 6.3960                 6.3643
 IR Inten    --     16.5034                 8.2401                11.4479

                     49                     50                     51
                      A                      A                      A
 Frequencies --   3168.1519              3187.4298              3795.7911
 Red. masses --      1.0896                 1.0954                 1.0658
 Frc consts  --      6.4439                 6.5568                 9.0474
 IR Inten    --     13.9542                12.0074                15.4559

 - Thermochemistry -
 -------------------
 Temperature   298.150 Kelvin.  Pressure   1.00000 Atm.
 Atom     1 has atomic number  6 and mass  12.00000

 Molecular mass:   126.06808 amu.
 Principal axes and moments of inertia in atomic units:
                           1         2         3
     Eigenvalues --   487.691461880.354292008.54085
           X            0.99963   0.02534   0.01003
           Y           -0.02561   0.99930   0.02718
           Z           -0.00933  -0.02742   0.99958
 This molecule is an asymmetric top.
 Rotational symmetry number  1.
 Warning -- assumption of classical behavior for rotation
           may cause significant error
 Rotational temperatures (Kelvin)      0.17760     0.04606     0.04312
 Rotational constants (GHZ):           3.70058     0.95979     0.89853
 Zero-point vibrational energy     412600.7 (Joules/Mol)
                                   98.61393 (Kcal/Mol)
 Warning -- explicit consideration of  12 degrees of freedom as
           vibrations may cause significant error
 Vibrational temperatures:    140.13   186.47   297.07   333.69   370.31
          (Kelvin)            407.86   447.89   512.40   590.76   625.70
                              683.52   767.17   917.10  1173.58  1196.92
                             1238.20  1261.49  1360.67  1373.61  1391.00
                             1440.67  1459.08  1519.96  1546.05  1577.60
                             1611.68  1636.89  1674.34  1737.40  1751.54
                             1804.61  1836.03  1851.45  1941.42  1998.39
                             2030.71  2076.40  2125.12  2143.64  2148.14
                             2622.03  4087.19  4355.21  4404.79  4453.87
                             4490.94  4511.79  4530.78  4558.26  4585.99
                             5461.29

 Zero-point correction=                           0.157151 (Hartree/Particle)
 Thermal correction to Energy=                    0.166036
 Thermal correction to Enthalpy=                  0.166980
 Thermal correction to Gibbs Free Energy=         0.123831
 Sum of electronic and zero-point Energies=           -423.008767
 Sum of electronic and thermal Energies=              -422.999883
 Sum of electronic and thermal Enthalpies=            -422.998939
 Sum of electronic and thermal Free Energies=         -423.042087

                     E (Thermal)             CV                S
                      KCal/Mol        Cal/Mol-Kelvin    Cal/Mol-Kelvin
 Total                  104.189             33.958             90.813
 Electronic               0.000              0.000              0.000
 Translational            0.889              2.981             40.409
 Rotational               0.889              2.981             29.001
 Vibrational            102.411             27.997             21.404
 Vibration     1          0.603              1.951              3.506
 Vibration     2          0.612              1.924              2.952
 Vibration     3          0.641              1.831              2.075
 Vibration     4          0.653              1.792              1.864
 Vibration     5          0.667              1.750              1.680
 Vibration     6          0.682              1.704              1.513
 Vibration     7          0.700              1.652              1.355
 Vibration     8          0.732              1.563              1.139
 Vibration     9          0.775              1.447              0.925
 Vibration    10          0.795              1.394              0.843
 Vibration    11          0.832              1.305              0.723
 Vibration    12          0.888              1.177              0.580

 Normal termination of Gaussian 09 at Mon Jan 27 17:00:29 2020.
