 Gaussian 09, Revision D.01,
 Gaussian 09:  ES64L-G09RevD.01 24-Apr-2013

 -----------------------------
 # b3lyp 6-31G(2df,p) opt Freq
 -----------------------------

 -----
 titel
 -----
 Symbolic Z-matrix:
 Charge =  0 Multiplicity = 1

 SCF Done:  E(RB3LYP) =  -423.155096392     A.U. after   13 cycles
 SCF Done:  E(RB3LYP) =  -423.155096991     A.U. after    6 cycles
 SCF Done:  E(RB3LYP) =  -423.155097347     A.U. after    6 cycles
 SCF Done:  E(RB3LYP) =  -423.155097652     A.U. after    6 cycles
 SCF Done:  E(RB3LYP) =  -423.155097990     A.U. after    6 cycles
 SCF Done:  E(RB3LYP) =  -423.155098604     A.U. after    7 cycles
 SCF Done:  E(RB3LYP) =  -423.155099144     A.U. after    7 cycles
 SCF Done:  E(RB3LYP) =  -423.155099227     A.U. after    6 cycles
 Optimization completed.
    -- Stationary point found.
 Normal termination of Gaussian 09 at Mon Jan 27 11:50:05 2020.

 ----------------------------------------------------------------------
 #N Geom=AllCheck Guess=TCheck SCRF=Check GenChk RB3LYP/6-31G(2df,p) Fr
 eq
 ----------------------------------------------------------------------

 Structure from the checkpoint file:  "/scratch/puck/g09_3bda652e-1833-4f18-84bb-dd71288ea01d/Gau-164585.chk"
 -----
 titel
 -----
 Charge =  0 Multiplicity = 1

                         Standard orientation:
 ---------------------------------------------------------------------
 Center     Atomic      Atomic             Coordinates (Angstroms)
 Number     Number       Type             X           Y           Z
 ---------------------------------------------------------------------
      1          6           0        2.157271   -0.990508   -0.328609
      2          6           0        2.149486    0.471981    0.006415
      3          6           0        1.095211    0.745243    1.085948
      4          6           0        0.003933    0.175089    0.127368
      5          6           0       -1.104347    1.143766   -0.301186
      6          8           0       -2.166715    0.277161   -0.666100
      7          6           0       -2.097964   -0.767999    0.270542
      8          8           0       -0.733595   -0.950218    0.602847
      9          6           0        1.081889   -0.122024   -0.919760
     10          1           0        2.922098   -1.309538   -1.029325
     11          1           0        1.902530   -1.729327    0.426478
     12          1           0        2.968617    1.131604   -0.248868
     13          1           0        1.217511    0.203386    2.028353
     14          1           0        0.939353    1.806269    1.302497
     15          1           0       -1.395042    1.795276    0.539429
     16          1           0       -0.845607    1.762188   -1.162699
     17          1           0       -2.667797   -0.519327    1.183993
     18          1           0       -2.504409   -1.676252   -0.187566
     19          1           0        0.952345   -0.013096   -1.990584
 ---------------------------------------------------------------------

 SCF Done:  E(RB3LYP) =  -423.155099227     A.U. after    1 cycles

 The electronic state is 1-A.
 Alpha  occ. eigenvalues --  -19.14944 -19.13968 -10.27163 -10.24156 -10.23311
 Alpha  occ. eigenvalues --  -10.19428 -10.18762 -10.18540 -10.18499  -1.08717
 Alpha  occ. eigenvalues --   -0.99262  -0.89339  -0.76345  -0.69970  -0.63570
 Alpha  occ. eigenvalues --   -0.63000  -0.58172  -0.54033  -0.51810  -0.50377
 Alpha  occ. eigenvalues --   -0.48648  -0.45838  -0.44018  -0.43231  -0.40684
 Alpha  occ. eigenvalues --   -0.38893  -0.37092  -0.34670  -0.33518  -0.32764
 Alpha  occ. eigenvalues --   -0.29273  -0.26781  -0.26451  -0.24681
 Alpha virt. eigenvalues --    0.09210   0.09457   0.11126   0.12032   0.12922
 Alpha virt. eigenvalues --    0.13639   0.13949   0.15226   0.15884   0.16130
 Alpha virt. eigenvalues --    0.17175   0.18729   0.20359   0.20870   0.21499

 Mulliken charges:
               1
     1  C   -0.284294
     2  C   -0.042284
     3  C   -0.314567
     4  C    0.419709
     5  C   -0.177970
     6  O   -0.239866
     7  C    0.015024
     8  O   -0.306442
     9  C   -0.093858
    10  H    0.110886
    11  H    0.121313
    12  H    0.087125
    13  H    0.107024
    14  H    0.101349
    15  H    0.091616
    16  H    0.121564
    17  H    0.084722
    18  H    0.114832
    19  H    0.084118
 Sum of Mulliken charges =   0.00000

 Dipole moment (field-independent basis, Debye):
    X=              0.7597    Y=              0.9697    Z=              0.0773  Tot=              1.2343
 Quadrupole moment (field-independent basis, Debye-Ang):
   XX=            -53.2235   YY=            -51.9311   ZZ=            -53.2251
   XY=              1.4411   XZ=             -3.1431   YZ=              0.7113

  Exact polarizability:  85.307   1.755  71.865  -2.753   1.950  67.275
 Approx polarizability: 110.729   3.537 107.199   0.475   1.255 102.901

                      1                      2                      3
                      A                      A                      A
 Frequencies --     50.5908               135.1916               198.2827
 Red. masses --      3.2171                 3.1507                 3.1824
 Frc consts  --      0.0049                 0.0339                 0.0737
 IR Inten    --      1.1489                 0.1717                 4.5386

                      4                      5                      6
                      A                      A                      A
 Frequencies --    260.8069               372.4204               392.6057
 Red. masses --      2.5535                 2.5901                 1.9214
 Frc consts  --      0.1023                 0.2117                 0.1745
 IR Inten    --      4.4257                 0.2810                 0.5248

                      7                      8                      9
                      A                      A                      A
 Frequencies --    444.6398               519.1436               722.8959
 Red. masses --      3.8884                 3.1851                 3.9706
 Frc consts  --      0.4529                 0.5058                 1.2225
 IR Inten    --      1.0272                 0.9657                 3.2412

                     10                     11                     12
                      A                      A                      A
 Frequencies --    748.2418               769.3744               793.4456
 Red. masses --      5.4222                 2.3820                 1.8472
 Frc consts  --      1.7886                 0.8308                 0.6852
 IR Inten    --      0.7274                11.9336                 6.3959

                     13                     14                     15
                      A                      A                      A
 Frequencies --    838.8425               904.1091               919.2119
 Red. masses --      2.2860                 2.1212                 1.9002
 Frc consts  --      0.9477                 1.0216                 0.9460
 IR Inten    --      3.8055                 9.1537                27.7271

                     16                     17                     18
                      A                      A                      A
 Frequencies --    954.4033               979.1630               982.7659
 Red. masses --      1.8877                 2.6800                 2.0650
 Frc consts  --      1.0131                 1.5139                 1.1751
 IR Inten    --      7.4930                38.6483                 0.0775

                     19                     20                     21
                      A                      A                      A
 Frequencies --    990.3990              1027.5800              1037.9109
 Red. masses --      1.7213                 1.7001                 3.7476
 Frc consts  --      0.9948                 1.0577                 2.3786
 IR Inten    --     45.3795                 3.8648                43.7123

                     22                     23                     24
                      A                      A                      A
 Frequencies --   1061.9940              1083.8397              1104.7185
 Red. masses --      1.1960                 1.4809                 3.0477
 Frc consts  --      0.7947                 1.0250                 2.1914
 IR Inten    --      0.6666                 3.3650                 3.9515

                     25                     26                     27
                      A                      A                      A
 Frequencies --   1120.6728              1144.0034              1154.1671
 Red. masses --      3.0097                 1.5877                 2.2911
 Frc consts  --      2.2271                 1.2242                 1.7981
 IR Inten    --    177.2084                 7.3998                33.1052

                     28                     29                     30
                      A                      A                      A
 Frequencies --   1173.1932              1199.3046              1225.7734
 Red. masses --      1.6937                 1.2594                 2.1972
 Frc consts  --      1.3735                 1.0673                 1.9451
 IR Inten    --     21.2929                20.6940                22.2995

                     31                     32                     33
                      A                      A                      A
 Frequencies --   1230.6112              1248.4189              1265.7764
 Red. masses --      1.9050                 1.5449                 1.2844
 Frc consts  --      1.6998                 1.4186                 1.2124
 IR Inten    --     38.1940                 6.4361                 6.0789

                     34                     35                     36
                      A                      A                      A
 Frequencies --   1315.3389              1358.3408              1371.7382
 Red. masses --      2.0427                 1.4625                 2.0064
 Frc consts  --      2.0823                 1.5898                 2.2243
 IR Inten    --     15.7921                11.7410                 2.1913

                     37                     38                     39
                      A                      A                      A
 Frequencies --   1433.4820              1477.4560              1496.6381
 Red. masses --      1.2794                 1.1217                 1.1937
 Frc consts  --      1.5489                 1.4427                 1.5753
 IR Inten    --      8.7281                 1.4402                 1.8751

                     40                     41                     42
                      A                      A                      A
 Frequencies --   1508.5039              1548.0703              2938.7137
 Red. masses --      1.0932                 1.1047                 1.0704
 Frc consts  --      1.4657                 1.5598                 5.4465
 IR Inten    --      1.8252                 5.3040               120.7804

                     43                     44                     45
                      A                      A                      A
 Frequencies --   2971.2199              3047.8020              3063.1375
 Red. masses --      1.0712                 1.0577                 1.0942
 Frc consts  --      5.5719                 5.7887                 6.0487
 IR Inten    --     58.7978                35.7921                56.6791

                     46                     47                     48
                      A                      A                      A
 Frequencies --   3100.4097              3112.8784              3118.3949
 Red. masses --      1.1082                 1.0934                 1.0547
 Frc consts  --      6.2765                 6.2427                 6.0431
 IR Inten    --     18.1913                15.4503                17.4761

                     49                     50                     51
                      A                      A                      A
 Frequencies --   3172.8159              3195.2144              3208.2789
 Red. masses --      1.0917                 1.0995                 1.1101
 Frc consts  --      6.4751                 6.6139                 6.7323
 IR Inten    --     14.6834                 9.0885                17.6961

 - Thermochemistry -
 -------------------
 Temperature   298.150 Kelvin.  Pressure   1.00000 Atm.
 Atom     1 has atomic number  6 and mass  12.00000

 Molecular mass:   126.06808 amu.
 Principal axes and moments of inertia in atomic units:
                           1         2         3
     Eigenvalues --   477.876231379.151061465.90907
           X            0.99992   0.00023  -0.01281
           Y            0.00068   0.99744   0.07155
           Z            0.01280  -0.07155   0.99735
 This molecule is an asymmetric top.
 Rotational symmetry number  1.
 Warning -- assumption of classical behavior for rotation
           may cause significant error
 Rotational temperatures (Kelvin)      0.18125     0.06280     0.05909
 Rotational constants (GHZ):           3.77659     1.30859     1.23114
 Zero-point vibrational energy     421641.4 (Joules/Mol)
                                  100.77470 (Kcal/Mol)
 Warning -- explicit consideration of   8 degrees of freedom as
           vibrations may cause significant error
 Vibrational temperatures:     72.79   194.51   285.28   375.24   535.83
          (Kelvin)            564.87   639.74   746.93  1040.08  1076.55
                             1106.96  1141.59  1206.91  1300.81  1322.54
                             1373.17  1408.80  1413.98  1424.96  1478.46
                             1493.32  1527.97  1559.40  1589.44  1612.40
                             1645.96  1660.59  1687.96  1725.53  1763.61
                             1770.57  1796.19  1821.17  1892.48  1954.35
                             1973.62  2062.46  2125.73  2153.33  2170.40
                             2227.33  4228.15  4274.92  4385.10  4407.17
                             4460.79  4478.73  4486.67  4564.97  4597.20
                             4615.99

 Zero-point correction=                           0.160595 (Hartree/Particle)
 Thermal correction to Energy=                    0.168151
 Thermal correction to Enthalpy=                  0.169096
 Thermal correction to Gibbs Free Energy=         0.128026
 Sum of electronic and zero-point Energies=           -422.994505
 Sum of electronic and thermal Energies=              -422.986948
 Sum of electronic and thermal Enthalpies=            -422.986004
 Sum of electronic and thermal Free Energies=         -423.027073

                     E (Thermal)             CV                S
                      KCal/Mol        Cal/Mol-Kelvin    Cal/Mol-Kelvin
 Total                  105.517             29.326             86.438
 Electronic               0.000              0.000              0.000
 Translational            0.889              2.981             40.409
 Rotational               0.889              2.981             28.359
 Vibrational            103.739             23.365             17.670
 Vibration     1          0.595              1.977              4.794
 Vibration     2          0.613              1.918              2.871
 Vibration     3          0.637              1.842              2.149
 Vibration     4          0.669              1.744              1.656
 Vibration     5          0.744              1.529              1.070
 Vibration     6          0.760              1.486              0.990
 Vibration     7          0.804              1.373              0.812
 Vibration     8          0.874              1.208              0.612

 Optimization completed.
    -- Stationary point found.
 Normal termination of Gaussian 09 at Mon Jan 27 12:34:35 2020.
