 Gaussian 09, Revision D.01,
 Gaussian 09:  ES64L-G09RevD.01 24-Apr-2013

 -----------------------------
 # b3lyp 6-31G(2df,p) opt Freq
 -----------------------------

 -----
 titel
 -----
 Symbolic Z-matrix:
 Charge =  0 Multiplicity = 1

 SCF Done:  E(RB3LYP) =  -423.174340480     A.U. after   14 cycles
 Optimization completed.
    -- Stationary point found.
 Normal termination of Gaussian 09 at Mon Jan 27 22:04:55 2020.

 ----------------------------------------------------------------------
 #N Geom=AllCheck Guess=TCheck SCRF=Check GenChk RB3LYP/6-31G(2df,p) Fr
 eq
 ----------------------------------------------------------------------

 Structure from the checkpoint file:  "/scratch/puck/g09_d95c9678-8d19-497e-b5f2-dc0becd75da9/Gau-62971.chk"
 -----
 titel
 -----
 Charge =  0 Multiplicity = 1

                         Standard orientation:
 ---------------------------------------------------------------------
 Center     Atomic      Atomic             Coordinates (Angstroms)
 Number     Number       Type             X           Y           Z
 ---------------------------------------------------------------------
      1          6           0       -0.795590    1.714643   -0.892696
      2          6           0        0.025306    0.766358   -0.053946
      3          6           0        1.485644    1.117144    0.252907
      4          6           0        2.204346   -0.218626    0.243571
      5          6           0        1.389583   -1.229134   -0.069472
      6          6           0       -0.007224   -0.760814   -0.246223
      7          8           0       -0.825167   -1.419528   -1.154769
      8          6           0       -0.646335   -0.118281    0.973904
      9          8           0       -2.053830   -0.082809    0.964813
     10          1           0       -0.942196    2.672345   -0.380112
     11          1           0       -0.291926    1.915888   -1.844182
     12          1           0       -1.782975    1.305609   -1.113771
     13          1           0        1.898564    1.799833   -0.503164
     14          1           0        1.589655    1.631291    1.217793
     15          1           0        3.256391   -0.313746    0.485716
     16          1           0        1.659816   -2.275338   -0.151227
     17          1           0       -1.732707   -1.255916   -0.862974
     18          1           0       -0.191638   -0.244776    1.957181
     19          1           0       -2.365389   -0.844232    1.466127
 ---------------------------------------------------------------------

 SCF Done:  E(RB3LYP) =  -423.174340480     A.U. after    1 cycles

 The electronic state is 1-A.
 Alpha  occ. eigenvalues --  -19.16268 -19.13810 -10.23324 -10.22909 -10.18770
 Alpha  occ. eigenvalues --  -10.18544 -10.17880 -10.17726 -10.17196  -1.05025
 Alpha  occ. eigenvalues --   -1.01757  -0.87231  -0.76331  -0.72161  -0.67681
 Alpha  occ. eigenvalues --   -0.60832  -0.55720  -0.53956  -0.52274  -0.48517
 Alpha  occ. eigenvalues --   -0.48016  -0.44572  -0.41025  -0.40033  -0.38964
 Alpha  occ. eigenvalues --   -0.38023  -0.37235  -0.36227  -0.34930  -0.33412
 Alpha  occ. eigenvalues --   -0.32068  -0.28004  -0.24815  -0.20673
 Alpha virt. eigenvalues --    0.01829   0.05565   0.11304   0.11974   0.12662
 Alpha virt. eigenvalues --    0.14304   0.15397   0.15471   0.16724   0.17423
 Alpha virt. eigenvalues --    0.18110   0.19959   0.20169   0.22068   0.23500

 Mulliken charges:
               1
     1  C   -0.475637
     2  C    0.205002
     3  C   -0.337582
     4  C   -0.081881
     5  C   -0.133061
     6  C    0.347907
     7  O   -0.485997
     8  C   -0.034347
     9  O   -0.435614
    10  H    0.116501
    11  H    0.118828
    12  H    0.126222
    13  H    0.107183
    14  H    0.107937
    15  H    0.095578
    16  H    0.099418
    17  H    0.280155
    18  H    0.083943
    19  H    0.295446
 Sum of Mulliken charges =   0.00000

 Dipole moment (field-independent basis, Debye):
    X=             -0.2504    Y=             -0.1334    Z=              1.8193  Tot=              1.8413
 Quadrupole moment (field-independent basis, Debye-Ang):
   XX=            -49.2521   YY=            -52.6395   ZZ=            -53.6712
   XY=              3.6443   XZ=             -1.0948   YZ=             -3.9544

  Exact polarizability:  86.969   3.387  79.718   1.574  -0.184  62.738
 Approx polarizability: 125.246  12.140 122.042   1.694   5.305  96.967

                      1                      2                      3
                      A                      A                      A
 Frequencies --    120.1557               172.9504               195.6211
 Red. masses --      1.0283                 3.4033                 3.4511
 Frc consts  --      0.0087                 0.0600                 0.0778
 IR Inten    --      1.1469                 2.7437                 3.6588

                      4                      5                      6
                      A                      A                      A
 Frequencies --    236.5652               261.5329               279.5694
 Red. masses --      3.8842                 4.0454                 1.2795
 Frc consts  --      0.1281                 0.1630                 0.0589
 IR Inten    --      3.3304                 5.3066                99.6780

                      7                      8                      9
                      A                      A                      A
 Frequencies --    309.0069               389.4356               444.6215
 Red. masses --      2.2924                 2.7301                 2.3869
 Frc consts  --      0.1290                 0.2439                 0.2780
 IR Inten    --     15.1540                 1.0167                 2.9996

                     10                     11                     12
                      A                      A                      A
 Frequencies --    486.7329               512.8190               545.4719
 Red. masses --      1.0944                 3.1805                 5.1460
 Frc consts  --      0.1528                 0.4928                 0.9021
 IR Inten    --     68.2433                 9.3740                17.0059

                     13                     14                     15
                      A                      A                      A
 Frequencies --    635.9572               697.9248               731.9397
 Red. masses --      3.6551                 2.8534                 1.9566
 Frc consts  --      0.8710                 0.8189                 0.6176
 IR Inten    --      0.5341                 1.9916                22.1158

                     16                     17                     18
                      A                      A                      A
 Frequencies --    772.7600               774.8826               899.6526
 Red. masses --      3.9724                 3.2464                 3.8667
 Frc consts  --      1.3976                 1.1485                 1.8439
 IR Inten    --      7.9830                12.5370                11.1198

                     19                     20                     21
                      A                      A                      A
 Frequencies --    927.0740               952.5092               972.5265
 Red. masses --      2.0358                 1.3479                 1.7291
 Frc consts  --      1.0309                 0.7205                 0.9635
 IR Inten    --      8.6030                 2.5444                 5.3925

                     22                     23                     24
                      A                      A                      A
 Frequencies --    980.2294              1047.0146              1070.5967
 Red. masses --      1.8804                 1.2942                 1.8706
 Frc consts  --      1.0645                 0.8359                 1.2633
 IR Inten    --      5.1726                 0.6442                11.1925

                     25                     26                     27
                      A                      A                      A
 Frequencies --   1094.4350              1116.9098              1146.0970
 Red. masses --      1.7593                 1.6582                 2.1088
 Frc consts  --      1.2415                 1.2188                 1.6320
 IR Inten    --      3.9770                42.3189                22.2940

                     28                     29                     30
                      A                      A                      A
 Frequencies --   1180.3239              1216.4708              1236.4071
 Red. masses --      1.3175                 1.5627                 2.3624
 Frc consts  --      1.0814                 1.3625                 2.1278
 IR Inten    --     23.1548                29.8221                33.2337

                     31                     32                     33
                      A                      A                      A
 Frequencies --   1265.3981              1301.9056              1340.4116
 Red. masses --      1.4303                 2.5643                 1.6679
 Frc consts  --      1.3493                 2.5608                 1.7656
 IR Inten    --     57.4269                37.2101                39.4772

                     34                     35                     36
                      A                      A                      A
 Frequencies --   1354.3305              1408.5129              1431.4793
 Red. masses --      1.5599                 1.4737                 1.7549
 Frc consts  --      1.6858                 1.7226                 2.1187
 IR Inten    --     68.1635                 1.6880                 6.8945

                     37                     38                     39
                      A                      A                      A
 Frequencies --   1451.7808              1478.4500              1488.5456
 Red. masses --      2.0536                 1.1404                 1.0512
 Frc consts  --      2.5502                 1.4687                 1.3723
 IR Inten    --      9.9001                 5.5342                 6.6179

                     40                     41                     42
                      A                      A                      A
 Frequencies --   1500.5537              1668.1527              3005.2805
 Red. masses --      1.1221                 6.3400                 1.0614
 Frc consts  --      1.4886                10.3947                 5.6480
 IR Inten    --     12.1970                 6.0681                38.6445

                     43                     44                     45
                      A                      A                      A
 Frequencies --   3031.8324              3035.2864              3087.5115
 Red. masses --      1.0393                 1.0994                 1.1005
 Frc consts  --      5.6284                 5.9678                 6.1810
 IR Inten    --     39.1383                21.3950                17.9141

                     46                     47                     48
                      A                      A                      A
 Frequencies --   3088.6640              3131.5882              3192.1070
 Red. masses --      1.0890                 1.0968                 1.0848
 Frc consts  --      6.1210                 6.3375                 6.5128
 IR Inten    --     33.8704                12.4287                 4.3030

                     49                     50                     51
                      A                      A                      A
 Frequencies --   3216.1084              3744.4481              3805.8862
 Red. masses --      1.1042                 1.0648                 1.0663
 Frc consts  --      6.7290                 8.7961                 9.0996
 IR Inten    --     19.3586                43.3272                33.8801

 - Thermochemistry -
 -------------------
 Temperature   298.150 Kelvin.  Pressure   1.00000 Atm.
 Atom     1 has atomic number  6 and mass  12.00000

 Molecular mass:   126.06808 amu.
 Principal axes and moments of inertia in atomic units:
                           1         2         3
     Eigenvalues --   766.280941086.070121333.72094
           X            0.99984   0.00320   0.01767
           Y           -0.00184   0.99705  -0.07668
           Z           -0.01786   0.07664   0.99690
 This molecule is an asymmetric top.
 Rotational symmetry number  1.
 Warning -- assumption of classical behavior for rotation
           may cause significant error
 Rotational temperatures (Kelvin)      0.11303     0.07975     0.06494
 Rotational constants (GHZ):           2.35520     1.66172     1.35316
 Zero-point vibrational energy     415322.1 (Joules/Mol)
                                   99.26436 (Kcal/Mol)
 Warning -- explicit consideration of  12 degrees of freedom as
           vibrations may cause significant error
 Vibrational temperatures:    172.88   248.84   281.45   340.36   376.29
          (Kelvin)            402.24   444.59   560.31   639.71   700.30
                              737.83   784.81   915.00  1004.16  1053.10
                             1111.83  1114.88  1294.40  1333.85  1370.45
                             1399.25  1410.33  1506.42  1540.35  1574.65
                             1606.98  1648.98  1698.22  1750.23  1778.91
                             1820.62  1873.15  1928.55  1948.58  2026.53
                             2059.58  2088.79  2127.16  2141.68  2158.96
                             2400.10  4323.92  4362.13  4367.09  4442.23
                             4443.89  4505.65  4592.72  4627.26  5387.42
                             5475.81

 Zero-point correction=                           0.158188 (Hartree/Particle)
 Thermal correction to Energy=                    0.166962
 Thermal correction to Enthalpy=                  0.167907
 Thermal correction to Gibbs Free Energy=         0.125477
 Sum of electronic and zero-point Energies=           -423.016153
 Sum of electronic and thermal Energies=              -423.007378
 Sum of electronic and thermal Enthalpies=            -423.006434
 Sum of electronic and thermal Free Energies=         -423.048863

                     E (Thermal)             CV                S
                      KCal/Mol        Cal/Mol-Kelvin    Cal/Mol-Kelvin
 Total                  104.770             34.332             89.300
 Electronic               0.000              0.000              0.000
 Translational            0.889              2.981             40.409
 Rotational               0.889              2.981             28.497
 Vibrational            102.993             28.370             20.394
 Vibration     1          0.609              1.932              3.098
 Vibration     2          0.626              1.876              2.403
 Vibration     3          0.636              1.846              2.174
 Vibration     4          0.655              1.785              1.829
 Vibration     5          0.669              1.743              1.652
 Vibration     6          0.680              1.711              1.536
 Vibration     7          0.698              1.657              1.368
 Vibration     8          0.757              1.493              1.002
 Vibration     9          0.804              1.373              0.812
 Vibration    10          0.843              1.279              0.692
 Vibration    11          0.868              1.222              0.627
 Vibration    12          0.901              1.150              0.554

 Optimization completed.
    -- Stationary point found.
 Normal termination of Gaussian 09 at Mon Jan 27 22:50:48 2020.
