 Gaussian 09, Revision D.01,
 Gaussian 09:  ES64L-G09RevD.01 24-Apr-2013

 -----------------------------
 # b3lyp 6-31G(2df,p) opt Freq
 -----------------------------

 -----
 titel
 -----
 Symbolic Z-matrix:
 Charge =  0 Multiplicity = 1

 SCF Done:  E(RB3LYP) =  -423.167814368     A.U. after   14 cycles
 Optimization completed.
    -- Stationary point found.
 Normal termination of Gaussian 09 at Tue Jan 28 00:38:43 2020.

 ----------------------------------------------------------------------
 #N Geom=AllCheck Guess=TCheck SCRF=Check GenChk RB3LYP/6-31G(2df,p) Fr
 eq
 ----------------------------------------------------------------------

 Structure from the checkpoint file:  "/scratch/puck/g09_8b3ee795-469d-42fd-ae12-d77ad661587a/Gau-36681.chk"
 -----
 titel
 -----
 Charge =  0 Multiplicity = 1

                         Standard orientation:
 ---------------------------------------------------------------------
 Center     Atomic      Atomic             Coordinates (Angstroms)
 Number     Number       Type             X           Y           Z
 ---------------------------------------------------------------------
      1          8           0        0.482719    2.036527   -0.371558
      2          6           0        0.777412    0.835163    0.317137
      3          6           0        2.210280    0.406408    0.131788
      4          6           0        2.307488   -0.906514   -0.066920
      5          6           0        0.954034   -1.584332   -0.086851
      6          6           0       -0.014665   -0.385648   -0.228324
      7          6           0       -1.363884   -0.527358    0.424238
      8          6           0       -2.613161   -0.622655   -0.340395
      9          8           0       -2.228303    0.614797    0.267242
     10          1           0       -0.468613    2.172566   -0.282221
     11          1           0        0.572399    0.968822    1.395919
     12          1           0        3.031802    1.108027    0.214454
     13          1           0        3.234718   -1.459694   -0.168196
     14          1           0        0.847124   -2.314743   -0.896442
     15          1           0        0.779756   -2.135529    0.849423
     16          1           0       -0.157598   -0.174201   -1.294214
     17          1           0       -1.360691   -0.926029    1.440801
     18          1           0       -2.571348   -0.641219   -1.428544
     19          1           0       -3.487895   -1.098982    0.099507
 ---------------------------------------------------------------------

 SCF Done:  E(RB3LYP) =  -423.167814368     A.U. after    1 cycles

 The electronic state is 1-A.
 Alpha  occ. eigenvalues --  -19.15864 -19.12360 -10.24326 -10.24041 -10.22931
 Alpha  occ. eigenvalues --  -10.19236 -10.19067 -10.18459 -10.17756  -1.07513
 Alpha  occ. eigenvalues --   -1.00858  -0.84285  -0.73915  -0.69619  -0.67166
 Alpha  occ. eigenvalues --   -0.62501  -0.57933  -0.53422  -0.51826  -0.50401
 Alpha  occ. eigenvalues --   -0.48831  -0.45398  -0.42594  -0.41399  -0.39227
 Alpha  occ. eigenvalues --   -0.38699  -0.36465  -0.35996  -0.35205  -0.33211
 Alpha  occ. eigenvalues --   -0.29667  -0.27523  -0.26472  -0.24252
 Alpha virt. eigenvalues --    0.01766   0.08709   0.09253   0.10250   0.10634
 Alpha virt. eigenvalues --    0.11912   0.13348   0.14896   0.16210   0.16713
 Alpha virt. eigenvalues --    0.17819   0.18099   0.19059   0.19343   0.21474

 Mulliken charges:
               1
     1  O   -0.450953
     2  C    0.111842
     3  C   -0.081508
     4  C   -0.070234
     5  C   -0.302163
     6  C   -0.022273
     7  C    0.050007
     8  C   -0.180291
     9  O   -0.249401
    10  H    0.290793
    11  H    0.069137
    12  H    0.103453
    13  H    0.096600
    14  H    0.109147
    15  H    0.106724
    16  H    0.087177
    17  H    0.094831
    18  H    0.118401
    19  H    0.118712
 Sum of Mulliken charges =   0.00000

 Dipole moment (field-independent basis, Debye):
    X=             -0.5737    Y=             -2.6480    Z=              0.2651  Tot=              2.7223
 Quadrupole moment (field-independent basis, Debye-Ang):
   XX=            -51.0295   YY=            -55.0437   ZZ=            -52.7879
   XY=              0.7438   XZ=              2.0611   YZ=              1.0469

  Exact polarizability:  90.278   0.461  79.513   2.142   1.835  59.262
 Approx polarizability: 113.921  -1.659 128.980   2.655   3.791  93.728

                      1                      2                      3
                      A                      A                      A
 Frequencies --     74.4872                94.4429               173.1247
 Red. masses --      3.9965                 3.5660                 3.4424
 Frc consts  --      0.0131                 0.0187                 0.0608
 IR Inten    --      1.5345                 1.3798                 3.8469

                      4                      5                      6
                      A                      A                      A
 Frequencies --    243.8424               300.3824               364.5841
 Red. masses --      3.1933                 3.1486                 4.9665
 Frc consts  --      0.1119                 0.1674                 0.3889
 IR Inten    --      0.3120                 5.5657                 6.0354

                      7                      8                      9
                      A                      A                      A
 Frequencies --    397.4343               435.3178               479.7338
 Red. masses --      2.0303                 1.2639                 3.1845
 Frc consts  --      0.1889                 0.1411                 0.4318
 IR Inten    --     14.4168                89.8364                 6.0367

                     10                     11                     12
                      A                      A                      A
 Frequencies --    544.1814               593.7987               748.9624
 Red. masses --      3.1852                 3.0277                 1.6999
 Frc consts  --      0.5557                 0.6290                 0.5618
 IR Inten    --     11.5024                 7.9995                12.9154

                     13                     14                     15
                      A                      A                      A
 Frequencies --    773.6041               832.7212               858.2198
 Red. masses --      3.0081                 5.8000                 1.9563
 Frc consts  --      1.0607                 2.3696                 0.8490
 IR Inten    --      4.6208                19.4810                13.8226

                     16                     17                     18
                      A                      A                      A
 Frequencies --    895.6149               945.4799               966.4724
 Red. masses --      2.7374                 1.9123                 1.7885
 Frc consts  --      1.2937                 1.0072                 0.9843
 IR Inten    --     22.1489                 3.4776                 1.4869

                     19                     20                     21
                      A                      A                      A
 Frequencies --    974.2683               990.4980              1041.5317
 Red. masses --      1.2780                 2.6937                 2.7325
 Frc consts  --      0.7147                 1.5571                 1.7465
 IR Inten    --      2.2113                 8.2685                 9.5027

                     22                     23                     24
                      A                      A                      A
 Frequencies --   1071.8527              1086.3737              1111.2718
 Red. masses --      1.8525                 1.6491                 1.8246
 Frc consts  --      1.2540                 1.1467                 1.3276
 IR Inten    --     14.2375                28.1324                 3.4145

                     25                     26                     27
                      A                      A                      A
 Frequencies --   1133.6895              1148.8011              1162.1951
 Red. masses --      1.8164                 1.5347                 1.4624
 Frc consts  --      1.3755                 1.1933                 1.1638
 IR Inten    --     21.8332                13.1962                11.6455

                     28                     29                     30
                      A                      A                      A
 Frequencies --   1175.4932              1191.6692              1245.8065
 Red. masses --      1.3308                 1.5420                 1.2103
 Frc consts  --      1.0835                 1.2902                 1.1068
 IR Inten    --      3.6049                21.8308                52.3859

                     31                     32                     33
                      A                      A                      A
 Frequencies --   1271.1570              1289.9630              1297.2421
 Red. masses --      1.2002                 1.6075                 1.3202
 Frc consts  --      1.1426                 1.5760                 1.3089
 IR Inten    --      9.8596                 7.7929                 2.4762

                     34                     35                     36
                      A                      A                      A
 Frequencies --   1322.3650              1351.6101              1369.0704
 Red. masses --      1.3589                 1.4662                 1.4605
 Frc consts  --      1.4001                 1.5782                 1.6129
 IR Inten    --     13.1247                 1.3908                36.0349

                     37                     38                     39
                      A                      A                      A
 Frequencies --   1438.5205              1455.2920              1492.5322
 Red. masses --      1.6193                 1.7542                 1.0976
 Frc consts  --      1.9742                 2.1889                 1.4406
 IR Inten    --     10.3886                11.0888                 2.3577

                     40                     41                     42
                      A                      A                      A
 Frequencies --   1527.0888              1685.8002              2918.5828
 Red. masses --      1.3549                 6.4042                 1.0803
 Frc consts  --      1.8616                10.7233                 5.4219
 IR Inten    --      2.3819                 3.5607                55.0954

                     43                     44                     45
                      A                      A                      A
 Frequencies --   2999.0219              3042.5897              3060.0561
 Red. masses --      1.0698                 1.0840                 1.0910
 Frc consts  --      5.6688                 5.9122                 6.0190
 IR Inten    --     31.1130                 7.1760                28.3195

                     46                     47                     48
                      A                      A                      A
 Frequencies --   3085.3162              3093.7043              3173.8578
 Red. masses --      1.0510                 1.0875                 1.1196
 Frc consts  --      5.8945                 6.1325                 6.6447
 IR Inten    --     31.7814                25.8865                25.0505

                     49                     50                     51
                      A                      A                      A
 Frequencies --   3187.8312              3215.9951              3785.1663
 Red. masses --      1.0858                 1.1036                 1.0658
 Frc consts  --      6.5012                 6.7249                 8.9973
 IR Inten    --      8.1294                18.0004                42.5609

 - Thermochemistry -
 -------------------
 Temperature   298.150 Kelvin.  Pressure   1.00000 Atm.
 Atom     1 has atomic number  8 and mass  15.99491

 Molecular mass:   126.06808 amu.
 Principal axes and moments of inertia in atomic units:
                           1         2         3
     Eigenvalues --   616.041051389.874121873.35071
           X            0.99996   0.00586   0.00709
           Y           -0.00592   0.99994   0.00872
           Z           -0.00704  -0.00876   0.99994
 This molecule is an asymmetric top.
 Rotational symmetry number  1.
 Warning -- assumption of classical behavior for rotation
           may cause significant error
 Rotational temperatures (Kelvin)      0.14060     0.06232     0.04623
 Rotational constants (GHZ):           2.92958     1.29849     0.96338
 Zero-point vibrational energy     419402.5 (Joules/Mol)
                                  100.23960 (Kcal/Mol)
 Warning -- explicit consideration of  11 degrees of freedom as
           vibrations may cause significant error
 Vibrational temperatures:    107.17   135.88   249.09   350.83   432.18
          (Kelvin)            524.55   571.82   626.32   690.23   782.95
                              854.34  1077.59  1113.04  1198.10  1234.79
                             1288.59  1360.33  1390.54  1401.75  1425.10
                             1498.53  1542.16  1563.05  1598.87  1631.12
                             1652.87  1672.14  1691.27  1714.54  1792.44
                             1828.91  1855.97  1866.44  1902.59  1944.66
                             1969.78  2069.71  2093.84  2147.42  2197.14
                             2425.49  4199.18  4314.92  4377.60  4402.73
                             4439.08  4451.14  4566.47  4586.57  4627.09
                             5446.00

 Zero-point correction=                           0.159742 (Hartree/Particle)
 Thermal correction to Energy=                    0.167997
 Thermal correction to Enthalpy=                  0.168941
 Thermal correction to Gibbs Free Energy=         0.126529
 Sum of electronic and zero-point Energies=           -423.008072
 Sum of electronic and thermal Energies=              -422.999818
 Sum of electronic and thermal Enthalpies=            -422.998874
 Sum of electronic and thermal Free Energies=         -423.041285

                     E (Thermal)             CV                S
                      KCal/Mol        Cal/Mol-Kelvin    Cal/Mol-Kelvin
 Total                  105.419             31.601             89.262
 Electronic               0.000              0.000              0.000
 Translational            0.889              2.981             40.409
 Rotational               0.889              2.981             28.863
 Vibrational            103.642             25.639             19.991
 Vibration     1          0.599              1.966              4.031
 Vibration     2          0.603              1.953              3.566
 Vibration     3          0.627              1.876              2.401
 Vibration     4          0.659              1.773              1.775
 Vibration     5          0.693              1.673              1.415
 Vibration     6          0.738              1.545              1.102
 Vibration     7          0.764              1.476              0.972
 Vibration     8          0.796              1.393              0.841
 Vibration     9          0.836              1.295              0.711
 Vibration    10          0.899              1.152              0.556
 Vibration    11          0.951              1.045              0.460

 Optimization completed.
    -- Stationary point found.
 Normal termination of Gaussian 09 at Tue Jan 28 02:36:08 2020.
