 Gaussian 09, Revision D.01,
 Gaussian 09:  ES64L-G09RevD.01 24-Apr-2013

 -----------------------------
 # b3lyp 6-31G(2df,p) opt Freq
 -----------------------------

 -----
 titel
 -----
 Symbolic Z-matrix:
 Charge =  0 Multiplicity = 1

 SCF Done:  E(RB3LYP) =  -423.114201025     A.U. after   14 cycles
 Optimization completed.
    -- Stationary point found.
 Normal termination of Gaussian 09 at Tue Jan 28 14:27:28 2020.

 ----------------------------------------------------------------------
 #N Geom=AllCheck Guess=TCheck SCRF=Check GenChk RB3LYP/6-31G(2df,p) Fr
 eq
 ----------------------------------------------------------------------

 Structure from the checkpoint file:  "/scratch/puck/g09_31d04c27-de8e-47ff-a2e6-b7d1826bbe13/Gau-122014.chk"
 -----
 titel
 -----
 Charge =  0 Multiplicity = 1

                         Standard orientation:
 ---------------------------------------------------------------------
 Center     Atomic      Atomic             Coordinates (Angstroms)
 Number     Number       Type             X           Y           Z
 ---------------------------------------------------------------------
      1          6           0        4.052605    1.097551   -0.028664
      2          6           0        3.278208   -0.199259    0.127994
      3          8           0        1.901981    0.077203   -0.054648
      4          6           0        1.098890   -1.078198    0.074747
      5          6           0       -0.305405   -0.741242   -0.111455
      6          6           0       -1.472434   -0.481021   -0.252814
      7          6           0       -2.864202   -0.183865   -0.448046
      8          6           0       -3.426555    1.138556   -0.106667
      9          8           0       -3.676978    0.012938    0.722591
     10          1           0        3.894315    1.520702   -1.024515
     11          1           0        3.723856    1.831694    0.712082
     12          1           0        5.123441    0.919958    0.108202
     13          1           0        3.616910   -0.946361   -0.610297
     14          1           0        3.448460   -0.635683    1.127180
     15          1           0        1.397176   -1.842170   -0.664758
     16          1           0        1.237203   -1.537263    1.069564
     17          1           0       -3.361157   -0.754276   -1.231985
     18          1           0       -2.767234    1.895786    0.312778
     19          1           0       -4.279642    1.511354   -0.672362
 ---------------------------------------------------------------------

 SCF Done:  E(RB3LYP) =  -423.114201025     A.U. after    1 cycles

 The electronic state is 1-A.
 Alpha  occ. eigenvalues --  -19.15791 -19.14475 -10.26086 -10.25538 -10.24214
 Alpha  occ. eigenvalues --  -10.23279 -10.18559 -10.18218 -10.17843  -1.07803
 Alpha  occ. eigenvalues --   -1.03979  -0.79035  -0.75598  -0.71121  -0.66931
 Alpha  occ. eigenvalues --   -0.64181  -0.61233  -0.53567  -0.50138  -0.49920
 Alpha  occ. eigenvalues --   -0.49114  -0.48399  -0.43694  -0.41428  -0.40466
 Alpha  occ. eigenvalues --   -0.38844  -0.38173  -0.36042  -0.34367  -0.32694
 Alpha  occ. eigenvalues --   -0.28099  -0.27406  -0.25964  -0.25381
 Alpha virt. eigenvalues --    0.01630   0.03540   0.09120   0.10884   0.11644
 Alpha virt. eigenvalues --    0.12936   0.14093   0.14468   0.15481   0.16649
 Alpha virt. eigenvalues --    0.17111   0.17349   0.19051   0.19406   0.20542

 Mulliken charges:
               1
     1  C   -0.386965
     2  C   -0.017659
     3  O   -0.240973
     4  C   -0.208657
     5  C    0.024825
     6  C    0.171540
     7  C   -0.123151
     8  C   -0.157857
     9  O   -0.214292
    10  H    0.129567
    11  H    0.130237
    12  H    0.115987
    13  H    0.086941
    14  H    0.087921
    15  H    0.116711
    16  H    0.120040
    17  H    0.117304
    18  H    0.128733
    19  H    0.119748
 Sum of Mulliken charges =   0.00000

 Dipole moment (field-independent basis, Debye):
    X=              1.5336    Y=             -0.1335    Z=             -1.1191  Tot=              1.9032
 Quadrupole moment (field-independent basis, Debye-Ang):
   XX=            -48.4000   YY=            -50.4306   ZZ=            -53.9013
   XY=             -5.1770   XZ=              6.6999   YZ=              0.5539

  Exact polarizability: 122.377  -9.710  71.813   4.017   0.946  59.418
 Approx polarizability: 157.414 -17.860 102.406   3.562   0.053  90.461

                      1                      2                      3
                      A                      A                      A
 Frequencies --     25.6235                58.9842                64.8208
 Red. masses --      3.2636                 2.6936                 2.6917
 Frc consts  --      0.0013                 0.0055                 0.0067
 IR Inten    --      3.1765                 2.6417                 2.2056

                      4                      5                      6
                      A                      A                      A
 Frequencies --    112.0881               136.4762               173.7637
 Red. masses --      3.9368                 3.0745                 3.8232
 Frc consts  --      0.0291                 0.0337                 0.0680
 IR Inten    --      3.2509                 3.3509                 1.4256

                      7                      8                      9
                      A                      A                      A
 Frequencies --    246.8321               280.8912               316.7281
 Red. masses --      1.1645                 4.2441                 3.9944
 Frc consts  --      0.0418                 0.1973                 0.2361
 IR Inten    --      0.7052                 0.1816                 2.7867

                     10                     11                     12
                      A                      A                      A
 Frequencies --    375.5371               473.2011               533.3810
 Red. masses --      4.3469                 3.5295                 6.6303
 Frc consts  --      0.3612                 0.4657                 1.1114
 IR Inten    --      0.4889                 1.5524                 5.7877

                     13                     14                     15
                      A                      A                      A
 Frequencies --    573.2735               746.7637               821.5098
 Red. masses --      5.6355                 2.5194                 1.0824
 Frc consts  --      1.0912                 0.8278                 0.4304
 IR Inten    --      4.3924                 3.1638                 0.4758

                     16                     17                     18
                      A                      A                      A
 Frequencies --    834.8986               899.6316               913.6924
 Red. masses --      7.9034                 2.5303                 2.8103
 Frc consts  --      3.2459                 1.2066                 1.3823
 IR Inten    --     26.5088                21.6548                18.1469

                     19                     20                     21
                      A                      A                      A
 Frequencies --    996.9074              1025.1635              1034.7059
 Red. masses --      1.8299                 1.6387                 3.4935
 Frc consts  --      1.0715                 1.0147                 2.2036
 IR Inten    --     17.8102                 1.6200                18.9912

                     22                     23                     24
                      A                      A                      A
 Frequencies --   1083.9633              1131.6900              1147.6184
 Red. masses --      1.1859                 4.2507                 2.0710
 Frc consts  --      0.8210                 3.2075                 1.6070
 IR Inten    --      0.1258               143.2732                13.2671

                     25                     26                     27
                      A                      A                      A
 Frequencies --   1156.8157              1161.6078              1188.2339
 Red. masses --      1.6005                 1.6560                 1.6201
 Frc consts  --      1.2619                 1.3166                 1.3477
 IR Inten    --     22.1744                68.8528                10.2274

                     28                     29                     30
                      A                      A                      A
 Frequencies --   1189.9302              1254.0797              1283.8581
 Red. masses --      2.2548                 1.0836                 1.6377
 Frc consts  --      1.8810                 1.0041                 1.5905
 IR Inten    --     40.3038                 3.4982                 8.9564

                     31                     32                     33
                      A                      A                      A
 Frequencies --   1295.8561              1378.7023              1404.4858
 Red. masses --      1.1047                 1.2433                 1.3132
 Frc consts  --      1.0930                 1.3925                 1.5262
 IR Inten    --      2.2815               115.1154                 1.5994

                     34                     35                     36
                      A                      A                      A
 Frequencies --   1407.6695              1447.1157              1483.3717
 Red. masses --      1.7906                 1.5212                 1.0402
 Frc consts  --      2.0904                 1.8769                 1.3486
 IR Inten    --     61.6803                21.5738                 4.1301

                     37                     38                     39
                      A                      A                      A
 Frequencies --   1494.3906              1500.4794              1519.2434
 Red. masses --      1.0792                 1.0461                 1.2348
 Frc consts  --      1.4200                 1.3877                 1.6791
 IR Inten    --      4.1704                 0.3725                 1.9763

                     40                     41                     42
                      A                      A                      A
 Frequencies --   1531.4416              2369.9518              2942.8127
 Red. masses --      1.0910                11.8877                 1.0542
 Frc consts  --      1.5076                39.3393                 5.3789
 IR Inten    --      3.0255                 0.1897                 8.5890

                     43                     44                     45
                      A                      A                      A
 Frequencies --   2954.8122              2962.4448              2975.8984
 Red. masses --      1.0545                 1.1021                 1.1059
 Frc consts  --      5.4246                 5.6986                 5.7701
 IR Inten    --     89.9973                50.8416                43.9263

                     46                     47                     48
                      A                      A                      A
 Frequencies --   3046.2295              3086.1018              3115.7029
 Red. masses --      1.0347                 1.0500                 1.0867
 Frc consts  --      5.6568                 5.8918                 6.2153
 IR Inten    --     16.7564                26.9736                18.7529

                     49                     50                     51
                      A                      A                      A
 Frequencies --   3120.6535              3124.0743              3180.7405
 Red. masses --      1.1015                 1.1028                 1.1199
 Frc consts  --      6.3200                 6.3413                 6.6758
 IR Inten    --     24.0675                24.2511                22.7290

 - Thermochemistry -
 -------------------
 Temperature   298.150 Kelvin.  Pressure   1.00000 Atm.
 Atom     1 has atomic number  6 and mass  12.00000

 Molecular mass:   126.06808 amu.
 Principal axes and moments of inertia in atomic units:
                           1         2         3
     Eigenvalues --   333.700193646.061593844.11781
           X            0.99997  -0.00171   0.00742
           Y            0.00174   0.99999  -0.00415
           Z           -0.00741   0.00417   0.99996
 This molecule is an asymmetric top.
 Rotational symmetry number  1.
 Rotational temperatures (Kelvin)      0.25956     0.02376     0.02253
 Rotational constants (GHZ):           5.40827     0.49498     0.46948
 Zero-point vibrational energy     410228.5 (Joules/Mol)
                                   98.04696 (Kcal/Mol)
 Warning -- explicit consideration of  13 degrees of freedom as
           vibrations may cause significant error
 Vibrational temperatures:     36.87    84.87    93.26   161.27   196.36
          (Kelvin)            250.01   355.14   404.14   455.70   540.31
                              680.83   767.42   824.81  1074.43  1181.97
                             1201.23  1294.37  1314.60  1434.33  1474.98
                             1488.71  1559.58  1628.25  1651.16  1664.40
                             1671.29  1709.60  1712.04  1804.34  1847.18
                             1864.45  1983.64  2020.74  2025.32  2082.07
                             2134.24  2150.09  2158.85  2185.85  2203.40
                             3409.83  4234.05  4251.31  4262.29  4281.65
                             4382.84  4440.21  4482.80  4489.92  4494.84
                             4576.37

 Zero-point correction=                           0.156248 (Hartree/Particle)
 Thermal correction to Energy=                    0.166538
 Thermal correction to Enthalpy=                  0.167482
 Thermal correction to Gibbs Free Energy=         0.118563
 Sum of electronic and zero-point Energies=           -422.957953
 Sum of electronic and thermal Energies=              -422.947663
 Sum of electronic and thermal Enthalpies=            -422.946719
 Sum of electronic and thermal Free Energies=         -422.995638

                     E (Thermal)             CV                S
                      KCal/Mol        Cal/Mol-Kelvin    Cal/Mol-Kelvin
 Total                  104.504             34.787            102.958
 Electronic               0.000              0.000              0.000
 Translational            0.889              2.981             40.409
 Rotational               0.889              2.981             29.926
 Vibrational            102.726             28.825             32.623
 Vibration     1          0.593              1.985              6.142
 Vibration     2          0.596              1.974              4.491
 Vibration     3          0.597              1.971              4.305
 Vibration     4          0.607              1.939              3.232
 Vibration     5          0.614              1.917              2.853
 Vibration     6          0.627              1.875              2.394
 Vibration     7          0.661              1.768              1.753
 Vibration     8          0.681              1.709              1.528
 Vibration     9          0.704              1.642              1.327
 Vibration    10          0.746              1.522              1.057
 Vibration    11          0.830              1.310              0.729
 Vibration    12          0.888              1.176              0.580
 Vibration    13          0.930              1.089              0.498

 Optimization completed.
    -- Stationary point found.
 Normal termination of Gaussian 09 at Tue Jan 28 14:54:41 2020.
