 Gaussian 09, Revision D.01,
 Gaussian 09:  ES64L-G09RevD.01 24-Apr-2013

 -----------------------------
 # b3lyp 6-31G(2df,p) opt Freq
 -----------------------------

 -----
 titel
 -----
 Symbolic Z-matrix:
 Charge =  0 Multiplicity = 1

 SCF Done:  E(RB3LYP) =  -423.226305102     A.U. after   14 cycles
 SCF Done:  E(RB3LYP) =  -423.226302578     A.U. after    7 cycles
 SCF Done:  E(RB3LYP) =  -423.226305423     A.U. after    7 cycles
 Optimization completed.
    -- Stationary point found.
 Normal termination of Gaussian 09 at Mon Jan 27 17:17:34 2020.

 ----------------------------------------------------------------------
 #N Geom=AllCheck Guess=TCheck SCRF=Check GenChk RB3LYP/6-31G(2df,p) Fr
 eq
 ----------------------------------------------------------------------

 Structure from the checkpoint file:  "/scratch/puck/g09_ac60d0be-1fd6-426c-b78a-3b2f9447c7c5/Gau-165845.chk"
 -----
 titel
 -----
 Charge =  0 Multiplicity = 1

                         Standard orientation:
 ---------------------------------------------------------------------
 Center     Atomic      Atomic             Coordinates (Angstroms)
 Number     Number       Type             X           Y           Z
 ---------------------------------------------------------------------
      1          6           0        2.672022    0.182583   -0.000017
      2          6           0        1.163293    0.016570    0.000009
      3          6           0        0.477314   -0.877754    1.072756
      4          6           0       -0.619685   -1.135061    0.000005
      5          6           0        0.477317   -0.877746   -1.072744
      6          6           0       -1.581922    0.032048   -0.000001
      7          8           0       -2.778090   -0.051211   -0.000019
      8          8           0       -0.989309    1.259023    0.000005
      9          6           0        0.447123    1.366864    0.000015
     10          1           0        3.013885    0.731101   -0.885308
     11          1           0        3.013911    0.731356    0.885105
     12          1           0        3.166994   -0.793478    0.000116
     13          1           0        1.054771   -1.784500    1.270920
     14          1           0        0.178848   -0.418364    2.019296
     15          1           0       -1.177546   -2.069320    0.000003
     16          1           0        1.054779   -1.784487   -1.270915
     17          1           0        0.178854   -0.418348   -2.019281
     18          1           0        0.720968    1.949269   -0.887955
     19          1           0        0.720959    1.949248    0.888001
 ---------------------------------------------------------------------

 SCF Done:  E(RB3LYP) =  -423.226305423     A.U. after    1 cycles

 The electronic state is 1-A.
 Alpha  occ. eigenvalues --  -19.17456 -19.11388 -10.29837 -10.24801 -10.21667
 Alpha  occ. eigenvalues --  -10.20726 -10.20096 -10.20096 -10.19266  -1.09020
 Alpha  occ. eigenvalues --   -1.01059  -0.88058  -0.77320  -0.70890  -0.68094
 Alpha  occ. eigenvalues --   -0.64803  -0.60264  -0.52619  -0.50167  -0.48768
 Alpha  occ. eigenvalues --   -0.47370  -0.45399  -0.44505  -0.42071  -0.40294
 Alpha  occ. eigenvalues --   -0.40195  -0.39527  -0.39421  -0.33778  -0.32951
 Alpha  occ. eigenvalues --   -0.32472  -0.30990  -0.28774  -0.25725
 Alpha virt. eigenvalues --    0.01900   0.06898   0.08756   0.10378   0.11943
 Alpha virt. eigenvalues --    0.12480   0.14375   0.15234   0.15418   0.16345
 Alpha virt. eigenvalues --    0.17203   0.18532   0.18862   0.19537   0.20857

 Mulliken charges:
               1
     1  C   -0.482689
     2  C    0.285394
     3  C   -0.266945
     4  C   -0.151394
     5  C   -0.266943
     6  C    0.433083
     7  O   -0.339233
     8  O   -0.243337
     9  C   -0.094741
    10  H    0.122756
    11  H    0.122753
    12  H    0.121097
    13  H    0.106055
    14  H    0.110779
    15  H    0.094836
    16  H    0.106055
    17  H    0.110780
    18  H    0.115847
    19  H    0.115848
 Sum of Mulliken charges =   0.00000

 Dipole moment (field-independent basis, Debye):
    X=              4.6531    Y=             -0.7727    Z=              0.0000  Tot=              4.7168
 Quadrupole moment (field-independent basis, Debye-Ang):
   XX=            -64.1185   YY=            -51.7328   ZZ=            -51.3817
   XY=              1.9783   XZ=             -0.0001   YZ=              0.0000

  Exact polarizability:  88.189   4.040  72.301   0.000   0.000  64.923
 Approx polarizability: 125.360   6.303 107.365   0.000   0.000  98.982

                      1                      2                      3
                      A                      A                      A
 Frequencies --    121.0923               190.1354               216.0947
 Red. masses --      6.9046                 2.4950                 1.1250
 Frc consts  --      0.0597                 0.0531                 0.0310
 IR Inten    --      1.0576                 3.0282                 0.8982

                      4                      5                      6
                      A                      A                      A
 Frequencies --    268.7133               317.3900               384.1705
 Red. masses --      2.6813                 2.1883                 1.9723
 Frc consts  --      0.1141                 0.1299                 0.1715
 IR Inten    --      1.1942                 0.3627                 0.0512

                      7                      8                      9
                      A                      A                      A
 Frequencies --    412.5717               430.5354               481.0397
 Red. masses --      2.3792                 5.4452                 4.4711
 Frc consts  --      0.2386                 0.5947                 0.6096
 IR Inten    --      1.2438                 3.4447                 2.9213

                     10                     11                     12
                      A                      A                      A
 Frequencies --    615.9598               676.9004               747.9993
 Red. masses --      3.7575                 3.6570                 4.8737
 Frc consts  --      0.8400                 0.9872                 1.6066
 IR Inten    --      0.7782                 0.9912                 5.2437

                     13                     14                     15
                      A                      A                      A
 Frequencies --    765.2851               860.9004               867.6815
 Red. masses --      4.4475                 2.0992                 2.0225
 Frc consts  --      1.5347                 0.9167                 0.8971
 IR Inten    --      1.6999                 0.0879                 0.0519

                     16                     17                     18
                      A                      A                      A
 Frequencies --    895.5218               928.6168               950.1459
 Red. masses --      3.9764                 1.9685                 1.5308
 Frc consts  --      1.8789                 1.0001                 0.8143
 IR Inten    --     10.2869                 0.4400                 0.3289

                     19                     20                     21
                      A                      A                      A
 Frequencies --    969.0483              1017.7445              1025.0692
 Red. masses --      2.1740                 1.7684                 1.6409
 Frc consts  --      1.2028                 1.0792                 1.0158
 IR Inten    --     11.8190                 3.4016                 1.3000

                     22                     23                     24
                      A                      A                      A
 Frequencies --   1050.7497              1083.5930              1089.0250
 Red. masses --      1.6677                 4.9344                 1.1010
 Frc consts  --      1.0848                 3.4136                 0.7693
 IR Inten    --     57.4450               145.4568                 0.2155

                     25                     26                     27
                      A                      A                      A
 Frequencies --   1154.8044              1203.7898              1206.9479
 Red. masses --      1.6944                 1.5325                 1.9774
 Frc consts  --      1.3313                 1.3084                 1.6972
 IR Inten    --      0.6979                 1.1551                57.5552

                     28                     29                     30
                      A                      A                      A
 Frequencies --   1225.5979              1250.1913              1288.3760
 Red. masses --      2.7041                 1.3133                 1.3382
 Frc consts  --      2.3932                 1.2094                 1.3088
 IR Inten    --     26.3323                 0.2905                 0.0824

                     31                     32                     33
                      A                      A                      A
 Frequencies --   1293.8644              1301.7762              1335.2726
 Red. masses --      2.0899                 2.4885                 1.8764
 Frc consts  --      2.0614                 2.4846                 1.9711
 IR Inten    --      4.1891                 1.6668                22.4290

                     34                     35                     36
                      A                      A                      A
 Frequencies --   1415.0529              1423.7659              1479.2065
 Red. masses --      1.3376                 1.3973                 1.0876
 Frc consts  --      1.5780                 1.6688                 1.4020
 IR Inten    --      3.8453                13.2337                 2.1581

                     37                     38                     39
                      A                      A                      A
 Frequencies --   1492.3957              1495.8551              1506.8699
 Red. masses --      1.0675                 1.0489                 1.1131
 Frc consts  --      1.4009                 1.3828                 1.4891
 IR Inten    --      1.9235                 4.8756                11.2856

                     40                     41                     42
                      A                      A                      A
 Frequencies --   1516.5290              1858.2111              3022.4937
 Red. masses --      1.1053                12.3210                 1.0500
 Frc consts  --      1.4977                25.0661                 5.6513
 IR Inten    --      0.0871               385.6482                18.1272

                     43                     44                     45
                      A                      A                      A
 Frequencies --   3027.7834              3051.4938              3056.3921
 Red. masses --      1.0424                 1.0560                 1.0579
 Frc consts  --      5.6303                 5.7932                 5.8226
 IR Inten    --     54.4697                46.1060                 9.3144

                     46                     47                     48
                      A                      A                      A
 Frequencies --   3065.1477              3090.2643              3102.6453
 Red. masses --      1.1086                 1.1007                 1.1013
 Frc consts  --      6.1364                 6.1932                 6.2463
 IR Inten    --     21.0481                24.5108                11.7061

                     49                     50                     51
                      A                      A                      A
 Frequencies --   3110.3698              3111.8043              3138.0425
 Red. masses --      1.1101                 1.1087                 1.0894
 Frc consts  --      6.3273                 6.3254                 6.3206
 IR Inten    --     10.3168                36.7294                19.6586

 - Thermochemistry -
 -------------------
 Temperature   298.150 Kelvin.  Pressure   1.00000 Atm.
 Atom     1 has atomic number  6 and mass  12.00000

 Molecular mass:   126.06808 amu.
 Principal axes and moments of inertia in atomic units:
                           1         2         3
     Eigenvalues --   517.204551278.041971493.40284
           X            0.99990   0.01418   0.00000
           Y           -0.01418   0.99990   0.00000
           Z            0.00000   0.00000   1.00000
 This molecule is an asymmetric top.
 Rotational symmetry number  1.
 Warning -- assumption of classical behavior for rotation
           may cause significant error
 Rotational temperatures (Kelvin)      0.16747     0.06777     0.05800
 Rotational constants (GHZ):           3.48941     1.41211     1.20848
 Zero-point vibrational energy     422227.5 (Joules/Mol)
                                  100.91480 (Kcal/Mol)
 Warning -- explicit consideration of  10 degrees of freedom as
           vibrations may cause significant error
 Vibrational temperatures:    174.22   273.56   310.91   386.62   456.65
          (Kelvin)            552.73   593.60   619.44   692.11   886.23
                              973.91  1076.20  1101.07  1238.64  1248.40
                             1288.45  1336.07  1367.05  1394.24  1464.31
                             1474.84  1511.79  1559.05  1566.86  1661.50
                             1731.98  1736.53  1763.36  1798.74  1853.68
                             1861.58  1872.96  1921.16  2035.94  2048.48
                             2128.25  2147.22  2152.20  2168.05  2181.94
                             2673.55  4348.69  4356.30  4390.41  4397.46
                             4410.06  4446.20  4464.01  4475.12  4477.19
                             4514.94

 Zero-point correction=                           0.160818 (Hartree/Particle)
 Thermal correction to Energy=                    0.168546
 Thermal correction to Enthalpy=                  0.169490
 Thermal correction to Gibbs Free Energy=         0.128931
 Sum of electronic and zero-point Energies=           -423.065487
 Sum of electronic and thermal Energies=              -423.057760
 Sum of electronic and thermal Enthalpies=            -423.056815
 Sum of electronic and thermal Free Energies=         -423.097375

                     E (Thermal)             CV                S
                      KCal/Mol        Cal/Mol-Kelvin    Cal/Mol-Kelvin
 Total                  105.764             30.617             85.364
 Electronic               0.000              0.000              0.000
 Translational            0.889              2.981             40.409
 Rotational               0.889              2.981             28.381
 Vibrational            103.987             24.655             16.575
 Vibration     1          0.609              1.932              3.083
 Vibration     2          0.633              1.853              2.227
 Vibration     3          0.645              1.817              1.992
 Vibration     4          0.673              1.731              1.604
 Vibration     5          0.704              1.640              1.324
 Vibration     6          0.753              1.504              1.023
 Vibration     7          0.776              1.443              0.918
 Vibration     8          0.792              1.404              0.857
 Vibration     9          0.837              1.292              0.707
 Vibration    10          0.976              0.998              0.423

 Optimization completed.
    -- Stationary point found.
 Normal termination of Gaussian 09 at Mon Jan 27 18:04:53 2020.
