 Gaussian 09, Revision D.01,
 Gaussian 09:  ES64L-G09RevD.01 24-Apr-2013

 -----------------------------
 # b3lyp 6-31G(2df,p) opt Freq
 -----------------------------

 -----
 titel
 -----
 Symbolic Z-matrix:
 Charge =  0 Multiplicity = 1

 SCF Done:  E(RB3LYP) =  -423.172972142     A.U. after   14 cycles
 Optimization completed.
    -- Stationary point found.
 Normal termination of Gaussian 09 at Mon Jan 27 16:20:00 2020.

 ----------------------------------------------------------------------
 #N Geom=AllCheck Guess=TCheck SCRF=Check GenChk RB3LYP/6-31G(2df,p) Fr
 eq
 ----------------------------------------------------------------------

 Structure from the checkpoint file:  "/scratch/puck/g09_d558e1a8-2e89-4012-954b-79e0f123a558/Gau-36527.chk"
 -----
 titel
 -----
 Charge =  0 Multiplicity = 1

                         Standard orientation:
 ---------------------------------------------------------------------
 Center     Atomic      Atomic             Coordinates (Angstroms)
 Number     Number       Type             X           Y           Z
 ---------------------------------------------------------------------
      1          6           0       -1.589807   -0.305455    1.367340
      2          6           0       -0.955238   -0.261147   -0.025335
      3          6           0       -1.944164    0.215754   -1.085565
      4          6           0       -0.176267   -1.580195   -0.375563
      5          6           0        1.152454   -0.843763   -0.109558
      6          8           0        2.296326   -1.176531   -0.002647
      7          6           0        0.409064    0.477806    0.005161
      8          6           0        0.809875    1.775295   -0.564591
      9          8           0        0.755623    1.561358    0.843999
     10          1           0       -2.461100   -0.968779    1.373879
     11          1           0       -0.881666   -0.668042    2.119533
     12          1           0       -1.913653    0.692981    1.676371
     13          1           0       -2.803979   -0.460255   -1.147176
     14          1           0       -2.328078    1.214034   -0.847252
     15          1           0       -1.479979    0.259736   -2.076267
     16          1           0       -0.362330   -2.441368    0.271244
     17          1           0       -0.271943   -1.896822   -1.419029
     18          1           0        1.808854    1.887400   -0.982771
     19          1           0        0.042773    2.432731   -0.970683
 ---------------------------------------------------------------------

 SCF Done:  E(RB3LYP) =  -423.172972142     A.U. after    1 cycles

 The electronic state is 1-A.
 Alpha  occ. eigenvalues --  -19.17062 -19.14299 -10.27265 -10.25014 -10.24743
 Alpha  occ. eigenvalues --  -10.21294 -10.19536 -10.18834 -10.18398  -1.09189
 Alpha  occ. eigenvalues --   -1.04942  -0.85912  -0.74335  -0.70147  -0.67789
 Alpha  occ. eigenvalues --   -0.64846  -0.56916  -0.53487  -0.50483  -0.47189
 Alpha  occ. eigenvalues --   -0.46942  -0.44810  -0.43957  -0.42652  -0.40990
 Alpha  occ. eigenvalues --   -0.39998  -0.39284  -0.37162  -0.35701  -0.34427
 Alpha  occ. eigenvalues --   -0.33122  -0.30969  -0.29008  -0.24148
 Alpha virt. eigenvalues --   -0.03817   0.07493   0.09548   0.10971   0.12158
 Alpha virt. eigenvalues --    0.12984   0.13764   0.14747   0.15019   0.15396
 Alpha virt. eigenvalues --    0.17543   0.18091   0.18867   0.19978   0.20245

 Mulliken charges:
               1
     1  C   -0.430373
     2  C    0.202402
     3  C   -0.454504
     4  C   -0.414582
     5  C    0.345912
     6  O   -0.300337
     7  C    0.315648
     8  C   -0.252251
     9  O   -0.261536
    10  H    0.116237
    11  H    0.124017
    12  H    0.128590
    13  H    0.121804
    14  H    0.121728
    15  H    0.114028
    16  H    0.133482
    17  H    0.129845
    18  H    0.135188
    19  H    0.124700
 Sum of Mulliken charges =   0.00000

 Dipole moment (field-independent basis, Debye):
    X=             -2.9665    Y=              0.3341    Z=             -1.6882  Tot=              3.4295
 Quadrupole moment (field-independent basis, Debye-Ang):
   XX=            -59.2826   YY=            -52.7062   ZZ=            -52.7765
   XY=              3.6072   XZ=             -1.8944   YZ=             -3.1644

  Exact polarizability:  81.705   1.073  81.304  -0.843  -3.069  65.682
 Approx polarizability: 117.653  -1.151 119.216   0.960  -1.433  99.850

                      1                      2                      3
                      A                      A                      A
 Frequencies --     54.8569               163.0132               206.1908
 Red. masses --      3.6364                 3.6566                 1.6997
 Frc consts  --      0.0064                 0.0573                 0.0426
 IR Inten    --      1.8988                 2.8840                 0.2837

                      4                      5                      6
                      A                      A                      A
 Frequencies --    215.5982               223.4712               250.9348
 Red. masses --      3.1919                 1.3940                 1.4999
 Frc consts  --      0.0874                 0.0410                 0.0556
 IR Inten    --      4.8670                 0.2024                 0.5620

                      7                      8                      9
                      A                      A                      A
 Frequencies --    298.9290               329.7461               339.8838
 Red. masses --      2.3436                 2.2820                 2.2527
 Frc consts  --      0.1234                 0.1462                 0.1533
 IR Inten    --      0.4925                 0.1625                 0.8793

                     10                     11                     12
                      A                      A                      A
 Frequencies --    445.4297               533.2390               553.0477
 Red. masses --      3.4334                 2.3030                 2.5612
 Frc consts  --      0.4014                 0.3858                 0.4615
 IR Inten    --      2.5388                 1.8335                 1.1041

                     13                     14                     15
                      A                      A                      A
 Frequencies --    593.9292               633.6851               781.9089
 Red. masses --      4.1921                 5.1168                 2.5184
 Frc consts  --      0.8713                 1.2106                 0.9071
 IR Inten    --      3.4193                 4.7421                 0.8134

                     16                     17                     18
                      A                      A                      A
 Frequencies --    828.7018               861.8334               919.1228
 Red. masses --      2.4665                 2.1649                 5.6639
 Frc consts  --      0.9980                 0.9474                 2.8191
 IR Inten    --     33.0172                 4.3852                 8.4416

                     19                     20                     21
                      A                      A                      A
 Frequencies --    938.0155               962.3590               986.3968
 Red. masses --      2.8269                 1.3561                 2.1473
 Frc consts  --      1.4655                 0.7400                 1.2310
 IR Inten    --     11.2617                 1.6746                 7.6224

                     22                     23                     24
                      A                      A                      A
 Frequencies --   1013.5689              1026.0198              1088.8029
 Red. masses --      1.6410                 2.2982                 1.5507
 Frc consts  --      0.9933                 1.4255                 1.0831
 IR Inten    --     11.1266                29.5028                 2.6942

                     25                     26                     27
                      A                      A                      A
 Frequencies --   1129.4521              1129.8910              1161.2580
 Red. masses --      1.2917                 2.2157                 1.5117
 Frc consts  --      0.9708                 1.6666                 1.2011
 IR Inten    --      6.8540                30.6857                 0.6763

                     28                     29                     30
                      A                      A                      A
 Frequencies --   1179.5118              1209.4974              1257.8536
 Red. masses --      1.5270                 2.0812                 2.8872
 Frc consts  --      1.2517                 1.7938                 2.6914
 IR Inten    --      7.2271                12.7357                 1.0574

                     31                     32                     33
                      A                      A                      A
 Frequencies --   1292.2195              1398.9246              1403.5613
 Red. masses --      3.1543                 2.4942                 1.2895
 Frc consts  --      3.1033                 2.8759                 1.4967
 IR Inten    --      7.2290                 5.7056                 7.8738

                     34                     35                     36
                      A                      A                      A
 Frequencies --   1421.0734              1445.2451              1482.0831
 Red. masses --      1.2099                 1.2078                 1.0451
 Frc consts  --      1.4396                 1.4864                 1.3525
 IR Inten    --      3.5705                 8.2863                 0.1876

                     37                     38                     39
                      A                      A                      A
 Frequencies --   1486.8181              1502.0684              1506.0387
 Red. masses --      1.0530                 1.0635                 1.0606
 Frc consts  --      1.3714                 1.4137                 1.4173
 IR Inten    --      2.2123                 4.4166                 5.0355

                     40                     41                     42
                      A                      A                      A
 Frequencies --   1520.0153              1891.4753              3025.5155
 Red. masses --      1.3332                12.8633                 1.0349
 Frc consts  --      1.8149                27.1147                 5.5813
 IR Inten    --      4.1547               239.2697                21.9911

                     43                     44                     45
                      A                      A                      A
 Frequencies --   3033.1596              3057.8355              3085.8884
 Red. masses --      1.0352                 1.0597                 1.0497
 Frc consts  --      5.6112                 5.8378                 5.8894
 IR Inten    --     18.0275                 5.6218                17.2593

                     46                     47                     48
                      A                      A                      A
 Frequencies --   3092.5628              3098.0961              3102.1803
 Red. masses --      1.1004                 1.1019                 1.1017
 Frc consts  --      6.2007                 6.2313                 6.2468
 IR Inten    --     17.5203                18.8539                29.5651

                     49                     50                     51
                      A                      A                      A
 Frequencies --   3109.2880              3115.3233              3180.3462
 Red. masses --      1.1015                 1.1044                 1.1204
 Frc consts  --      6.2744                 6.3151                 6.6769
 IR Inten    --     18.5426                10.1843                13.3798

 - Thermochemistry -
 -------------------
 Temperature   298.150 Kelvin.  Pressure   1.00000 Atm.
 Atom     1 has atomic number  6 and mass  12.00000

 Molecular mass:   126.06808 amu.
 Principal axes and moments of inertia in atomic units:
                           1         2         3
     Eigenvalues --   851.741701101.443921431.61820
           X            0.99785   0.06464  -0.01099
           Y           -0.06512   0.99652  -0.05202
           Z            0.00759   0.05263   0.99859
 This molecule is an asymmetric top.
 Rotational symmetry number  1.
 Warning -- assumption of classical behavior for rotation
           may cause significant error
 Rotational temperatures (Kelvin)      0.10169     0.07864     0.06050
 Rotational constants (GHZ):           2.11888     1.63852     1.26063
 Zero-point vibrational energy     410115.0 (Joules/Mol)
                                   98.01983 (Kcal/Mol)
 Warning -- explicit consideration of  13 degrees of freedom as
           vibrations may cause significant error
 Vibrational temperatures:     78.93   234.54   296.66   310.20   321.52
          (Kelvin)            361.04   430.09   474.43   489.02   640.87
                              767.21   795.71   854.53   911.73  1124.99
                             1192.32  1239.98  1322.41  1349.59  1384.62
                             1419.20  1458.30  1476.21  1566.54  1625.03
                             1625.66  1670.79  1697.05  1740.19  1809.77
                             1859.21  2012.74  2019.41  2044.61  2079.38
                             2132.38  2139.20  2161.14  2166.85  2186.96
                             2721.41  4353.04  4364.03  4399.54  4439.90
                             4449.50  4457.46  4463.34  4473.57  4482.25
                             4575.80

 Zero-point correction=                           0.156205 (Hartree/Particle)
 Thermal correction to Energy=                    0.165387
 Thermal correction to Enthalpy=                  0.166331
 Thermal correction to Gibbs Free Energy=         0.122452
 Sum of electronic and zero-point Energies=           -423.016768
 Sum of electronic and thermal Energies=              -423.007586
 Sum of electronic and thermal Enthalpies=            -423.006641
 Sum of electronic and thermal Free Energies=         -423.050520

                     E (Thermal)             CV                S
                      KCal/Mol        Cal/Mol-Kelvin    Cal/Mol-Kelvin
 Total                  103.782             34.470             92.350
 Electronic               0.000              0.000              0.000
 Translational            0.889              2.981             40.409
 Rotational               0.889              2.981             28.687
 Vibrational            102.004             28.508             23.254
 Vibration     1          0.596              1.976              4.634
 Vibration     2          0.623              1.888              2.515
 Vibration     3          0.641              1.831              2.077
 Vibration     4          0.645              1.817              1.996
 Vibration     5          0.649              1.805              1.931
 Vibration     6          0.663              1.761              1.724
 Vibration     7          0.692              1.676              1.423
 Vibration     8          0.713              1.616              1.261
 Vibration     9          0.720              1.596              1.213
 Vibration    10          0.805              1.371              0.810
 Vibration    11          0.888              1.176              0.580
 Vibration    12          0.908              1.133              0.538
 Vibration    13          0.952              1.045              0.460

 Optimization completed.
    -- Stationary point found.
 Normal termination of Gaussian 09 at Mon Jan 27 17:12:06 2020.
