 Gaussian 09, Revision D.01,
 Gaussian 09:  ES64L-G09RevD.01 24-Apr-2013

 -----------------------------
 # b3lyp 6-31G(2df,p) opt Freq
 -----------------------------

 -----
 titel
 -----
 Symbolic Z-matrix:
 Charge =  0 Multiplicity = 1

 SCF Done:  E(RB3LYP) =  -423.122958774     A.U. after   13 cycles
 Optimization completed.
    -- Stationary point found.
 Normal termination of Gaussian 09 at Tue Jan 28 09:15:44 2020.

 ----------------------------------------------------------------------
 #N Geom=AllCheck Guess=TCheck SCRF=Check GenChk RB3LYP/6-31G(2df,p) Fr
 eq
 ----------------------------------------------------------------------

 Structure from the checkpoint file:  "/scratch/puck/g09_036c2985-728c-4ca0-a6d2-35c1027604b6/Gau-14472.chk"
 -----
 titel
 -----
 Charge =  0 Multiplicity = 1

                         Standard orientation:
 ---------------------------------------------------------------------
 Center     Atomic      Atomic             Coordinates (Angstroms)
 Number     Number       Type             X           Y           Z
 ---------------------------------------------------------------------
      1          6           0        2.662389    0.121840    0.082060
      2          8           0        1.621939   -0.798197   -0.202371
      3          6           0        0.364431   -0.274599   -0.079905
      4          6           0       -0.361926    0.318932    1.213326
      5          6           0       -1.425625   -0.803170    1.061388
      6          6           0       -0.920413   -1.089629   -0.372727
      7          8           0       -1.381691   -0.095733   -1.315839
      8          6           0       -0.351822    0.840847   -0.926921
      9          6           0       -0.719956    1.578941    0.380783
     10          1           0        2.592400    0.503302    1.109942
     11          1           0        3.604758   -0.416257   -0.036049
     12          1           0        2.646881    0.973332   -0.612597
     13          1           0        0.100076    0.458829    2.189965
     14          1           0       -1.198821   -1.647952    1.720066
     15          1           0       -2.479266   -0.531741    1.164721
     16          1           0       -0.961314   -2.100574   -0.780775
     17          1           0        0.039815    1.397774   -1.780282
     18          1           0       -0.009027    2.390043    0.573578
     19          1           0       -1.739950    1.965711    0.449087
 ---------------------------------------------------------------------

 SCF Done:  E(RB3LYP) =  -423.122958774     A.U. after    1 cycles

 The electronic state is 1-A.
 Alpha  occ. eigenvalues --  -19.15926 -19.13033 -10.23713 -10.23444 -10.22726
 Alpha  occ. eigenvalues --  -10.22715 -10.18875 -10.18229 -10.18148  -1.05976
 Alpha  occ. eigenvalues --   -1.03369  -0.84134  -0.75226  -0.71520  -0.64488
 Alpha  occ. eigenvalues --   -0.60647  -0.60189  -0.53613  -0.51068  -0.48762
 Alpha  occ. eigenvalues --   -0.47076  -0.44200  -0.43288  -0.42865  -0.41431
 Alpha  occ. eigenvalues --   -0.38351  -0.37938  -0.36326  -0.33542  -0.31873
 Alpha  occ. eigenvalues --   -0.31329  -0.26669  -0.24062  -0.23911
 Alpha virt. eigenvalues --    0.06992   0.08298   0.10737   0.11024   0.13125
 Alpha virt. eigenvalues --    0.13686   0.14468   0.14788   0.15675   0.16598
 Alpha virt. eigenvalues --    0.17387   0.17760   0.19145   0.19965   0.21845

 Mulliken charges:
               1
     1  C   -0.267084
     2  O   -0.292794
     3  C    0.404754
     4  C   -0.137215
     5  C   -0.239203
     6  C    0.035213
     7  O   -0.301670
     8  C    0.021638
     9  C   -0.232531
    10  H    0.117129
    11  H    0.134382
    12  H    0.116496
    13  H    0.070859
    14  H    0.104807
    15  H    0.102700
    16  H    0.083539
    17  H    0.078445
    18  H    0.097117
    19  H    0.103418
 Sum of Mulliken charges =   0.00000

 Dipole moment (field-independent basis, Debye):
    X=              1.5002    Y=              0.9569    Z=              1.5008  Tot=              2.3278
 Quadrupole moment (field-independent basis, Debye-Ang):
   XX=            -51.9609   YY=            -51.7720   ZZ=            -54.9070
   XY=              2.6235   XZ=             -2.0593   YZ=             -1.0072

  Exact polarizability:  79.895   2.898  74.205  -1.913  -1.437  69.297
 Approx polarizability: 108.795   2.395 109.594   0.418  -1.043 105.013

                      1                      2                      3
                      A                      A                      A
 Frequencies --     94.1753               169.6468               174.6372
 Red. masses --      2.8643                 2.1358                 1.2451
 Frc consts  --      0.0150                 0.0362                 0.0224
 IR Inten    --      1.9570                 0.5064                 0.0191

                      4                      5                      6
                      A                      A                      A
 Frequencies --    279.5314               320.9550               382.6459
 Red. masses --      2.9977                 2.7699                 3.0484
 Frc consts  --      0.1380                 0.1681                 0.2630
 IR Inten    --      5.3869                 2.5191                 1.3869

                      7                      8                      9
                      A                      A                      A
 Frequencies --    409.4231               450.9579               597.1426
 Red. masses --      2.7370                 2.5453                 3.1810
 Frc consts  --      0.2703                 0.3050                 0.6683
 IR Inten    --      0.6536                 2.0919                 7.4366

                     10                     11                     12
                      A                      A                      A
 Frequencies --    649.9636               699.0734               814.7935
 Red. masses --      3.3924                 4.0399                 3.0445
 Frc consts  --      0.8444                 1.1632                 1.1909
 IR Inten    --      2.0120                 4.7960                 6.9457

                     13                     14                     15
                      A                      A                      A
 Frequencies --    849.0288               852.5226               916.2702
 Red. masses --      2.4908                 2.2378                 2.2059
 Frc consts  --      1.0579                 0.9583                 1.0911
 IR Inten    --      6.2927                 6.6778                 4.1454

                     16                     17                     18
                      A                      A                      A
 Frequencies --    933.9290               956.3488               986.7508
 Red. masses --      1.8081                 2.7391                 2.2852
 Frc consts  --      0.9292                 1.4760                 1.3109
 IR Inten    --      3.2789                31.4236                 7.5265

                     19                     20                     21
                      A                      A                      A
 Frequencies --   1019.8277              1036.9800              1052.4367
 Red. masses --      2.0130                 4.8420                 6.4685
 Frc consts  --      1.2335                 3.0677                 4.2213
 IR Inten    --     19.0723                40.1661                38.1731

                     22                     23                     24
                      A                      A                      A
 Frequencies --   1089.5398              1095.2095              1115.0752
 Red. masses --      2.7106                 1.3327                 2.2498
 Frc consts  --      1.8958                 0.9418                 1.6482
 IR Inten    --     22.5062                 2.4022                 5.3071

                     25                     26                     27
                      A                      A                      A
 Frequencies --   1120.0944              1151.5281              1179.2829
 Red. masses --      1.7622                 1.8242                 1.2847
 Frc consts  --      1.3026                 1.4252                 1.0527
 IR Inten    --     10.4158                 0.4057                 2.3293

                     28                     29                     30
                      A                      A                      A
 Frequencies --   1185.4086              1199.2074              1228.2993
 Red. masses --      1.8990                 1.5713                 1.6029
 Frc consts  --      1.5722                 1.3314                 1.4248
 IR Inten    --     28.5201                15.9727                12.2611

                     31                     32                     33
                      A                      A                      A
 Frequencies --   1253.3646              1274.2308              1286.8884
 Red. masses --      1.8561                 1.2099                 1.7352
 Frc consts  --      1.7179                 1.1574                 1.6931
 IR Inten    --      3.7167                 0.0744                16.1313

                     34                     35                     36
                      A                      A                      A
 Frequencies --   1313.9050              1332.4272              1377.3558
 Red. masses --      1.4997                 1.4629                 2.7652
 Frc consts  --      1.5254                 1.5302                 3.0908
 IR Inten    --      2.0632                25.1120               155.2062

                     37                     38                     39
                      A                      A                      A
 Frequencies --   1461.4766              1473.9572              1487.1515
 Red. masses --      1.1078                 1.1135                 1.1637
 Frc consts  --      1.3941                 1.4254                 1.5164
 IR Inten    --      1.9974                 4.5295                10.9737

                     40                     41                     42
                      A                      A                      A
 Frequencies --   1489.0276              1504.3566              2995.2431
 Red. masses --      1.1477                 1.0507                 1.0351
 Frc consts  --      1.4993                 1.4010                 5.4716
 IR Inten    --      9.0959                 9.0653                39.4942

                     43                     44                     45
                      A                      A                      A
 Frequencies --   3042.2637              3048.1329              3049.8121
 Red. masses --      1.0600                 1.0589                 1.1034
 Frc consts  --      5.7800                 5.7967                 6.0470
 IR Inten    --     28.8911                33.0581                29.1166

                     46                     47                     48
                      A                      A                      A
 Frequencies --   3091.4652              3102.8445              3105.4012
 Red. masses --      1.0895                 1.0920                 1.1053
 Frc consts  --      6.1350                 6.1940                 6.2803
 IR Inten    --     60.9329                43.7053                13.9204

                     49                     50                     51
                      A                      A                      A
 Frequencies --   3108.4636              3114.5515              3129.3901
 Red. masses --      1.1034                 1.0933                 1.0982
 Frc consts  --      6.2818                 6.2488                 6.3368
 IR Inten    --     23.0102                42.7673                23.1299

 - Thermochemistry -
 -------------------
 Temperature   298.150 Kelvin.  Pressure   1.00000 Atm.
 Atom     1 has atomic number  6 and mass  12.00000

 Molecular mass:   126.06808 amu.
 Principal axes and moments of inertia in atomic units:
                           1         2         3
     Eigenvalues --   649.454131178.312711198.28908
           X            0.99930   0.02427  -0.02849
           Y           -0.02935   0.98055  -0.19406
           Z            0.02323   0.19476   0.98058
 This molecule is an asymmetric top.
 Rotational symmetry number  1.
 Warning -- assumption of classical behavior for rotation
           may cause significant error
 Rotational temperatures (Kelvin)      0.13336     0.07351     0.07228
 Rotational constants (GHZ):           2.77886     1.53163     1.50610
 Zero-point vibrational energy     419006.4 (Joules/Mol)
                                  100.14493 (Kcal/Mol)
 Warning -- explicit consideration of   9 degrees of freedom as
           vibrations may cause significant error
 Vibrational temperatures:    135.50   244.08   251.26   402.18   461.78
          (Kelvin)            550.54   589.07   648.83   859.15   935.15
                             1005.81  1172.30  1221.56  1226.59  1318.31
                             1343.71  1375.97  1419.71  1467.30  1491.98
                             1514.22  1567.60  1575.76  1604.34  1611.56
                             1656.79  1696.72  1705.54  1725.39  1767.25
                             1803.31  1833.33  1851.54  1890.41  1917.06
                             1981.71  2102.74  2120.69  2139.68  2142.38
                             2164.43  4309.48  4377.13  4385.58  4387.99
                             4447.92  4464.30  4467.97  4472.38  4481.14
                             4502.49

 Zero-point correction=                           0.159591 (Hartree/Particle)
 Thermal correction to Energy=                    0.167280
 Thermal correction to Enthalpy=                  0.168225
 Thermal correction to Gibbs Free Energy=         0.127475
 Sum of electronic and zero-point Energies=           -422.963368
 Sum of electronic and thermal Energies=              -422.955678
 Sum of electronic and thermal Enthalpies=            -422.954734
 Sum of electronic and thermal Free Energies=         -422.995484

                     E (Thermal)             CV                S
                      KCal/Mol        Cal/Mol-Kelvin    Cal/Mol-Kelvin
 Total                  104.970             30.109             85.765
 Electronic               0.000              0.000              0.000
 Translational            0.889              2.981             40.409
 Rotational               0.889              2.981             28.308
 Vibrational            103.193             24.147             17.049
 Vibration     1          0.603              1.953              3.571
 Vibration     2          0.625              1.880              2.439
 Vibration     3          0.627              1.874              2.385
 Vibration     4          0.680              1.711              1.537
 Vibration     5          0.706              1.633              1.305
 Vibration     6          0.752              1.507              1.029
 Vibration     7          0.774              1.450              0.929
 Vibration     8          0.810              1.359              0.793
 Vibration     9          0.955              1.038              0.455

 Optimization completed.
    -- Stationary point found.
 Normal termination of Gaussian 09 at Tue Jan 28 10:04:08 2020.
