 Gaussian 09, Revision D.01,
 Gaussian 09:  ES64L-G09RevD.01 24-Apr-2013

 -----------------------------
 # b3lyp 6-31G(2df,p) opt Freq
 -----------------------------

 -----
 titel
 -----
 Symbolic Z-matrix:
 Charge =  0 Multiplicity = 1

 SCF Done:  E(RB3LYP) =  -423.149666762     A.U. after   14 cycles
 Optimization completed.
    -- Stationary point found.
 Normal termination of Gaussian 09 at Tue Jan 28 08:19:11 2020.

 ----------------------------------------------------------------------
 #N Geom=AllCheck Guess=TCheck SCRF=Check GenChk RB3LYP/6-31G(2df,p) Fr
 eq
 ----------------------------------------------------------------------

 Structure from the checkpoint file:  "/scratch/puck/g09_a194e8a8-13a3-4059-ad08-5f0e713467ce/Gau-14788.chk"
 -----
 titel
 -----
 Charge =  0 Multiplicity = 1

                         Standard orientation:
 ---------------------------------------------------------------------
 Center     Atomic      Atomic             Coordinates (Angstroms)
 Number     Number       Type             X           Y           Z
 ---------------------------------------------------------------------
      1          6           0        0.946266    1.843414    0.798879
      2          8           0        1.725909    0.832879    0.195255
      3          6           0        1.145333   -0.457721    0.162335
      4          6           0        2.295910   -1.439498   -0.044214
      5          6           0        0.094069   -0.600526   -0.967105
      6          6           0       -1.260231    0.034972   -0.714663
      7          8           0       -1.767779    0.846549   -1.458788
      8          6           0       -1.959799   -0.422942    0.480776
      9          6           0       -2.541473   -0.810422    1.461266
     10          1           0        0.595291    1.542611    1.797687
     11          1           0        1.589851    2.720810    0.902025
     12          1           0        0.075346    2.124324    0.192132
     13          1           0        0.656947   -0.668073    1.127742
     14          1           0        1.938643   -2.472873   -0.015848
     15          1           0        2.778681   -1.263585   -1.010585
     16          1           0        3.044376   -1.303746    0.740098
     17          1           0        0.493759   -0.184107   -1.895611
     18          1           0       -0.089744   -1.672812   -1.116135
     19          1           0       -3.068639   -1.141635    2.323113
 ---------------------------------------------------------------------

 SCF Done:  E(RB3LYP) =  -423.149666762     A.U. after    1 cycles

 The electronic state is 1-A.
 Alpha  occ. eigenvalues --  -19.14173 -19.14154 -10.29497 -10.24577 -10.22376
 Alpha  occ. eigenvalues --  -10.21106 -10.20418 -10.19686 -10.18060  -1.05239
 Alpha  occ. eigenvalues --   -1.03453  -0.80586  -0.77537  -0.72787  -0.67762
 Alpha  occ. eigenvalues --   -0.63627  -0.59295  -0.53954  -0.50432  -0.49477
 Alpha  occ. eigenvalues --   -0.47149  -0.45151  -0.43975  -0.42033  -0.40704
 Alpha  occ. eigenvalues --   -0.38898  -0.38702  -0.37046  -0.35252  -0.31519
 Alpha  occ. eigenvalues --   -0.30082  -0.30041  -0.26605  -0.25466
 Alpha virt. eigenvalues --   -0.06056   0.03082   0.07576   0.09958   0.10559
 Alpha virt. eigenvalues --    0.11682   0.12997   0.13236   0.15526   0.15713
 Alpha virt. eigenvalues --    0.16543   0.17401   0.18235   0.18958   0.21573

 Mulliken charges:
               1
     1  C   -0.252500
     2  O   -0.243283
     3  C    0.112694
     4  C   -0.391778
     5  C   -0.298456
     6  C    0.242744
     7  O   -0.286367
     8  C    0.285867
     9  C   -0.460520
    10  H    0.106658
    11  H    0.128760
    12  H    0.132579
    13  H    0.079509
    14  H    0.114049
    15  H    0.128641
    16  H    0.125613
    17  H    0.131940
    18  H    0.125325
    19  H    0.218524
 Sum of Mulliken charges =   0.00000

 Dipole moment (field-independent basis, Debye):
    X=              0.3103    Y=             -2.0196    Z=              2.2739  Tot=              3.0571
 Quadrupole moment (field-independent basis, Debye-Ang):
   XX=            -56.5865   YY=            -51.4131   ZZ=            -51.5916
   XY=              2.9660   XZ=             -6.4834   YZ=              1.9274

  Exact polarizability:  83.801   0.643  73.595  -9.479  -6.671  79.854
 Approx polarizability: 111.776   3.353 108.839 -16.647 -24.002 135.685

                      1                      2                      3
                      A                      A                      A
 Frequencies --     35.2715                62.2420                96.5996
 Red. masses --      3.9436                 3.1024                 2.3893
 Frc consts  --      0.0029                 0.0071                 0.0131
 IR Inten    --      1.1903                 1.5903                 3.0757

                      4                      5                      6
                      A                      A                      A
 Frequencies --    122.0148               195.8557               203.1998
 Red. masses --      4.9972                 2.9269                 1.2285
 Frc consts  --      0.0438                 0.0661                 0.0299
 IR Inten    --      1.4740                 1.6480                 1.7073

                      7                      8                      9
                      A                      A                      A
 Frequencies --    222.9812               246.5119               315.1303
 Red. masses --      1.1626                 4.4646                 3.8235
 Frc consts  --      0.0341                 0.1598                 0.2237
 IR Inten    --      0.2328                 0.7178                 2.2452

                     10                     11                     12
                      A                      A                      A
 Frequencies --    325.3660               409.2041               455.3761
 Red. masses --      2.4193                 2.2896                 4.5677
 Frc consts  --      0.1509                 0.2259                 0.5581
 IR Inten    --      1.4734                 2.2881                10.9875

                     13                     14                     15
                      A                      A                      A
 Frequencies --    499.7520               600.4684               651.0397
 Red. masses --      3.2708                 4.2171                 1.2834
 Frc consts  --      0.4813                 0.8959                 0.3205
 IR Inten    --      2.3725                 4.8611                40.1335

                     16                     17                     18
                      A                      A                      A
 Frequencies --    678.1852               712.2361               757.7142
 Red. masses --      5.3591                 1.2784                 3.5710
 Frc consts  --      1.4522                 0.3821                 1.2080
 IR Inten    --      2.5052                30.8066                22.8908

                     19                     20                     21
                      A                      A                      A
 Frequencies --    842.2070               913.6826               922.3731
 Red. masses --      2.5595                 2.0088                 1.9214
 Frc consts  --      1.0696                 0.9881                 0.9631
 IR Inten    --      9.1735                 2.2548                 8.4634

                     22                     23                     24
                      A                      A                      A
 Frequencies --   1052.7668              1086.3689              1127.6729
 Red. masses --      2.3619                 2.7121                 1.7709
 Frc consts  --      1.5423                 1.8858                 1.3268
 IR Inten    --     13.0854                52.5642                37.7894

                     25                     26                     27
                      A                      A                      A
 Frequencies --   1150.6688              1171.3737              1181.5710
 Red. masses --      5.8129                 1.8304                 1.3700
 Frc consts  --      4.5346                 1.4797                 1.1269
 IR Inten    --    123.2811                37.8245                15.5581

                     28                     29                     30
                      A                      A                      A
 Frequencies --   1226.1131              1256.2403              1289.0859
 Red. masses --      1.7094                 1.6636                 1.4002
 Frc consts  --      1.5141                 1.5468                 1.3709
 IR Inten    --     67.0901                49.2553                 5.6991

                     31                     32                     33
                      A                      A                      A
 Frequencies --   1369.1141              1384.6355              1409.5404
 Red. masses --      1.4063                 1.1989                 1.2873
 Frc consts  --      1.5532                 1.3543                 1.5069
 IR Inten    --     15.9349                24.3928                12.5838

                     34                     35                     36
                      A                      A                      A
 Frequencies --   1443.0934              1477.8466              1483.9873
 Red. masses --      1.0977                 1.0962                 1.0461
 Frc consts  --      1.3469                 1.4105                 1.3573
 IR Inten    --      4.3902                 3.7524                 2.1532

                     37                     38                     39
                      A                      A                      A
 Frequencies --   1495.5523              1502.2095              1511.1476
 Red. masses --      1.0662                 1.0897                 1.0522
 Frc consts  --      1.4051                 1.4489                 1.4156
 IR Inten    --      5.4246                 0.9964                 8.5333

                     40                     41                     42
                      A                      A                      A
 Frequencies --   1762.2248              2207.3071              2975.9684
 Red. masses --     11.8484                 5.9082                 1.0801
 Frc consts  --     21.6787                16.9602                 5.6359
 IR Inten    --    168.1651                55.9423                19.8819

                     43                     44                     45
                      A                      A                      A
 Frequencies --   2988.3105              3029.0694              3044.4752
 Red. masses --      1.0421                 1.0624                 1.0357
 Frc consts  --      5.4828                 5.7435                 5.6559
 IR Inten    --     52.2353                 3.8009                17.1688

                     46                     47                     48
                      A                      A                      A
 Frequencies --   3051.7727              3108.9260              3111.6281
 Red. masses --      1.0969                 1.0984                 1.0984
 Frc consts  --      6.0192                 6.2550                 6.2660
 IR Inten    --     36.1175                 1.6239                29.3597

                     49                     50                     51
                      A                      A                      A
 Frequencies --   3118.2016              3127.8005              3493.1652
 Red. masses --      1.1014                 1.1022                 1.1618
 Frc consts  --      6.3097                 6.3530                 8.3522
 IR Inten    --     26.0616                20.4918                52.7836

 - Thermochemistry -
 -------------------
 Temperature   298.150 Kelvin.  Pressure   1.00000 Atm.
 Atom     1 has atomic number  6 and mass  12.00000

 Molecular mass:   126.06808 amu.
 Principal axes and moments of inertia in atomic units:
                           1         2         3
     Eigenvalues --   853.526461673.110511778.66546
           X            0.99968  -0.01300  -0.02166
           Y            0.01638   0.98638   0.16368
           Z            0.01923  -0.16398   0.98628
 This molecule is an asymmetric top.
 Rotational symmetry number  1.
 Warning -- assumption of classical behavior for rotation
           may cause significant error
 Rotational temperatures (Kelvin)      0.10148     0.05177     0.04870
 Rotational constants (GHZ):           2.11445     1.07867     1.01466
 Zero-point vibrational energy     406163.6 (Joules/Mol)
                                   97.07543 (Kcal/Mol)
 Warning -- explicit consideration of  14 degrees of freedom as
           vibrations may cause significant error
 Vibrational temperatures:     50.75    89.55   138.99   175.55   281.79
          (Kelvin)            292.36   320.82   354.68   453.40   468.13
                              588.75   655.18   719.03   863.94   936.70
                              975.76  1024.75  1090.18  1211.75  1314.58
                             1327.09  1514.69  1563.04  1622.47  1655.55
                             1685.34  1700.01  1764.10  1807.45  1854.70
                             1969.85  1992.18  2028.01  2076.29  2126.29
                             2135.12  2151.76  2161.34  2174.20  2535.45
                             3175.82  4281.75  4299.51  4358.15  4380.32
                             4390.81  4473.05  4476.93  4486.39  4500.20
                             5025.88

 Zero-point correction=                           0.154700 (Hartree/Particle)
 Thermal correction to Energy=                    0.165373
 Thermal correction to Enthalpy=                  0.166317
 Thermal correction to Gibbs Free Energy=         0.117919
 Sum of electronic and zero-point Energies=           -422.994967
 Sum of electronic and thermal Energies=              -422.984294
 Sum of electronic and thermal Enthalpies=            -422.983350
 Sum of electronic and thermal Free Energies=         -423.031747

                     E (Thermal)             CV                S
                      KCal/Mol        Cal/Mol-Kelvin    Cal/Mol-Kelvin
 Total                  103.773             37.173            101.861
 Electronic               0.000              0.000              0.000
 Translational            0.889              2.981             40.409
 Rotational               0.889              2.981             29.320
 Vibrational            101.996             31.212             32.133
 Vibration     1          0.594              1.982              5.508
 Vibration     2          0.597              1.972              4.385
 Vibration     3          0.603              1.952              3.522
 Vibration     4          0.610              1.931              3.068
 Vibration     5          0.636              1.846              2.172
 Vibration     6          0.639              1.835              2.104
 Vibration     7          0.649              1.806              1.935
 Vibration     8          0.661              1.769              1.755
 Vibration     9          0.702              1.645              1.335
 Vibration    10          0.709              1.625              1.283
 Vibration    11          0.774              1.450              0.929
 Vibration    12          0.814              1.349              0.780
 Vibration    13          0.855              1.251              0.659
 Vibration    14          0.959              1.031              0.449

 Optimization completed.
    -- Stationary point found.
 Normal termination of Gaussian 09 at Tue Jan 28 09:01:52 2020.
