 Gaussian 09, Revision D.01,
 Gaussian 09:  ES64L-G09RevD.01 24-Apr-2013

 -----------------------------
 # b3lyp 6-31G(2df,p) opt Freq
 -----------------------------

 -----
 titel
 -----
 Symbolic Z-matrix:
 Charge =  0 Multiplicity = 1

 SCF Done:  E(RB3LYP) =  -423.151995055     A.U. after   14 cycles
 Optimization completed.
    -- Stationary point found.
 Normal termination of Gaussian 09 at Tue Jan 28 12:48:15 2020.

 ----------------------------------------------------------------------
 #N Geom=AllCheck Guess=TCheck SCRF=Check GenChk RB3LYP/6-31G(2df,p) Fr
 eq
 ----------------------------------------------------------------------

 Structure from the checkpoint file:  "/scratch/puck/g09_a54b7e27-a129-4d41-97af-952c261caf09/Gau-10506.chk"
 -----
 titel
 -----
 Charge =  0 Multiplicity = 1

                         Standard orientation:
 ---------------------------------------------------------------------
 Center     Atomic      Atomic             Coordinates (Angstroms)
 Number     Number       Type             X           Y           Z
 ---------------------------------------------------------------------
      1          6           0        3.086382   -0.339360   -0.484328
      2          6           0        2.016788    0.127367    0.509493
      3          6           0        0.698375   -0.613494    0.339699
      4          6           0       -0.603684   -0.100389    1.056524
      5          6           0       -1.374397   -0.958222    0.017195
      6          8           0       -2.713692   -0.597530   -0.162862
      7          6           0       -0.262096   -0.277433   -0.861140
      8          6           0       -0.608833    0.982627   -0.045052
      9          8           0       -0.750441    2.155520   -0.181679
     10          1           0        3.282753   -1.412500   -0.382257
     11          1           0        2.774609   -0.155588   -1.517858
     12          1           0        4.030646    0.188629   -0.322358
     13          1           0        2.375512   -0.031915    1.534484
     14          1           0        1.858755    1.206780    0.403537
     15          1           0        0.833223   -1.694103    0.462625
     16          1           0       -0.795794   -0.019434    2.124114
     17          1           0       -1.237809   -2.039770    0.139639
     18          1           0       -3.047461   -1.034296   -0.953027
     19          1           0       -0.076571   -0.398313   -1.926917
 ---------------------------------------------------------------------

 SCF Done:  E(RB3LYP) =  -423.151995055     A.U. after    1 cycles

 The electronic state is 1-A.
 Alpha  occ. eigenvalues --  -19.15230 -19.13198 -10.27238 -10.25855 -10.21547
 Alpha  occ. eigenvalues --  -10.20651 -10.20617 -10.18931 -10.18072  -1.04965
 Alpha  occ. eigenvalues --   -1.03684  -0.91756  -0.77740  -0.67100  -0.65430
 Alpha  occ. eigenvalues --   -0.63686  -0.59736  -0.52244  -0.51521  -0.48041
 Alpha  occ. eigenvalues --   -0.47146  -0.43276  -0.43253  -0.41815  -0.40969
 Alpha  occ. eigenvalues --   -0.38158  -0.37395  -0.35618  -0.34113  -0.33445
 Alpha  occ. eigenvalues --   -0.32688  -0.31615  -0.27944  -0.23978
 Alpha virt. eigenvalues --    0.01586   0.07453   0.09081   0.10742   0.12366
 Alpha virt. eigenvalues --    0.13204   0.13318   0.14583   0.15581   0.15988
 Alpha virt. eigenvalues --    0.17365   0.17636   0.19090   0.19473   0.19902

 Mulliken charges:
               1
     1  C   -0.378384
     2  C   -0.227263
     3  C    0.024917
     4  C   -0.219449
     5  C    0.145025
     6  O   -0.435782
     7  C   -0.239895
     8  C    0.451250
     9  O   -0.327008
    10  H    0.114429
    11  H    0.121138
    12  H    0.118924
    13  H    0.102724
    14  H    0.121460
    15  H    0.076546
    16  H    0.094031
    17  H    0.080012
    18  H    0.289942
    19  H    0.087384
 Sum of Mulliken charges =   0.00000

 Dipole moment (field-independent basis, Debye):
    X=              1.1111    Y=             -3.6174    Z=             -0.6074  Tot=              3.8327
 Quadrupole moment (field-independent basis, Debye-Ang):
   XX=            -52.9609   YY=            -58.2822   ZZ=            -50.1819
   XY=              4.9573   XZ=              3.7482   YZ=              2.1458

  Exact polarizability:  85.770  -0.080  74.192   1.067   0.370  68.517
 Approx polarizability: 110.057  -3.111 121.284   1.697  -1.008 107.089

                      1                      2                      3
                      A                      A                      A
 Frequencies --     79.2854               140.2553               153.4542
 Red. masses --      2.6983                 4.1008                 4.2233
 Frc consts  --      0.0100                 0.0475                 0.0586
 IR Inten    --      0.7851                 3.2431                 0.0514

                      4                      5                      6
                      A                      A                      A
 Frequencies --    188.5355               254.4529               275.6378
 Red. masses --      1.6615                 1.2602                 1.3920
 Frc consts  --      0.0348                 0.0481                 0.0623
 IR Inten    --      1.5252                26.3459                73.9699

                      7                      8                      9
                      A                      A                      A
 Frequencies --    320.0543               430.3989               445.7639
 Red. masses --      3.3837                 3.5977                 3.3682
 Frc consts  --      0.2042                 0.3927                 0.3943
 IR Inten    --      6.4803                 1.6574                 2.6530

                     10                     11                     12
                      A                      A                      A
 Frequencies --    454.6159               528.8864               677.8332
 Red. masses --      3.6951                 4.7060                 4.2370
 Frc consts  --      0.4500                 0.7756                 1.1470
 IR Inten    --      3.9401                 9.2829                 0.8908

                     13                     14                     15
                      A                      A                      A
 Frequencies --    730.5237               777.0846               799.6082
 Red. masses --      2.7392                 1.8536                 2.8975
 Frc consts  --      0.8613                 0.6595                 1.0915
 IR Inten    --      1.0588                 2.0310                 1.5896

                     16                     17                     18
                      A                      A                      A
 Frequencies --    814.5013               877.5084               918.7685
 Red. masses --      3.5975                 1.9134                 3.4542
 Frc consts  --      1.4061                 0.8681                 1.7179
 IR Inten    --     13.0822                 8.1726                 9.0175

                     19                     20                     21
                      A                      A                      A
 Frequencies --    949.5986               955.3355              1036.1095
 Red. masses --      1.5684                 1.6793                 1.2333
 Frc consts  --      0.8333                 0.9030                 0.7800
 IR Inten    --     15.6147                 7.3096                 1.0873

                     22                     23                     24
                      A                      A                      A
 Frequencies --   1052.7258              1057.3427              1092.7693
 Red. masses --      1.7615                 2.1872                 1.5654
 Frc consts  --      1.1502                 1.4407                 1.1014
 IR Inten    --      5.5527                12.8493                 8.6596

                     25                     26                     27
                      A                      A                      A
 Frequencies --   1109.4419              1116.3938              1146.7713
 Red. masses --      3.8379                 2.3497                 1.4809
 Frc consts  --      2.7832                 1.7254                 1.1474
 IR Inten    --     15.4408                12.0325                13.9422

                     28                     29                     30
                      A                      A                      A
 Frequencies --   1181.2834              1211.3657              1223.7642
 Red. masses --      2.3503                 1.7303                 1.9196
 Frc consts  --      1.9324                 1.4959                 1.6938
 IR Inten    --     22.0812               116.6274                 2.8706

                     31                     32                     33
                      A                      A                      A
 Frequencies --   1245.1675              1298.9381              1304.3073
 Red. masses --      1.7923                 1.2102                 1.3362
 Frc consts  --      1.6372                 1.2030                 1.3393
 IR Inten    --     13.8677                 0.5580                38.6329

                     34                     35                     36
                      A                      A                      A
 Frequencies --   1351.9593              1406.8640              1413.6595
 Red. masses --      1.3530                 1.3533                 1.2331
 Frc consts  --      1.4570                 1.5781                 1.4519
 IR Inten    --      3.7480                 6.9408                 2.2625

                     37                     38                     39
                      A                      A                      A
 Frequencies --   1439.1480              1487.3466              1500.4725
 Red. masses --      1.3974                 1.0581                 1.0401
 Frc consts  --      1.7052                 1.3791                 1.3797
 IR Inten    --      4.8259                 1.2442                 5.8805

                     40                     41                     42
                      A                      A                      A
 Frequencies --   1507.1285              1925.2904              3025.8087
 Red. masses --      1.0769                12.1846                 1.0622
 Frc consts  --      1.4413                26.6106                 5.7297
 IR Inten    --      3.7968               342.5615                19.1622

                     43                     44                     45
                      A                      A                      A
 Frequencies --   3030.0009              3032.7888              3043.7045
 Red. masses --      1.0846                 1.0371                 1.0832
 Frc consts  --      5.8670                 5.6200                 5.9122
 IR Inten    --     29.1537                23.1755                33.2984

                     46                     47                     48
                      A                      A                      A
 Frequencies --   3066.9175              3100.8789              3108.8980
 Red. masses --      1.0980                 1.1019                 1.1011
 Frc consts  --      6.0852                 6.2424                 6.2704
 IR Inten    --     13.0456                40.9096                30.3655

                     49                     50                     51
                      A                      A                      A
 Frequencies --   3138.0225              3150.3980              3819.7362
 Red. masses --      1.0928                 1.0944                 1.0661
 Frc consts  --      6.3403                 6.3994                 9.1649
 IR Inten    --     29.7281                14.0309                36.6871

 - Thermochemistry -
 -------------------
 Temperature   298.150 Kelvin.  Pressure   1.00000 Atm.
 Atom     1 has atomic number  6 and mass  12.00000

 Molecular mass:   126.06808 amu.
 Principal axes and moments of inertia in atomic units:
                           1         2         3
     Eigenvalues --   594.697271531.342651803.97497
           X            0.99998   0.00668  -0.00230
           Y           -0.00663   0.99970   0.02352
           Z            0.00246  -0.02351   0.99972
 This molecule is an asymmetric top.
 Rotational symmetry number  1.
 Warning -- assumption of classical behavior for rotation
           may cause significant error
 Rotational temperatures (Kelvin)      0.14564     0.05656     0.04801
 Rotational constants (GHZ):           3.03472     1.17854     1.00042
 Zero-point vibrational energy     415089.3 (Joules/Mol)
                                   99.20871 (Kcal/Mol)
 Warning -- explicit consideration of  11 degrees of freedom as
           vibrations may cause significant error
 Vibrational temperatures:    114.07   201.80   220.79   271.26   366.10
          (Kelvin)            396.58   460.49   619.25   641.35   654.09
                              760.95   975.25  1051.06  1118.05  1150.46
                             1171.88  1262.54  1321.90  1366.26  1374.51
                             1490.73  1514.64  1521.28  1572.25  1596.24
                             1606.24  1649.95  1699.60  1742.88  1760.72
                             1791.52  1868.88  1876.60  1945.17  2024.16
                             2033.94  2070.61  2139.96  2158.84  2168.42
                             2770.06  4353.46  4359.49  4363.50  4379.21
                             4412.60  4461.47  4473.01  4514.91  4532.71
                             5495.74

 Zero-point correction=                           0.158099 (Hartree/Particle)
 Thermal correction to Energy=                    0.166897
 Thermal correction to Enthalpy=                  0.167842
 Thermal correction to Gibbs Free Energy=         0.124599
 Sum of electronic and zero-point Energies=           -422.993896
 Sum of electronic and thermal Energies=              -422.985098
 Sum of electronic and thermal Enthalpies=            -422.984153
 Sum of electronic and thermal Free Energies=         -423.027396

                     E (Thermal)             CV                S
                      KCal/Mol        Cal/Mol-Kelvin    Cal/Mol-Kelvin
 Total                  104.730             33.284             91.011
 Electronic               0.000              0.000              0.000
 Translational            0.889              2.981             40.409
 Rotational               0.889              2.981             28.887
 Vibrational            102.952             27.322             21.716
 Vibration     1          0.600              1.963              3.908
 Vibration     2          0.615              1.913              2.800
 Vibration     3          0.619              1.899              2.629
 Vibration     4          0.633              1.856              2.242
 Vibration     5          0.665              1.755              1.700
 Vibration     6          0.677              1.718              1.561
 Vibration     7          0.706              1.635              1.310
 Vibration     8          0.792              1.404              0.857
 Vibration     9          0.805              1.370              0.809
 Vibration    10          0.813              1.351              0.782
 Vibration    11          0.884              1.186              0.590

 Normal termination of Gaussian 09 at Tue Jan 28 14:44:12 2020.
