 Gaussian 09, Revision D.01,
 Gaussian 09:  ES64L-G09RevD.01 24-Apr-2013

 -----------------------------
 # b3lyp 6-31G(2df,p) opt Freq
 -----------------------------

 -----
 titel
 -----
 Symbolic Z-matrix:
 Charge =  0 Multiplicity = 1

 SCF Done:  E(RB3LYP) =  -423.125584862     A.U. after   13 cycles
 Optimization completed.
    -- Stationary point found.
 Normal termination of Gaussian 09 at Tue Jan 28 02:52:33 2020.

 ----------------------------------------------------------------------
 #N Geom=AllCheck Guess=TCheck SCRF=Check GenChk RB3LYP/6-31G(2df,p) Fr
 eq
 ----------------------------------------------------------------------

 Structure from the checkpoint file:  "/scratch/puck/g09_d252dff4-7381-4966-babb-21a101d0dd40/Gau-105049.chk"
 -----
 titel
 -----
 Charge =  0 Multiplicity = 1

                         Standard orientation:
 ---------------------------------------------------------------------
 Center     Atomic      Atomic             Coordinates (Angstroms)
 Number     Number       Type             X           Y           Z
 ---------------------------------------------------------------------
      1          8           0        2.923190    0.019479   -0.615288
      2          6           0        1.590822   -0.390539   -0.377485
      3          6           0        1.336142   -0.456093    1.152780
      4          6           0        0.283876    0.653279    1.032134
      5          6           0        0.540774    0.729656   -0.502733
      6          6           0       -0.756923    0.259971    0.048401
      7          6           0       -2.127062    0.903015   -0.144971
      8          6           0       -2.614317   -0.555683   -0.284475
      9          8           0       -1.274802   -1.069934   -0.107066
     10          1           0        3.037213    0.114951   -1.566477
     11          1           0        1.351301   -1.302715   -0.939050
     12          1           0        0.989924   -1.409124    1.560640
     13          1           0        2.236258   -0.130505    1.676721
     14          1           0        0.120010    1.449769    1.750652
     15          1           0        0.623224    1.587715   -1.163074
     16          1           0       -2.513899    1.449126    0.717598
     17          1           0       -2.232678    1.518179   -1.040679
     18          1           0       -3.291071   -0.906922    0.502698
     19          1           0       -3.027248   -0.828470   -1.262116
 ---------------------------------------------------------------------

 SCF Done:  E(RB3LYP) =  -423.125584862     A.U. after    1 cycles

 The electronic state is 1-A.
 Alpha  occ. eigenvalues --  -19.13280 -19.13175 -10.23877 -10.23259 -10.22949
 Alpha  occ. eigenvalues --  -10.19283 -10.18779 -10.18387 -10.17626  -1.03946
 Alpha  occ. eigenvalues --   -1.01562  -0.88168  -0.74991  -0.70963  -0.64456
 Alpha  occ. eigenvalues --   -0.63199  -0.54032  -0.53082  -0.51393  -0.49028
 Alpha  occ. eigenvalues --   -0.48365  -0.47718  -0.44404  -0.39220  -0.38272
 Alpha  occ. eigenvalues --   -0.37986  -0.36065  -0.34350  -0.33592  -0.32013
 Alpha  occ. eigenvalues --   -0.30604  -0.26311  -0.25472  -0.22712
 Alpha virt. eigenvalues --    0.07889   0.08164   0.09820   0.10441   0.10943
 Alpha virt. eigenvalues --    0.13183   0.14635   0.15881   0.16683   0.17363
 Alpha virt. eigenvalues --    0.17810   0.18029   0.19084   0.20970   0.22687

 Mulliken charges:
               1
     1  O   -0.439177
     2  C    0.138438
     3  C   -0.247705
     4  C   -0.153652
     5  C   -0.207953
     6  C    0.481583
     7  C   -0.374904
     8  C   -0.068844
     9  O   -0.316021
    10  H    0.279215
    11  H    0.077764
    12  H    0.108142
    13  H    0.119387
    14  H    0.081084
    15  H    0.080280
    16  H    0.115603
    17  H    0.114441
    18  H    0.106583
    19  H    0.105738
 Sum of Mulliken charges =   0.00000

 Dipole moment (field-independent basis, Debye):
    X=             -1.5145    Y=              1.3620    Z=             -1.0457  Tot=              2.2896
 Quadrupole moment (field-independent basis, Debye-Ang):
   XX=            -52.8146   YY=            -54.2653   ZZ=            -48.5175
   XY=             -1.4886   XZ=             -2.8997   YZ=             -0.2914

  Exact polarizability:  90.796   0.471  66.082   0.289  -0.726  70.884
 Approx polarizability: 114.186   2.259  99.544  -0.708  -0.919 108.141

                      1                      2                      3
                      A                      A                      A
 Frequencies --     66.9929               114.6860               167.7082
 Red. masses --      2.4154                 4.3890                 3.2078
 Frc consts  --      0.0064                 0.0340                 0.0532
 IR Inten    --      1.0448                 1.7787                 1.8977

                      4                      5                      6
                      A                      A                      A
 Frequencies --    218.2288               282.2470               336.1273
 Red. masses --      2.5057                 1.2474                 3.3570
 Frc consts  --      0.0703                 0.0585                 0.2235
 IR Inten    --      1.1491                74.5821                35.7811

                      7                      8                      9
                      A                      A                      A
 Frequencies --    427.7466               438.2629               516.5779
 Red. masses --      3.8681                 2.8056                 2.6959
 Frc consts  --      0.4170                 0.3175                 0.4239
 IR Inten    --      3.7063                 4.5866                 3.1862

                     10                     11                     12
                      A                      A                      A
 Frequencies --    604.3012               744.5473               785.4728
 Red. masses --      4.6076                 2.9526                 1.1514
 Frc consts  --      0.9914                 0.9644                 0.4186
 IR Inten    --     10.4104                 0.7031                 0.2423

                     13                     14                     15
                      A                      A                      A
 Frequencies --    807.5654               859.9489               882.7892
 Red. masses --      2.0797                 2.4512                 2.3782
 Frc consts  --      0.7991                 1.0680                 1.0920
 IR Inten    --      2.5023                 4.2133                 6.7688

                     16                     17                     18
                      A                      A                      A
 Frequencies --    888.9250               953.4427               968.0694
 Red. masses --      2.2091                 1.7363                 2.0618
 Frc consts  --      1.0285                 0.9300                 1.1384
 IR Inten    --      6.0142                23.3057                 3.0278

                     19                     20                     21
                      A                      A                      A
 Frequencies --    975.2756               986.5305               996.8388
 Red. masses --      2.1610                 2.3530                 2.8333
 Frc consts  --      1.2110                 1.3493                 1.6588
 IR Inten    --      5.5674                17.2699                93.2539

                     22                     23                     24
                      A                      A                      A
 Frequencies --   1022.4891              1051.4048              1097.1819
 Red. masses --      4.6414                 2.4834                 1.9871
 Frc consts  --      2.8590                 1.6175                 1.4093
 IR Inten    --     55.6683                58.4989                37.9178

                     25                     26                     27
                      A                      A                      A
 Frequencies --   1107.9102              1142.9907              1165.3047
 Red. masses --      1.9469                 2.4472                 1.2211
 Frc consts  --      1.4080                 1.8837                 0.9769
 IR Inten    --      1.4131                33.6956                 3.4206

                     28                     29                     30
                      A                      A                      A
 Frequencies --   1185.6213              1208.7471              1214.2814
 Red. masses --      1.3708                 2.2180                 1.2353
 Frc consts  --      1.1353                 1.9093                 1.0731
 IR Inten    --      0.7205                11.0560                 1.5036

                     31                     32                     33
                      A                      A                      A
 Frequencies --   1237.6637              1238.6868              1261.4680
 Red. masses --      1.4268                 1.4254                 1.4745
 Frc consts  --      1.2877                 1.2886                 1.3824
 IR Inten    --     34.6666                 0.3536                 1.2460

                     34                     35                     36
                      A                      A                      A
 Frequencies --   1274.8508              1320.0185              1352.7568
 Red. masses --      1.4719                 1.4638                 1.4516
 Frc consts  --      1.4094                 1.5027                 1.5651
 IR Inten    --      9.1516                75.8837                 3.1875

                     37                     38                     39
                      A                      A                      A
 Frequencies --   1412.5051              1449.2137              1474.9289
 Red. masses --      1.6140                 3.0031                 1.1264
 Frc consts  --      1.8972                 3.7161                 1.4437
 IR Inten    --     25.2227                29.8407                 4.5474

                     40                     41                     42
                      A                      A                      A
 Frequencies --   1490.5079              1532.3334              3015.8466
 Red. masses --      1.1291                 1.1674                 1.0847
 Frc consts  --      1.4779                 1.6151                 5.8129
 IR Inten    --      2.7830                 0.1315                50.0769

                     43                     44                     45
                      A                      A                      A
 Frequencies --   3026.1606              3067.1176              3068.0680
 Red. masses --      1.0551                 1.0596                 1.1118
 Frc consts  --      5.6926                 5.8730                 6.1663
 IR Inten    --     87.5208                33.7416                31.6048

                     46                     47                     48
                      A                      A                      A
 Frequencies --   3073.2926              3126.3640              3131.6413
 Red. masses --      1.0590                 1.1089                 1.1065
 Frc consts  --      5.8934                 6.3860                 6.3935
 IR Inten    --     29.0267                22.3172                12.0452

                     49                     50                     51
                      A                      A                      A
 Frequencies --   3152.4040              3163.7018              3811.8022
 Red. masses --      1.0884                 1.0958                 1.0660
 Frc consts  --      6.3725                 6.4623                 9.1257
 IR Inten    --     22.9559                17.3410                20.1209

 - Thermochemistry -
 -------------------
 Temperature   298.150 Kelvin.  Pressure   1.00000 Atm.
 Atom     1 has atomic number  8 and mass  15.99491

 Molecular mass:   126.06808 amu.
 Principal axes and moments of inertia in atomic units:
                           1         2         3
     Eigenvalues --   429.571141673.667131692.90280
           X            0.99994  -0.00941   0.00514
           Y            0.00996   0.99278  -0.11952
           Z           -0.00398   0.11956   0.99282
 This molecule is an asymmetric top.
 Rotational symmetry number  1.
 Rotational temperatures (Kelvin)      0.20163     0.05175     0.05116
 Rotational constants (GHZ):           4.20126     1.07832     1.06606
 Zero-point vibrational energy     418092.1 (Joules/Mol)
                                   99.92642 (Kcal/Mol)
 Warning -- explicit consideration of  10 degrees of freedom as
           vibrations may cause significant error
 Vibrational temperatures:     96.39   165.01   241.29   313.98   406.09
          (Kelvin)            483.61   615.43   630.56   743.24   869.45
                             1071.24  1130.12  1161.91  1237.27  1270.14
                             1278.96  1371.79  1392.83  1403.20  1419.40
                             1434.23  1471.13  1512.74  1578.60  1594.03
                             1644.51  1676.61  1705.84  1739.12  1747.08
                             1780.72  1782.19  1814.97  1834.22  1899.21
                             1946.31  2032.28  2085.09  2122.09  2144.51
                             2204.68  4339.13  4353.96  4412.89  4414.26
                             4421.78  4498.13  4505.73  4535.60  4551.86
                             5484.33

 Zero-point correction=                           0.159243 (Hartree/Particle)
 Thermal correction to Energy=                    0.167414
 Thermal correction to Enthalpy=                  0.168358
 Thermal correction to Gibbs Free Energy=         0.126177
 Sum of electronic and zero-point Energies=           -422.966342
 Sum of electronic and thermal Energies=              -422.958171
 Sum of electronic and thermal Enthalpies=            -422.957227
 Sum of electronic and thermal Free Energies=         -422.999408

                     E (Thermal)             CV                S
                      KCal/Mol        Cal/Mol-Kelvin    Cal/Mol-Kelvin
 Total                  105.054             31.274             88.777
 Electronic               0.000              0.000              0.000
 Translational            0.889              2.981             40.409
 Rotational               0.889              2.981             28.589
 Vibrational            103.276             25.312             19.780
 Vibration     1          0.598              1.970              4.240
 Vibration     2          0.608              1.937              3.188
 Vibration     3          0.624              1.882              2.461
 Vibration     4          0.646              1.813              1.974
 Vibration     5          0.681              1.707              1.520
 Vibration     6          0.717              1.603              1.230
 Vibration     7          0.789              1.410              0.866
 Vibration     8          0.798              1.387              0.832
 Vibration     9          0.872              1.213              0.618
 Vibration    10          0.963              1.023              0.442

 Normal termination of Gaussian 09 at Tue Jan 28 03:44:35 2020.
