 Gaussian 09, Revision D.01,
 Gaussian 09:  ES64L-G09RevD.01 24-Apr-2013

 -----------------------------
 # b3lyp 6-31G(2df,p) opt Freq
 -----------------------------

 -----
 titel
 -----
 Symbolic Z-matrix:
 Charge =  0 Multiplicity = 1

 SCF Done:  E(RB3LYP) =  -423.205896246     A.U. after   14 cycles
 Optimization completed.
    -- Stationary point found.
 Normal termination of Gaussian 09 at Tue Jan 28 03:22:56 2020.

 ----------------------------------------------------------------------
 #N Geom=AllCheck Guess=TCheck SCRF=Check GenChk RB3LYP/6-31G(2df,p) Fr
 eq
 ----------------------------------------------------------------------

 Structure from the checkpoint file:  "/scratch/puck/g09_bb9e3bd7-0d1d-4350-934f-a1965fd83f70/Gau-67004.chk"
 -----
 titel
 -----
 Charge =  0 Multiplicity = 1

                         Standard orientation:
 ---------------------------------------------------------------------
 Center     Atomic      Atomic             Coordinates (Angstroms)
 Number     Number       Type             X           Y           Z
 ---------------------------------------------------------------------
      1          6           0       -2.767308    0.442284    0.098363
      2          6           0       -1.310258    0.239955   -0.325434
      3          6           0       -0.928671   -1.255028   -0.330969
      4          6           0        0.565466   -1.526703   -0.358315
      5          8           0        1.251423   -1.342464    0.874765
      6          6           0        1.563014   -0.438381   -0.195878
      7          6           0        1.062060    0.966153   -0.012873
      8          8           0        1.726034    1.917147   -0.357117
      9          6           0       -0.340902    1.064209    0.554909
     10          1           0       -2.921321    0.117464    1.133849
     11          1           0       -3.056140    1.495734    0.030227
     12          1           0       -3.447298   -0.134529   -0.537635
     13          1           0       -1.201611    0.611936   -1.353881
     14          1           0       -1.329663   -1.743779    0.566747
     15          1           0       -1.399013   -1.748049   -1.189010
     16          1           0        0.889853   -2.409703   -0.909503
     17          1           0        2.560685   -0.529296   -0.620421
     18          1           0       -0.347359    0.669771    1.578105
     19          1           0       -0.628202    2.118052    0.581521
 ---------------------------------------------------------------------

 SCF Done:  E(RB3LYP) =  -423.205896246     A.U. after    1 cycles

 The electronic state is 1-A.
 Alpha  occ. eigenvalues --  -19.16799 -19.13214 -10.26969 -10.25514 -10.24584
 Alpha  occ. eigenvalues --  -10.20808 -10.19967 -10.19052 -10.18550  -1.08947
 Alpha  occ. eigenvalues --   -1.04066  -0.83103  -0.74387  -0.72883  -0.68380
 Alpha  occ. eigenvalues --   -0.62321  -0.59084  -0.53758  -0.51408  -0.48929
 Alpha  occ. eigenvalues --   -0.46103  -0.44755  -0.43203  -0.41873  -0.41055
 Alpha  occ. eigenvalues --   -0.40228  -0.38656  -0.37434  -0.36144  -0.34263
 Alpha  occ. eigenvalues --   -0.33408  -0.30715  -0.28607  -0.24364
 Alpha virt. eigenvalues --   -0.02609   0.07323   0.09424   0.11068   0.11753
 Alpha virt. eigenvalues --    0.13299   0.13880   0.14166   0.14793   0.16350
 Alpha virt. eigenvalues --    0.17328   0.17728   0.18685   0.21537   0.22337

 Mulliken charges:
               1
     1  C   -0.405252
     2  C    0.016300
     3  C   -0.226381
     4  C    0.029732
     5  O   -0.241195
     6  C   -0.057947
     7  C    0.386386
     8  O   -0.315967
     9  C   -0.316306
    10  H    0.120087
    11  H    0.120351
    12  H    0.116105
    13  H    0.087854
    14  H    0.118710
    15  H    0.107656
    16  H    0.105263
    17  H    0.107686
    18  H    0.129204
    19  H    0.117714
 Sum of Mulliken charges =   0.00000

 Dipole moment (field-independent basis, Debye):
    X=             -2.4550    Y=             -1.8240    Z=             -0.8608  Tot=              3.1773
 Quadrupole moment (field-independent basis, Debye-Ang):
   XX=            -54.9604   YY=            -57.1379   ZZ=            -53.3289
   XY=             -3.8436   XZ=             -0.8515   YZ=              4.1296

  Exact polarizability:  85.213   3.822  80.999  -2.548   1.765  60.324
 Approx polarizability: 113.067  13.601 122.868  -3.097  -4.283 100.229

                      1                      2                      3
                      A                      A                      A
 Frequencies --     91.8416               125.4749               231.2520
 Red. masses --      3.3381                 3.7580                 2.3732
 Frc consts  --      0.0166                 0.0349                 0.0748
 IR Inten    --      2.2268                 1.8183                 4.7917

                      4                      5                      6
                      A                      A                      A
 Frequencies --    246.6186               290.3603               357.0991
 Red. masses --      1.2505                 2.5589                 4.5135
 Frc consts  --      0.0448                 0.1271                 0.3391
 IR Inten    --      1.4961                 0.2600                 3.3894

                      7                      8                      9
                      A                      A                      A
 Frequencies --    398.9169               411.9896               480.8221
 Red. masses --      1.9875                 3.5906                 4.0366
 Frc consts  --      0.1863                 0.3591                 0.5498
 IR Inten    --      3.2815                 0.4023                10.7355

                     10                     11                     12
                      A                      A                      A
 Frequencies --    502.7791               587.8897               698.5816
 Red. masses --      3.8536                 3.6272                 3.7890
 Frc consts  --      0.5739                 0.7386                 1.0894
 IR Inten    --     10.7544                 1.4087                 3.4859

                     13                     14                     15
                      A                      A                      A
 Frequencies --    788.8178               812.0445               851.5418
 Red. masses --      3.7353                 2.9312                 2.6973
 Frc consts  --      1.3694                 1.1388                 1.1524
 IR Inten    --      4.9777                 3.8989                18.2311

                     16                     17                     18
                      A                      A                      A
 Frequencies --    885.2385               904.5593               943.5490
 Red. masses --      2.2734                 2.0600                 2.0095
 Frc consts  --      1.0497                 0.9931                 1.0541
 IR Inten    --      3.9468                 4.0296                 6.5235

                     19                     20                     21
                      A                      A                      A
 Frequencies --    955.7180              1016.1365              1031.9164
 Red. masses --      2.0635                 2.3419                 1.4692
 Frc consts  --      1.1105                 1.4247                 0.9218
 IR Inten    --      0.7947                 5.8874                 9.6894

                     22                     23                     24
                      A                      A                      A
 Frequencies --   1077.9730              1106.8653              1142.2349
 Red. masses --      1.8172                 1.8854                 1.3368
 Frc consts  --      1.2441                 1.3609                 1.0276
 IR Inten    --      4.1117                 1.7024                 0.6114

                     25                     26                     27
                      A                      A                      A
 Frequencies --   1160.8559              1175.1577              1258.5090
 Red. masses --      1.7500                 1.8030                 1.4020
 Frc consts  --      1.3894                 1.4671                 1.3083
 IR Inten    --      3.9806                 5.4235                19.7555

                     28                     29                     30
                      A                      A                      A
 Frequencies --   1264.4574              1283.6470              1296.5608
 Red. masses --      1.7132                 1.2755                 1.7080
 Frc consts  --      1.6139                 1.2383                 1.6917
 IR Inten    --      8.7317                 2.1130                14.0573

                     31                     32                     33
                      A                      A                      A
 Frequencies --   1333.1991              1357.0677              1374.0104
 Red. masses --      1.3889                 1.5329                 1.3574
 Frc consts  --      1.4545                 1.6633                 1.5098
 IR Inten    --      2.0104                12.5551                 6.5765

                     34                     35                     36
                      A                      A                      A
 Frequencies --   1386.0344              1414.5345              1432.6008
 Red. masses --      1.6604                 1.2469                 2.4527
 Frc consts  --      1.8793                 1.4699                 2.9658
 IR Inten    --      9.6233                 1.2269                19.8641

                     37                     38                     39
                      A                      A                      A
 Frequencies --   1462.6902              1478.3551              1497.1416
 Red. masses --      1.1273                 1.0847                 1.0476
 Frc consts  --      1.4210                 1.3967                 1.3834
 IR Inten    --      4.5694                 2.1355                 5.8829

                     40                     41                     42
                      A                      A                      A
 Frequencies --   1499.0026              1812.6317              3003.4288
 Red. masses --      1.0545                11.4380                 1.0822
 Frc consts  --      1.3960                22.1421                 5.7519
 IR Inten    --      3.0631               201.1515                10.1916

                     43                     44                     45
                      A                      A                      A
 Frequencies --   3024.7646              3029.3483              3044.7797
 Red. masses --      1.0556                 1.0417                 1.0610
 Frc consts  --      5.6903                 5.6326                 5.7956
 IR Inten    --     10.1568                34.8776                 8.8991

                     46                     47                     48
                      A                      A                      A
 Frequencies --   3070.6892              3096.1840              3103.7739
 Red. masses --      1.0999                 1.1011                 1.1016
 Frc consts  --      6.1103                 6.2193                 6.2524
 IR Inten    --     13.2035                31.2888                16.2030

                     49                     50                     51
                      A                      A                      A
 Frequencies --   3108.2052              3112.7190              3145.2108
 Red. masses --      1.0885                 1.1010                 1.0910
 Frc consts  --      6.1958                 6.2851                 6.3591
 IR Inten    --     40.2515                14.8895                21.7745

 - Thermochemistry -
 -------------------
 Temperature   298.150 Kelvin.  Pressure   1.00000 Atm.
 Atom     1 has atomic number  6 and mass  12.00000

 Molecular mass:   126.06808 amu.
 Principal axes and moments of inertia in atomic units:
                           1         2         3
     Eigenvalues --   771.917131135.072411680.40168
           X            0.99863  -0.05140  -0.00955
           Y            0.05171   0.99805   0.03486
           Z            0.00774  -0.03530   0.99935
 This molecule is an asymmetric top.
 Rotational symmetry number  1.
 Warning -- assumption of classical behavior for rotation
           may cause significant error
 Rotational temperatures (Kelvin)      0.11221     0.07631     0.05154
 Rotational constants (GHZ):           2.33800     1.58998     1.07399
 Zero-point vibrational energy     419684.6 (Joules/Mol)
                                  100.30702 (Kcal/Mol)
 Warning -- explicit consideration of  11 degrees of freedom as
           vibrations may cause significant error
 Vibrational temperatures:    132.14   180.53   332.72   354.83   417.76
          (Kelvin)            513.79   573.95   592.76   691.79   723.39
                              845.84  1005.10  1134.93  1168.35  1225.18
                             1273.66  1301.46  1357.55  1375.06  1461.99
                             1484.70  1550.96  1592.53  1643.42  1670.21
                             1690.79  1810.71  1819.27  1846.88  1865.46
                             1918.17  1952.52  1976.89  1994.19  2035.20
                             2061.19  2104.48  2127.02  2154.05  2156.73
                             2607.97  4321.26  4351.96  4358.55  4380.75
                             4418.03  4454.71  4465.63  4472.01  4478.50
                             4525.25

 Zero-point correction=                           0.159849 (Hartree/Particle)
 Thermal correction to Energy=                    0.167978
 Thermal correction to Enthalpy=                  0.168922
 Thermal correction to Gibbs Free Energy=         0.127153
 Sum of electronic and zero-point Energies=           -423.046047
 Sum of electronic and thermal Energies=              -423.037918
 Sum of electronic and thermal Enthalpies=            -423.036974
 Sum of electronic and thermal Free Energies=         -423.078743

                     E (Thermal)             CV                S
                      KCal/Mol        Cal/Mol-Kelvin    Cal/Mol-Kelvin
 Total                  105.408             31.394             87.911
 Electronic               0.000              0.000              0.000
 Translational            0.889              2.981             40.409
 Rotational               0.889              2.981             28.778
 Vibrational            103.630             25.433             18.724
 Vibration     1          0.602              1.955              3.620
 Vibration     2          0.610              1.928              3.014
 Vibration     3          0.653              1.793              1.869
 Vibration     4          0.661              1.768              1.755
 Vibration     5          0.686              1.692              1.472
 Vibration     6          0.732              1.561              1.135
 Vibration     7          0.765              1.472              0.967
 Vibration     8          0.776              1.444              0.920
 Vibration     9          0.837              1.293              0.708
 Vibration    10          0.858              1.244              0.651
 Vibration    11          0.945              1.058              0.471

 Normal termination of Gaussian 09 at Tue Jan 28 04:18:33 2020.
