 Gaussian 09, Revision D.01,
 Gaussian 09:  ES64L-G09RevD.01 24-Apr-2013

 -----------------------------
 # b3lyp 6-31G(2df,p) opt Freq
 -----------------------------

 -----
 titel
 -----
 Symbolic Z-matrix:
 Charge =  0 Multiplicity = 1

 SCF Done:  E(RB3LYP) =  -423.175572348     A.U. after   14 cycles
 Optimization completed.
    -- Stationary point found.
 Normal termination of Gaussian 09 at Tue Jan 28 08:13:50 2020.

 ----------------------------------------------------------------------
 #N Geom=AllCheck Guess=TCheck SCRF=Check GenChk RB3LYP/6-31G(2df,p) Fr
 eq
 ----------------------------------------------------------------------

 Structure from the checkpoint file:  "/scratch/puck/g09_e9886df2-f609-4124-ab10-ed6e4563f110/Gau-92054.chk"
 -----
 titel
 -----
 Charge =  0 Multiplicity = 1

                         Standard orientation:
 ---------------------------------------------------------------------
 Center     Atomic      Atomic             Coordinates (Angstroms)
 Number     Number       Type             X           Y           Z
 ---------------------------------------------------------------------
      1          8           0        3.141240   -0.445979   -0.120330
      2          6           0        1.827190   -0.863673    0.087743
      3          6           0        0.864497    0.318486    0.032245
      4          8           0        1.318248    1.426264   -0.206630
      5          6           0       -0.566939    0.072169    0.256995
      6          6           0       -1.474897    1.210661    0.682330
      7          6           0       -1.728160    0.597037   -0.643889
      8          6           0       -2.448678   -0.747885   -0.502495
      9          6           0       -1.294543   -1.272285    0.414633
     10          1           0        3.070157    0.512234   -0.270137
     11          1           0        1.515530   -1.602557   -0.670071
     12          1           0        1.710410   -1.361254    1.065467
     13          1           0       -2.161019    1.039489    1.508722
     14          1           0       -0.988376    2.179219    0.669910
     15          1           0       -1.604823    1.159744   -1.561009
     16          1           0       -3.446522   -0.699239   -0.055715
     17          1           0       -2.513601   -1.301104   -1.440988
     18          1           0       -1.565344   -1.542941    1.439866
     19          1           0       -0.763129   -2.112937   -0.035737
 ---------------------------------------------------------------------

 SCF Done:  E(RB3LYP) =  -423.175572348     A.U. after    1 cycles

 The electronic state is 1-A.
 Alpha  occ. eigenvalues --  -19.13669 -19.12456 -10.27297 -10.23397 -10.21606
 Alpha  occ. eigenvalues --  -10.21374 -10.20399 -10.20356 -10.20210  -1.05366
 Alpha  occ. eigenvalues --   -1.00527  -0.91344  -0.74756  -0.73690  -0.66765
 Alpha  occ. eigenvalues --   -0.61827  -0.58038  -0.53723  -0.53042  -0.47706
 Alpha  occ. eigenvalues --   -0.46875  -0.46033  -0.45745  -0.42443  -0.40137
 Alpha  occ. eigenvalues --   -0.39622  -0.37735  -0.36067  -0.34754  -0.34478
 Alpha  occ. eigenvalues --   -0.30452  -0.27487  -0.26414  -0.25778
 Alpha virt. eigenvalues --   -0.02572   0.07939   0.09393   0.10457   0.11176
 Alpha virt. eigenvalues --    0.12206   0.12676   0.14049   0.15166   0.15801
 Alpha virt. eigenvalues --    0.16987   0.18897   0.21039   0.21433   0.22231

 Mulliken charges:
               1
     1  O   -0.422046
     2  C   -0.141703
     3  C    0.238197
     4  O   -0.359327
     5  C    0.273289
     6  C   -0.309117
     7  C   -0.070850
     8  C   -0.223037
     9  C   -0.318979
    10  H    0.292463
    11  H    0.111441
    12  H    0.114059
    13  H    0.114121
    14  H    0.145561
    15  H    0.112188
    16  H    0.107695
    17  H    0.114131
    18  H    0.105812
    19  H    0.116102
 Sum of Mulliken charges =   0.00000

 Dipole moment (field-independent basis, Debye):
    X=             -3.4370    Y=             -1.1280    Z=              0.2225  Tot=              3.6242
 Quadrupole moment (field-independent basis, Debye-Ang):
   XX=            -60.3950   YY=            -54.2186   ZZ=            -51.4262
   XY=              0.8636   XZ=              0.4065   YZ=              0.3922

  Exact polarizability:  94.017   1.401  76.896  -0.379  -0.615  62.130
 Approx polarizability: 127.538   4.360 119.313  -0.103  -2.882  96.900

                      1                      2                      3
                      A                      A                      A
 Frequencies --     54.9182               108.2965               161.6529
 Red. masses --      4.7656                 2.7198                 3.8177
 Frc consts  --      0.0085                 0.0188                 0.0588
 IR Inten    --      0.2749                 4.4659                 0.5322

                      4                      5                      6
                      A                      A                      A
 Frequencies --    175.8409               286.8228               330.2357
 Red. masses --      2.6314                 2.2151                 4.9362
 Frc consts  --      0.0479                 0.1074                 0.3172
 IR Inten    --      0.8384                 0.8887                28.3162

                      7                      8                      9
                      A                      A                      A
 Frequencies --    365.9123               421.3863               461.4525
 Red. masses --      3.1805                 2.6147                 1.1814
 Frc consts  --      0.2509                 0.2735                 0.1482
 IR Inten    --      1.8273                 3.6399                44.7402

                     10                     11                     12
                      A                      A                      A
 Frequencies --    504.4182               570.6412               709.9050
 Red. masses --      3.8860                 2.2441                 3.6222
 Frc consts  --      0.5826                 0.4305                 1.0755
 IR Inten    --      7.3407                20.5419                 4.4135

                     13                     14                     15
                      A                      A                      A
 Frequencies --    774.5417               781.3589               797.9904
 Red. masses --      4.0822                 1.9593                 1.8745
 Frc consts  --      1.4429                 0.7048                 0.7033
 IR Inten    --     14.6448                 1.1992                 3.0353

                     16                     17                     18
                      A                      A                      A
 Frequencies --    855.3008               918.7925               933.8819
 Red. masses --      2.1049                 1.7313                 1.9490
 Frc consts  --      0.9072                 0.8611                 1.0015
 IR Inten    --      4.6539                 0.7808                 3.7966

                     19                     20                     21
                      A                      A                      A
 Frequencies --    968.3312               987.7008              1013.6358
 Red. masses --      1.6971                 2.4851                 1.6719
 Frc consts  --      0.9376                 1.4284                 1.0121
 IR Inten    --     12.5221                19.7253                 0.5438

                     22                     23                     24
                      A                      A                      A
 Frequencies --   1032.4103              1078.4865              1088.3793
 Red. masses --      1.5804                 2.3730                 1.4405
 Frc consts  --      0.9925                 1.6262                 1.0054
 IR Inten    --     15.7091               138.9359                16.5215

                     25                     26                     27
                      A                      A                      A
 Frequencies --   1107.8811              1141.9200              1164.3775
 Red. masses --      1.6350                 2.7303                 1.8869
 Frc consts  --      1.1824                 2.0976                 1.5073
 IR Inten    --      0.6686                95.0549                14.5203

                     28                     29                     30
                      A                      A                      A
 Frequencies --   1222.6966              1230.3867              1246.3339
 Red. masses --      1.5379                 1.3045                 1.1021
 Frc consts  --      1.3546                 1.1635                 1.0086
 IR Inten    --      5.6373                 1.3326                 1.9934

                     31                     32                     33
                      A                      A                      A
 Frequencies --   1249.6148              1284.7721              1297.9864
 Red. masses --      1.4549                 1.6513                 1.6045
 Frc consts  --      1.3385                 1.6059                 1.5927
 IR Inten    --      0.8757                 5.2843                25.2477

                     34                     35                     36
                      A                      A                      A
 Frequencies --   1327.2798              1392.5893              1457.5294
 Red. masses --      2.0682                 2.5687                 1.3225
 Frc consts  --      2.1467                 2.9350                 1.6553
 IR Inten    --     46.6166               130.6191                70.2208

                     37                     38                     39
                      A                      A                      A
 Frequencies --   1473.4364              1482.3063              1494.0157
 Red. masses --      1.2534                 1.0877                 1.1084
 Frc consts  --      1.6033                 1.4082                 1.4576
 IR Inten    --      5.0999                 0.3811                15.6425

                     40                     41                     42
                      A                      A                      A
 Frequencies --   1504.8585              1752.7767              2965.1844
 Red. masses --      1.1631                10.7080                 1.0573
 Frc consts  --      1.5519                19.3826                 5.4774
 IR Inten    --      0.5419               142.3950                42.2434

                     43                     44                     45
                      A                      A                      A
 Frequencies --   2979.5331              3050.9607              3058.7224
 Red. masses --      1.1002                 1.0616                 1.0636
 Frc consts  --      5.7546                 5.8221                 5.8626
 IR Inten    --     28.3462                33.4893                51.9187

                     46                     47                     48
                      A                      A                      A
 Frequencies --   3105.9569              3112.2988              3123.8310
 Red. masses --      1.1033                 1.0588                 1.1031
 Frc consts  --      6.2711                 6.0425                 6.3424
 IR Inten    --      1.4871                13.9103                34.0774

                     49                     50                     51
                      A                      A                      A
 Frequencies --   3194.7815              3223.8869              3654.0407
 Red. masses --      1.0931                 1.1114                 1.0642
 Frc consts  --      6.5732                 6.8060                 8.3722
 IR Inten    --      7.5891                 2.2839                77.6056

 - Thermochemistry -
 -------------------
 Temperature   298.150 Kelvin.  Pressure   1.00000 Atm.
 Atom     1 has atomic number  8 and mass  15.99491

 Molecular mass:   126.06808 amu.
 Principal axes and moments of inertia in atomic units:
                           1         2         3
     Eigenvalues --   512.140761661.009621969.45518
           X            1.00000   0.00142   0.00027
           Y           -0.00142   0.99999   0.00517
           Z           -0.00027  -0.00518   0.99999
 This molecule is an asymmetric top.
 Rotational symmetry number  1.
 Warning -- assumption of classical behavior for rotation
           may cause significant error
 Rotational temperatures (Kelvin)      0.16912     0.05215     0.04398
 Rotational constants (GHZ):           3.52392     1.08653     0.91637
 Zero-point vibrational energy     416792.4 (Joules/Mol)
                                   99.61578 (Kcal/Mol)
 Warning -- explicit consideration of  11 degrees of freedom as
           vibrations may cause significant error
 Vibrational temperatures:     79.01   155.81   232.58   253.00   412.67
          (Kelvin)            475.13   526.47   606.28   663.93   725.74
                              821.02  1021.39  1114.39  1124.20  1148.13
                             1230.59  1321.94  1343.65  1393.21  1421.08
                             1458.39  1485.41  1551.70  1565.93  1593.99
                             1642.97  1675.28  1759.19  1770.25  1793.19
                             1797.91  1848.50  1867.51  1909.66  2003.62
                             2097.06  2119.94  2132.71  2149.55  2165.15
                             2521.85  4266.23  4286.88  4389.65  4400.81
                             4468.77  4477.90  4494.49  4596.57  4638.45
                             5257.34

 Zero-point correction=                           0.158748 (Hartree/Particle)
 Thermal correction to Energy=                    0.167364
 Thermal correction to Enthalpy=                  0.168308
 Thermal correction to Gibbs Free Energy=         0.125001
 Sum of electronic and zero-point Energies=           -423.016825
 Sum of electronic and thermal Energies=              -423.008208
 Sum of electronic and thermal Enthalpies=            -423.007264
 Sum of electronic and thermal Free Energies=         -423.050572

                     E (Thermal)             CV                S
                      KCal/Mol        Cal/Mol-Kelvin    Cal/Mol-Kelvin
 Total                  105.023             32.479             91.149
 Electronic               0.000              0.000              0.000
 Translational            0.889              2.981             40.409
 Rotational               0.889              2.981             28.906
 Vibrational            103.245             26.518             21.834
 Vibration     1          0.596              1.976              4.632
 Vibration     2          0.606              1.943              3.299
 Vibration     3          0.622              1.889              2.530
 Vibration     4          0.628              1.872              2.372
 Vibration     5          0.684              1.698              1.493
 Vibration     6          0.713              1.615              1.259
 Vibration     7          0.739              1.542              1.097
 Vibration     8          0.784              1.424              0.887
 Vibration     9          0.819              1.336              0.762
 Vibration    10          0.860              1.240              0.647
 Vibration    11          0.927              1.095              0.503

 Optimization completed.
    -- Stationary point found.
 Normal termination of Gaussian 09 at Tue Jan 28 08:55:56 2020.
