 Gaussian 09, Revision D.01,
 Gaussian 09:  ES64L-G09RevD.01 24-Apr-2013

 -----------------------------
 # b3lyp 6-31G(2df,p) opt Freq
 -----------------------------

 -----
 titel
 -----
 Symbolic Z-matrix:
 Charge =  0 Multiplicity = 1

 SCF Done:  E(RB3LYP) =  -423.209942631     A.U. after   13 cycles
 Optimization completed.
    -- Stationary point found.
 Normal termination of Gaussian 09 at Mon Jan 27 11:12:19 2020.

 ----------------------------------------------------------------------
 #N Geom=AllCheck Guess=TCheck SCRF=Check GenChk RB3LYP/6-31G(2df,p) Fr
 eq
 ----------------------------------------------------------------------

 Structure from the checkpoint file:  "/scratch/puck/g09_3fe0ce5b-c43d-4a78-93b1-6dce50cb3d35/Gau-94686.chk"
 -----
 titel
 -----
 Charge =  0 Multiplicity = 1

                         Standard orientation:
 ---------------------------------------------------------------------
 Center     Atomic      Atomic             Coordinates (Angstroms)
 Number     Number       Type             X           Y           Z
 ---------------------------------------------------------------------
      1          6           0       -3.557444   -0.557794   -0.212712
      2          8           0       -2.201738   -0.312678   -0.499635
      3          6           0       -1.532284    0.330508    0.572703
      4          6           0       -0.096273    0.506877    0.247979
      5          6           0        0.656074    1.586710   -0.093471
      6          6           0        1.993105    1.108821   -0.278896
      7          6           0        1.960946   -0.230957   -0.037150
      8          6           0        2.993391   -1.300054   -0.061082
      9          8           0        0.693281   -0.608641    0.289523
     10          1           0       -4.114785    0.375193   -0.028109
     11          1           0       -3.989022   -1.059163   -1.082243
     12          1           0       -3.679862   -1.206980    0.669468
     13          1           0       -1.973519    1.321067    0.767937
     14          1           0       -1.643465   -0.266853    1.493595
     15          1           0        0.299558    2.599273   -0.203357
     16          1           0        2.863081    1.683895   -0.555561
     17          1           0        3.095717   -1.783385    0.917300
     18          1           0        2.743615   -2.082317   -0.786801
     19          1           0        3.961242   -0.874853   -0.335557
 ---------------------------------------------------------------------

 SCF Done:  E(RB3LYP) =  -423.209942631     A.U. after    1 cycles

 The electronic state is 1-A.
 Alpha  occ. eigenvalues --  -19.19134 -19.13629 -10.23397 -10.22837 -10.22151
 Alpha  occ. eigenvalues --  -10.22147 -10.18862 -10.17442 -10.17099  -1.09651
 Alpha  occ. eigenvalues --   -1.02866  -0.78921  -0.78556  -0.73168  -0.67165
 Alpha  occ. eigenvalues --   -0.62942  -0.59025  -0.54095  -0.50190  -0.48457
 Alpha  occ. eigenvalues --   -0.46883  -0.44780  -0.44578  -0.41805  -0.40745
 Alpha  occ. eigenvalues --   -0.39510  -0.38192  -0.38013  -0.37361  -0.35149
 Alpha  occ. eigenvalues --   -0.31786  -0.26900  -0.25300  -0.21071
 Alpha virt. eigenvalues --    0.01531   0.07601   0.10166   0.11086   0.12360
 Alpha virt. eigenvalues --    0.14447   0.15513   0.16126   0.16449   0.16679
 Alpha virt. eigenvalues --    0.17898   0.18169   0.18664   0.20893   0.22077

 Mulliken charges:
               1
     1  C   -0.220039
     2  O   -0.231015
     3  C   -0.188259
     4  C    0.349528
     5  C   -0.257683
     6  C   -0.255483
     7  C    0.351196
     8  C   -0.493250
     9  O   -0.206443
    10  H    0.100625
    11  H    0.128016
    12  H    0.102618
    13  H    0.098016
    14  H    0.097750
    15  H    0.107966
    16  H    0.104640
    17  H    0.137027
    18  H    0.140554
    19  H    0.134236
 Sum of Mulliken charges =   0.00000

 Dipole moment (field-independent basis, Debye):
    X=              0.0696    Y=              0.3715    Z=              0.7751  Tot=              0.8624
 Quadrupole moment (field-independent basis, Debye-Ang):
   XX=            -43.6630   YY=            -50.9829   ZZ=            -54.8291
   XY=             -1.0186   XZ=             -2.4064   YZ=             -0.3252

  Exact polarizability: 109.709  -2.236  82.417  -4.766  -2.999  54.488
 Approx polarizability: 137.964  -0.279 131.325  -8.914  -7.406  84.269

                      1                      2                      3
                      A                      A                      A
 Frequencies --     52.8369                83.1919               100.4383
 Red. masses --      2.8855                 2.3182                 3.0870
 Frc consts  --      0.0047                 0.0095                 0.0183
 IR Inten    --      0.1580                 4.1997                 2.4926

                      4                      5                      6
                      A                      A                      A
 Frequencies --    132.3946               221.8188               228.3656
 Red. masses --      1.1655                 1.6110                 2.3660
 Frc consts  --      0.0120                 0.0467                 0.0727
 IR Inten    --      0.4254                 1.0442                 2.7276

                      7                      8                      9
                      A                      A                      A
 Frequencies --    266.2888               336.9690               378.7688
 Red. masses --      2.0916                 3.2090                 3.8642
 Frc consts  --      0.0874                 0.2147                 0.3266
 IR Inten    --      1.7496                 0.8125                 0.1247

                     10                     11                     12
                      A                      A                      A
 Frequencies --    401.8489               634.9085               642.3487
 Red. masses --      3.1194                 3.7233                 4.2975
 Frc consts  --      0.2968                 0.8843                 1.0447
 IR Inten    --      0.7602                 1.0302                 1.1047

                     13                     14                     15
                      A                      A                      A
 Frequencies --    672.8460               779.7312               798.4327
 Red. masses --      4.9504                 3.5487                 1.2277
 Frc consts  --      1.3204                 1.2712                 0.4611
 IR Inten    --      0.5280                 6.4132                37.4938

                     16                     17                     18
                      A                      A                      A
 Frequencies --    835.7771               943.7520               977.1567
 Red. masses --      1.3705                 2.4187                 4.0741
 Frc consts  --      0.5640                 1.2693                 2.2920
 IR Inten    --      5.0725                16.2905                27.5100

                     19                     20                     21
                      A                      A                      A
 Frequencies --    983.3328              1014.0492              1030.3420
 Red. masses --      2.6895                 2.1880                 1.9732
 Frc consts  --      1.5322                 1.3256                 1.2342
 IR Inten    --      0.9063                 0.7134                13.4831

                     22                     23                     24
                      A                      A                      A
 Frequencies --   1048.2123              1064.6410              1140.4150
 Red. masses --      1.5772                 1.4825                 7.4309
 Frc consts  --      1.0210                 0.9900                 5.6940
 IR Inten    --     28.9468                 1.7969               198.0458

                     25                     26                     27
                      A                      A                      A
 Frequencies --   1180.7776              1217.8235              1221.5682
 Red. masses --      1.2718                 1.5921                 1.4286
 Frc consts  --      1.0448                 1.3912                 1.2560
 IR Inten    --      3.7667                31.0753                 3.1456

                     28                     29                     30
                      A                      A                      A
 Frequencies --   1240.9959              1253.0398              1278.8326
 Red. masses --      3.5273                 2.7355                 1.5486
 Frc consts  --      3.2006                 2.5305                 1.4922
 IR Inten    --      4.2307                12.7608                 6.0272

                     31                     32                     33
                      A                      A                      A
 Frequencies --   1399.1764              1408.9632              1418.2497
 Red. masses --      2.4085                 1.3588                 1.4256
 Frc consts  --      2.7781                 1.5894                 1.6895
 IR Inten    --      0.5923                60.3306                20.3419

                     34                     35                     36
                      A                      A                      A
 Frequencies --   1472.7889              1476.9476              1484.0756
 Red. masses --      1.0428                 1.1637                 1.0480
 Frc consts  --      1.3326                 1.4956                 1.3600
 IR Inten    --      5.3897                 0.9836                 4.7574

                     37                     38                     39
                      A                      A                      A
 Frequencies --   1491.9471              1494.8956              1515.3593
 Red. masses --      1.1133                 1.0823                 1.0751
 Frc consts  --      1.4601                 1.4250                 1.4546
 IR Inten    --      2.3252                 5.8136                 3.3756

                     40                     41                     42
                      A                      A                      A
 Frequencies --   1598.7667              1658.2198              2954.8122
 Red. masses --      7.2110                 6.3666                 1.0516
 Frc consts  --     10.8597                10.3143                 5.4094
 IR Inten    --     32.3572                 2.7963                24.7370

                     43                     44                     45
                      A                      A                      A
 Frequencies --   2966.9415              2995.2582              3005.9368
 Red. masses --      1.0449                 1.0994                 1.1031
 Frc consts  --      5.4194                 5.8114                 5.8724
 IR Inten    --     93.6243                62.9690                42.1008

                     46                     47                     48
                      A                      A                      A
 Frequencies --   3030.6347              3080.9773              3115.2349
 Red. masses --      1.0381                 1.1001                 1.0952
 Frc consts  --      5.6175                 6.1527                 6.2621
 IR Inten    --     31.2560                14.6570                28.4052

                     49                     50                     51
                      A                      A                      A
 Frequencies --   3129.5024              3248.0108              3261.7297
 Red. masses --      1.0984                 1.0925                 1.1016
 Frc consts  --      6.3382                 6.7907                 6.9053
 IR Inten    --     10.2278                 6.9503                 1.4478

 - Thermochemistry -
 -------------------
 Temperature   298.150 Kelvin.  Pressure   1.00000 Atm.
 Atom     1 has atomic number  6 and mass  12.00000

 Molecular mass:   126.06808 amu.
 Principal axes and moments of inertia in atomic units:
                           1         2         3
     Eigenvalues --   435.898292088.118662395.28639
           X            0.99993  -0.00886  -0.00778
           Y            0.00884   0.99996  -0.00232
           Z            0.00780   0.00225   0.99997
 This molecule is an asymmetric top.
 Rotational symmetry number  1.
 Warning -- assumption of classical behavior for rotation
           may cause significant error
 Rotational temperatures (Kelvin)      0.19870     0.04148     0.03616
 Rotational constants (GHZ):           4.14028     0.86429     0.75346
 Zero-point vibrational energy     414926.7 (Joules/Mol)
                                   99.16987 (Kcal/Mol)
 Warning -- explicit consideration of  10 degrees of freedom as
           vibrations may cause significant error
 Vibrational temperatures:     76.02   119.69   144.51   190.49   319.15
          (Kelvin)            328.57   383.13   484.82   544.96   578.17
                              913.49   924.20   968.07  1121.86  1148.77
                             1202.50  1357.85  1405.91  1414.79  1458.99
                             1482.43  1508.14  1531.78  1640.80  1698.87
                             1752.17  1757.56  1785.51  1802.84  1839.95
                             2013.10  2027.18  2040.54  2119.01  2125.00
                             2135.25  2146.58  2150.82  2180.26  2300.27
                             2385.81  4251.31  4268.76  4309.50  4324.87
                             4360.40  4432.83  4482.12  4502.65  4673.16
                             4692.90

 Zero-point correction=                           0.158037 (Hartree/Particle)
 Thermal correction to Energy=                    0.167454
 Thermal correction to Enthalpy=                  0.168398
 Thermal correction to Gibbs Free Energy=         0.122824
 Sum of electronic and zero-point Energies=           -423.051905
 Sum of electronic and thermal Energies=              -423.042489
 Sum of electronic and thermal Enthalpies=            -423.041545
 Sum of electronic and thermal Free Energies=         -423.087119

                     E (Thermal)             CV                S
                      KCal/Mol        Cal/Mol-Kelvin    Cal/Mol-Kelvin
 Total                  105.079             33.229             95.919
 Electronic               0.000              0.000              0.000
 Translational            0.889              2.981             40.409
 Rotational               0.889              2.981             29.168
 Vibrational            103.301             27.268             26.342
 Vibration     1          0.596              1.976              4.708
 Vibration     2          0.600              1.961              3.814
 Vibration     3          0.604              1.949              3.446
 Vibration     4          0.613              1.921              2.911
 Vibration     5          0.648              1.808              1.944
 Vibration     6          0.651              1.798              1.892
 Vibration     7          0.672              1.735              1.620
 Vibration     8          0.718              1.602              1.226
 Vibration     9          0.749              1.515              1.044
 Vibration    10          0.767              1.466              0.956

 Optimization completed.
    -- Stationary point found.
 Normal termination of Gaussian 09 at Mon Jan 27 11:46:32 2020.
