 Gaussian 09, Revision D.01,
 Gaussian 09:  ES64L-G09RevD.01 24-Apr-2013

 -----------------------------
 # b3lyp 6-31G(2df,p) opt Freq
 -----------------------------

 -----
 titel
 -----
 Symbolic Z-matrix:
 Charge =  0 Multiplicity = 1

 SCF Done:  E(RB3LYP) =  -423.145151683     A.U. after   13 cycles
 Optimization completed.
    -- Stationary point found.
 Normal termination of Gaussian 09 at Mon Jan 27 12:17:10 2020.

 ----------------------------------------------------------------------
 #N Geom=AllCheck Guess=TCheck SCRF=Check GenChk RB3LYP/6-31G(2df,p) Fr
 eq
 ----------------------------------------------------------------------

 Structure from the checkpoint file:  "/scratch/puck/g09_231c2e20-8599-4a63-ae0c-c821ee9fd27d/Gau-35228.chk"
 -----
 titel
 -----
 Charge =  0 Multiplicity = 1

                         Standard orientation:
 ---------------------------------------------------------------------
 Center     Atomic      Atomic             Coordinates (Angstroms)
 Number     Number       Type             X           Y           Z
 ---------------------------------------------------------------------
      1          6           0       -2.019552    0.476125   -0.589643
      2          6           0       -1.888517   -0.702129    0.467519
      3          6           0       -0.371177   -0.435270    0.386656
      4          6           0        0.362804   -1.213386   -0.730307
      5          8           0        1.693859   -0.684136   -0.654339
      6          6           0        1.559300    0.330935    0.328853
      7          6           0        0.741980    1.511478   -0.355467
      8          6           0       -0.664876    0.994332   -0.003042
      9          8           0        0.710462   -0.270417    1.323569
     10          1           0       -1.970003    0.109022   -1.616129
     11          1           0       -2.881239    1.136442   -0.487199
     12          1           0       -2.321888   -0.416336    1.428040
     13          1           0       -2.243200   -1.695740    0.184540
     14          1           0        0.381174   -2.288110   -0.514071
     15          1           0       -0.059792   -1.058710   -1.728851
     16          1           0        2.531734    0.574036    0.753855
     17          1           0        0.957056    2.490475    0.078532
     18          1           0        1.002567    1.530541   -1.415036
     19          1           0       -0.950751    1.482294    0.935074
 ---------------------------------------------------------------------

 SCF Done:  E(RB3LYP) =  -423.145151683     A.U. after    1 cycles

 The electronic state is 1-A.
 Alpha  occ. eigenvalues --  -19.14358 -19.13681 -10.27700 -10.23453 -10.22706
 Alpha  occ. eigenvalues --  -10.20233 -10.20217 -10.18700 -10.18625  -1.08827
 Alpha  occ. eigenvalues --   -0.98565  -0.85804  -0.76109  -0.71145  -0.64655
 Alpha  occ. eigenvalues --   -0.62586  -0.59065  -0.55288  -0.50875  -0.48875
 Alpha  occ. eigenvalues --   -0.47137  -0.45249  -0.44500  -0.40768  -0.39490
 Alpha  occ. eigenvalues --   -0.38296  -0.36803  -0.35623  -0.34730  -0.33079
 Alpha  occ. eigenvalues --   -0.30752  -0.29938  -0.26081  -0.24583
 Alpha virt. eigenvalues --    0.07262   0.08345   0.10957   0.11150   0.12965
 Alpha virt. eigenvalues --    0.13013   0.14712   0.15347   0.15604   0.17170
 Alpha virt. eigenvalues --    0.17835   0.18817   0.19432   0.21322   0.22334

 Mulliken charges:
               1
     1  C   -0.300473
     2  C   -0.339420
     3  C    0.375569
     4  C   -0.133566
     5  O   -0.259783
     6  C    0.167485
     7  C   -0.340458
     8  C    0.059779
     9  O   -0.309665
    10  H    0.116943
    11  H    0.110196
    12  H    0.125257
    13  H    0.106471
    14  H    0.108252
    15  H    0.105121
    16  H    0.093315
    17  H    0.102420
    18  H    0.119513
    19  H    0.093045
 Sum of Mulliken charges =   0.00000

 Dipole moment (field-independent basis, Debye):
    X=             -1.8407    Y=              0.7993    Z=             -0.6383  Tot=              2.1058
 Quadrupole moment (field-independent basis, Debye-Ang):
   XX=            -52.9436   YY=            -51.7565   ZZ=            -55.4431
   XY=              3.1991   XZ=              0.6599   YZ=              1.2480

  Exact polarizability:  83.403   4.514  73.406   1.130   2.104  64.186
 Approx polarizability: 115.880   5.164 106.116   2.003   3.415 103.154

                      1                      2                      3
                      A                      A                      A
 Frequencies --    212.8665               273.0794               302.9333
 Red. masses --      2.7404                 2.1812                 2.6409
 Frc consts  --      0.0732                 0.0958                 0.1428
 IR Inten    --      1.1506                 1.0491                 1.5641

                      4                      5                      6
                      A                      A                      A
 Frequencies --    385.2661               444.0204               501.0801
 Red. masses --      2.2916                 3.2165                 2.8035
 Frc consts  --      0.2004                 0.3736                 0.4147
 IR Inten    --      1.1632                 2.6905                 1.9030

                      7                      8                      9
                      A                      A                      A
 Frequencies --    551.8392               630.4757               683.6708
 Red. masses --      4.7141                 5.4165                 2.5830
 Frc consts  --      0.8458                 1.2685                 0.7113
 IR Inten    --      7.3958                11.6155                 0.4053

                     10                     11                     12
                      A                      A                      A
 Frequencies --    736.8866               790.8617               799.1023
 Red. masses --      3.3525                 4.6950                 2.1183
 Frc consts  --      1.0725                 1.7302                 0.7970
 IR Inten    --      6.4532                 2.9177                14.6547

                     13                     14                     15
                      A                      A                      A
 Frequencies --    836.1422               846.9127               878.2210
 Red. masses --      2.7800                 2.1517                 2.8929
 Frc consts  --      1.1451                 0.9093                 1.3146
 IR Inten    --     10.6505                 4.4841                 8.4210

                     16                     17                     18
                      A                      A                      A
 Frequencies --    896.8622               926.4528               953.1817
 Red. masses --      2.1112                 2.3227                 2.5837
 Frc consts  --      1.0005                 1.1746                 1.3831
 IR Inten    --      7.8497                52.0708                33.8266

                     19                     20                     21
                      A                      A                      A
 Frequencies --    996.6034              1014.7142              1044.2450
 Red. masses --      1.7038                 4.8975                 2.5234
 Frc consts  --      0.9970                 2.9711                 1.6212
 IR Inten    --      2.0766                25.4018                75.0646

                     22                     23                     24
                      A                      A                      A
 Frequencies --   1077.5557              1103.0130              1139.6834
 Red. masses --      1.7257                 2.4935                 1.9051
 Frc consts  --      1.1806                 1.7874                 1.4579
 IR Inten    --     10.9245                20.0203                 0.4491

                     25                     26                     27
                      A                      A                      A
 Frequencies --   1157.5571              1171.6684              1190.4857
 Red. masses --      1.7067                 1.6730                 1.5087
 Frc consts  --      1.3474                 1.3532                 1.2598
 IR Inten    --      1.3682                14.0645                 4.4032

                     28                     29                     30
                      A                      A                      A
 Frequencies --   1210.0777              1222.4185              1243.9544
 Red. masses --      1.6709                 1.1838                 1.4797
 Frc consts  --      1.4415                 1.0422                 1.3491
 IR Inten    --      6.1168                 1.6254                18.9702

                     31                     32                     33
                      A                      A                      A
 Frequencies --   1256.1322              1276.0260              1282.1706
 Red. masses --      1.8548                 1.5635                 1.4734
 Frc consts  --      1.7243                 1.4999                 1.4271
 IR Inten    --      1.5423                 1.4128                 1.2812

                     34                     35                     36
                      A                      A                      A
 Frequencies --   1307.2815              1320.9964              1379.2374
 Red. masses --      1.5159                 1.4709                 1.5291
 Frc consts  --      1.5263                 1.5123                 1.7138
 IR Inten    --     12.0053                 8.1040                 1.8649

                     37                     38                     39
                      A                      A                      A
 Frequencies --   1417.2167              1483.2408              1489.5026
 Red. masses --      1.2227                 1.0995                 1.0960
 Frc consts  --      1.4469                 1.4251                 1.4327
 IR Inten    --      3.8908                 2.5126                 1.5795

                     40                     41                     42
                      A                      A                      A
 Frequencies --   1498.6536              1519.4499              3027.8557
 Red. masses --      1.1162                 1.0940                 1.0578
 Frc consts  --      1.4771                 1.4882                 5.7135
 IR Inten    --      1.9294                 2.7177                47.4849

                     43                     44                     45
                      A                      A                      A
 Frequencies --   3035.5338              3070.1000              3071.0397
 Red. masses --      1.0831                 1.0856                 1.0765
 Frc consts  --      5.8801                 6.0288                 5.9820
 IR Inten    --     10.0809                12.4803                49.9890

                     46                     47                     48
                      A                      A                      A
 Frequencies --   3073.3332              3086.2005              3127.9292
 Red. masses --      1.0605                 1.0604                 1.1093
 Frc consts  --      5.9018                 5.9505                 6.3945
 IR Inten    --     20.6509                46.4929                 7.9717

                     49                     50                     51
                      A                      A                      A
 Frequencies --   3128.9448              3144.9448              3146.3565
 Red. masses --      1.1063                 1.1081                 1.0932
 Frc consts  --      6.3812                 6.4571                 6.3762
 IR Inten    --     10.7139                35.9644                37.5288

 - Thermochemistry -
 -------------------
 Temperature   298.150 Kelvin.  Pressure   1.00000 Atm.
 Atom     1 has atomic number  6 and mass  12.00000

 Molecular mass:   126.06808 amu.
 Principal axes and moments of inertia in atomic units:
                           1         2         3
     Eigenvalues --   585.450451023.055131149.23751
           X            0.99938   0.03505   0.00434
           Y           -0.03517   0.99882   0.03364
           Z           -0.00316  -0.03377   0.99942
 This molecule is an asymmetric top.
 Rotational symmetry number  1.
 Warning -- assumption of classical behavior for rotation
           may cause significant error
 Rotational temperatures (Kelvin)      0.14794     0.08466     0.07537
 Rotational constants (GHZ):           3.08265     1.76407     1.57038
 Zero-point vibrational energy     426851.4 (Joules/Mol)
                                  102.01993 (Kcal/Mol)
 Warning -- explicit consideration of   7 degrees of freedom as
           vibrations may cause significant error
 Vibrational temperatures:    306.27   392.90   435.85   554.31   638.85
          (Kelvin)            720.94   793.97   907.11   983.65  1060.21
                             1137.87  1149.73  1203.02  1218.52  1263.56
                             1290.38  1332.96  1371.41  1433.89  1459.95
                             1502.43  1550.36  1586.99  1639.75  1665.46
                             1685.77  1712.84  1741.03  1758.79  1789.77
                             1807.29  1835.91  1844.76  1880.88  1900.62
                             1984.41  2039.06  2134.05  2143.06  2156.23
                             2186.15  4356.40  4367.45  4417.18  4418.54
                             4421.84  4440.35  4500.39  4501.85  4524.87
                             4526.90

 Zero-point correction=                           0.162579 (Hartree/Particle)
 Thermal correction to Energy=                    0.169063
 Thermal correction to Enthalpy=                  0.170007
 Thermal correction to Gibbs Free Energy=         0.132150
 Sum of electronic and zero-point Energies=           -422.982573
 Sum of electronic and thermal Energies=              -422.976089
 Sum of electronic and thermal Enthalpies=            -422.975145
 Sum of electronic and thermal Free Energies=         -423.013002

                     E (Thermal)             CV                S
                      KCal/Mol        Cal/Mol-Kelvin    Cal/Mol-Kelvin
 Total                  106.088             27.864             79.677
 Electronic               0.000              0.000              0.000
 Translational            0.889              2.981             40.409
 Rotational               0.889              2.981             28.023
 Vibrational            104.311             21.902             11.246
 Vibration     1          0.644              1.821              2.019
 Vibration     2          0.676              1.723              1.577
 Vibration     3          0.694              1.668              1.401
 Vibration     4          0.754              1.502              1.018
 Vibration     5          0.804              1.374              0.814
 Vibration     6          0.856              1.248              0.655
 Vibration     7          0.907              1.136              0.540

 Optimization completed.
    -- Stationary point found.
 Normal termination of Gaussian 09 at Mon Jan 27 13:06:18 2020.
