 Gaussian 09, Revision D.01,
 Gaussian 09:  ES64L-G09RevD.01 24-Apr-2013

 -----------------------------
 # b3lyp 6-31G(2df,p) opt Freq
 -----------------------------

 -----
 titel
 -----
 Symbolic Z-matrix:
 Charge =  0 Multiplicity = 1

 SCF Done:  E(RB3LYP) =  -423.169964064     A.U. after   14 cycles
 Optimization completed.
    -- Stationary point found.
 Normal termination of Gaussian 09 at Tue Jan 28 02:19:55 2020.

 ----------------------------------------------------------------------
 #N Geom=AllCheck Guess=TCheck SCRF=Check GenChk RB3LYP/6-31G(2df,p) Fr
 eq
 ----------------------------------------------------------------------

 Structure from the checkpoint file:  "/scratch/puck/g09_2a888dc2-9f46-4157-a520-1cc7f2d10f21/Gau-194286.chk"
 -----
 titel
 -----
 Charge =  0 Multiplicity = 1

                         Standard orientation:
 ---------------------------------------------------------------------
 Center     Atomic      Atomic             Coordinates (Angstroms)
 Number     Number       Type             X           Y           Z
 ---------------------------------------------------------------------
      1          8           0       -3.239376   -0.860551   -0.346024
      2          6           0       -2.239074   -0.214833    0.385626
      3          6           0       -2.036464    1.235795    0.080105
      4          6           0       -0.969222    0.225569   -0.304209
      5          6           0        0.357043    0.192611    0.402963
      6          6           0        1.248368   -1.081368    0.217272
      7          6           0        2.430883   -0.146896   -0.085112
      8          8           0        3.615192   -0.303039   -0.148109
      9          6           0        1.511210    1.080417   -0.174449
     10          1           0       -2.972375   -1.777319   -0.471271
     11          1           0       -2.157400   -0.523330    1.429035
     12          1           0       -2.642959    1.648478   -0.717689
     13          1           0       -1.837606    1.913808    0.903385
     14          1           0       -0.930510   -0.013222   -1.365408
     15          1           0        0.215199    0.404688    1.467289
     16          1           0        1.371001   -1.760684    1.064540
     17          1           0        0.970860   -1.671973   -0.663917
     18          1           0        1.822845    1.963232    0.389206
     19          1           0        1.337955    1.377273   -1.215279
 ---------------------------------------------------------------------

 SCF Done:  E(RB3LYP) =  -423.169964064     A.U. after    1 cycles

 The electronic state is 1-A.
 Alpha  occ. eigenvalues --  -19.14681 -19.13592 -10.27036 -10.23960 -10.20704
 Alpha  occ. eigenvalues --  -10.19642 -10.19378 -10.19258 -10.18838  -1.04489
 Alpha  occ. eigenvalues --   -1.03177  -0.86815  -0.83224  -0.68426  -0.66280
 Alpha  occ. eigenvalues --   -0.59958  -0.57866  -0.53254  -0.52913  -0.49873
 Alpha  occ. eigenvalues --   -0.46581  -0.45014  -0.43443  -0.41348  -0.40638
 Alpha  occ. eigenvalues --   -0.39109  -0.37570  -0.36370  -0.35909  -0.33716
 Alpha  occ. eigenvalues --   -0.31954  -0.28525  -0.25891  -0.23930
 Alpha virt. eigenvalues --   -0.01946   0.07598   0.08558   0.09111   0.11251
 Alpha virt. eigenvalues --    0.12025   0.13289   0.14650   0.15352   0.16209
 Alpha virt. eigenvalues --    0.17697   0.18331   0.19700   0.19989   0.23475

 Mulliken charges:
               1
     1  O   -0.420346
     2  C    0.094764
     3  C   -0.306498
     4  C   -0.049774
     5  C    0.010611
     6  C   -0.366449
     7  C    0.403378
     8  O   -0.288620
     9  C   -0.360449
    10  H    0.285555
    11  H    0.083659
    12  H    0.126055
    13  H    0.112895
    14  H    0.084892
    15  H    0.077437
    16  H    0.127747
    17  H    0.125861
    18  H    0.128683
    19  H    0.130598
 Sum of Mulliken charges =   0.00000

 Dipole moment (field-independent basis, Debye):
    X=             -1.7432    Y=             -0.3688    Z=              0.4482  Tot=              1.8373
 Quadrupole moment (field-independent basis, Debye-Ang):
   XX=            -75.2525   YY=            -48.2528   ZZ=            -50.4821
   XY=              3.3012   XZ=              0.3388   YZ=              0.6209

  Exact polarizability:  92.918  -0.804  75.856  -0.306  -0.334  62.072
 Approx polarizability: 123.781  -1.623 110.471  -0.743   0.353  96.920

                      1                      2                      3
                      A                      A                      A
 Frequencies --     48.8721                65.6610               123.3620
 Red. masses --      4.9212                 3.4134                 3.3266
 Frc consts  --      0.0069                 0.0087                 0.0298
 IR Inten    --      6.3027                 2.5700                 1.5619

                      4                      5                      6
                      A                      A                      A
 Frequencies --    214.7300               289.1522               327.6453
 Red. masses --      2.9348                 2.4678                 1.8289
 Frc consts  --      0.0797                 0.1216                 0.1157
 IR Inten    --      0.4888                28.4342                53.1138

                      7                      8                      9
                      A                      A                      A
 Frequencies --    353.0707               413.0965               424.9653
 Red. masses --      2.3639                 2.7776                 1.8470
 Frc consts  --      0.1736                 0.2793                 0.1965
 IR Inten    --     23.6109                10.9097                 3.2953

                     10                     11                     12
                      A                      A                      A
 Frequencies --    447.0551               502.0822               662.3844
 Red. masses --      2.9282                 2.5765                 1.4033
 Frc consts  --      0.3448                 0.3827                 0.3628
 IR Inten    --      9.7425                 0.5137                 0.0328

                     13                     14                     15
                      A                      A                      A
 Frequencies --    667.8713               745.6615               835.1446
 Red. masses --      3.3162                 2.1210                 2.0763
 Frc consts  --      0.8715                 0.6948                 0.8532
 IR Inten    --      2.4201                 2.7171                 6.0775

                     16                     17                     18
                      A                      A                      A
 Frequencies --    879.8943               907.7742               927.3623
 Red. masses --      2.0742                 2.6665                 3.0665
 Frc consts  --      0.9461                 1.2946                 1.5538
 IR Inten    --      5.6570                11.9533                16.9140

                     19                     20                     21
                      A                      A                      A
 Frequencies --    935.9756               962.1004              1007.2646
 Red. masses --      1.4414                 2.1795                 2.1899
 Frc consts  --      0.7440                 1.1886                 1.3091
 IR Inten    --      1.4952                11.6434                15.7051

                     22                     23                     24
                      A                      A                      A
 Frequencies --   1019.7177              1056.4639              1095.5710
 Red. masses --      2.1181                 1.3627                 1.6081
 Frc consts  --      1.2976                 0.8961                 1.1373
 IR Inten    --      0.9340                 3.7452                18.7970

                     25                     26                     27
                      A                      A                      A
 Frequencies --   1110.6363              1112.4033              1144.5456
 Red. masses --      1.5109                 2.3433                 1.7553
 Frc consts  --      1.0980                 1.7085                 1.3548
 IR Inten    --      3.4802                43.1210                 1.0200

                     28                     29                     30
                      A                      A                      A
 Frequencies --   1188.6091              1191.1786              1222.4029
 Red. masses --      2.1448                 1.4127                 1.8119
 Frc consts  --      1.7854                 1.1810                 1.5952
 IR Inten    --     15.5355                 2.5189                63.0168

                     31                     32                     33
                      A                      A                      A
 Frequencies --   1227.1488              1240.3264              1259.6026
 Red. masses --      1.7121                 1.6847                 1.3116
 Frc consts  --      1.5191                 1.5270                 1.2260
 IR Inten    --      0.1677                 0.9455                 6.8055

                     34                     35                     36
                      A                      A                      A
 Frequencies --   1291.4684              1305.1746              1391.9374
 Red. masses --      1.2270                 1.2787                 1.4345
 Frc consts  --      1.2058                 1.2834                 1.6375
 IR Inten    --     41.1228                56.8846                 9.3282

                     37                     38                     39
                      A                      A                      A
 Frequencies --   1427.0446              1441.4690              1448.9328
 Red. masses --      1.0892                 1.2548                 1.1544
 Frc consts  --      1.3069                 1.5361                 1.4280
 IR Inten    --     13.6107                 3.1419                 2.6822

                     40                     41                     42
                      A                      A                      A
 Frequencies --   1496.2692              1894.7675              3044.1565
 Red. masses --      1.8311                12.5972                 1.0612
 Frc consts  --      2.4154                26.6463                 5.7941
 IR Inten    --     18.8099               301.0150                 8.6853

                     43                     44                     45
                      A                      A                      A
 Frequencies --   3049.9059              3055.7081              3086.2609
 Red. masses --      1.0669                 1.0804                 1.0871
 Frc consts  --      5.8472                 5.9436                 6.1008
 IR Inten    --      2.1449                13.1651                31.7075

                     46                     47                     48
                      A                      A                      A
 Frequencies --   3110.5700              3112.1811              3128.7878
 Red. masses --      1.1017                 1.1026                 1.0871
 Frc consts  --      6.2807                 6.2919                 6.2699
 IR Inten    --     10.2485                10.5298                17.6498

                     49                     50                     51
                      A                      A                      A
 Frequencies --   3137.2422              3228.4814              3804.5428
 Red. masses --      1.0559                 1.1164                 1.0661
 Frc consts  --      6.1230                 6.8560                 9.0921
 IR Inten    --      8.4027                 5.6879                17.8563

 - Thermochemistry -
 -------------------
 Temperature   298.150 Kelvin.  Pressure   1.00000 Atm.
 Atom     1 has atomic number  8 and mass  15.99491

 Molecular mass:   126.06808 amu.
 Principal axes and moments of inertia in atomic units:
                           1         2         3
     Eigenvalues --   365.755862387.283692616.64599
           X            1.00000  -0.00005   0.00002
           Y            0.00005   0.99998  -0.00641
           Z           -0.00002   0.00641   0.99998
 This molecule is an asymmetric top.
 Rotational symmetry number  1.
 Rotational temperatures (Kelvin)      0.23681     0.03628     0.03310
 Rotational constants (GHZ):           4.93428     0.75598     0.68972
 Zero-point vibrational energy     413098.2 (Joules/Mol)
                                   98.73285 (Kcal/Mol)
 Warning -- explicit consideration of  11 degrees of freedom as
           vibrations may cause significant error
 Vibrational temperatures:     70.32    94.47   177.49   308.95   416.03
          (Kelvin)            471.41   507.99   594.35   611.43   643.21
                              722.38   953.02   960.92  1072.84  1201.59
                             1265.97  1306.08  1334.27  1346.66  1384.25
                             1449.23  1467.14  1520.01  1576.28  1597.96
                             1600.50  1646.74  1710.14  1713.84  1758.76
                             1765.59  1784.55  1812.28  1858.13  1877.85
                             2002.68  2053.20  2073.95  2084.69  2152.79
                             2726.14  4379.86  4388.13  4396.48  4440.44
                             4475.41  4477.73  4501.62  4513.79  4645.06
                             5473.88

 Zero-point correction=                           0.157341 (Hartree/Particle)
 Thermal correction to Energy=                    0.166302
 Thermal correction to Enthalpy=                  0.167246
 Thermal correction to Gibbs Free Energy=         0.122777
 Sum of electronic and zero-point Energies=           -423.012623
 Sum of electronic and thermal Energies=              -423.003662
 Sum of electronic and thermal Enthalpies=            -423.002718
 Sum of electronic and thermal Free Energies=         -423.047187

                     E (Thermal)             CV                S
                      KCal/Mol        Cal/Mol-Kelvin    Cal/Mol-Kelvin
 Total                  104.356             33.544             93.594
 Electronic               0.000              0.000              0.000
 Translational            0.889              2.981             40.409
 Rotational               0.889              2.981             29.215
 Vibrational            102.579             27.582             23.971
 Vibration     1          0.595              1.978              4.863
 Vibration     2          0.597              1.971              4.279
 Vibration     3          0.610              1.930              3.047
 Vibration     4          0.645              1.819              2.003
 Vibration     5          0.686              1.694              1.479
 Vibration     6          0.711              1.620              1.272
 Vibration     7          0.729              1.569              1.152
 Vibration     8          0.777              1.442              0.916
 Vibration     9          0.787              1.416              0.875
 Vibration    10          0.806              1.367              0.805
 Vibration    11          0.857              1.245              0.653

 Optimization completed.
    -- Stationary point found.
 Normal termination of Gaussian 09 at Tue Jan 28 02:57:45 2020.
