 Gaussian 09, Revision D.01,
 Gaussian 09:  ES64L-G09RevD.01 24-Apr-2013

 -----------------------------
 # b3lyp 6-31G(2df,p) opt Freq
 -----------------------------

 -----
 titel
 -----
 Symbolic Z-matrix:
 Charge =  0 Multiplicity = 1

 SCF Done:  E(RB3LYP) =  -423.172924601     A.U. after   14 cycles
 Optimization completed.
    -- Stationary point found.
 Normal termination of Gaussian 09 at Mon Jan 27 17:13:58 2020.

 ----------------------------------------------------------------------
 #N Geom=AllCheck Guess=TCheck SCRF=Check GenChk RB3LYP/6-31G(2df,p) Fr
 eq
 ----------------------------------------------------------------------

 Structure from the checkpoint file:  "/scratch/puck/g09_37c91db6-8fef-4b73-8cd4-f76a66f529de/Gau-39584.chk"
 -----
 titel
 -----
 Charge =  0 Multiplicity = 1

                         Standard orientation:
 ---------------------------------------------------------------------
 Center     Atomic      Atomic             Coordinates (Angstroms)
 Number     Number       Type             X           Y           Z
 ---------------------------------------------------------------------
      1          6           0       -2.975653   -0.550576   -0.000045
      2          6           0       -1.537290   -0.113140   -0.000056
      3          6           0       -0.451238   -0.433516   -1.080755
      4          6           0        0.233554    0.437717    0.000043
      5          6           0       -0.996308    1.358031   -0.002672
      6          6           0       -0.452647   -0.429106    1.083422
      7          8           0        1.552471    0.945325    0.000178
      8          6           0        2.557417    0.053604   -0.000182
      9          8           0        2.453183   -1.141258    0.000113
     10          1           0       -3.500005   -0.178404   -0.886655
     11          1           0       -3.052924   -1.642913    0.002532
     12          1           0       -3.501257   -0.174145    0.884023
     13          1           0       -0.117627   -1.469028   -1.154631
     14          1           0       -0.592755    0.029005   -2.061436
     15          1           0       -1.172495    1.945270    0.902411
     16          1           0       -1.171250    1.941649   -0.910336
     17          1           0       -0.119184   -1.464354    1.161905
     18          1           0       -0.595477    0.037348    2.062040
     19          1           0        3.510725    0.604948   -0.000717
 ---------------------------------------------------------------------

 SCF Done:  E(RB3LYP) =  -423.172924601     A.U. after    1 cycles

 The electronic state is 1-A.
 Alpha  occ. eigenvalues --  -19.19107 -19.13417 -10.30933 -10.25898 -10.21491
 Alpha  occ. eigenvalues --  -10.19105 -10.18819 -10.18818 -10.18264  -1.10705
 Alpha  occ. eigenvalues --   -1.02413  -0.92134  -0.73530  -0.68431  -0.67518
 Alpha  occ. eigenvalues --   -0.67220  -0.54327  -0.54135  -0.51427  -0.47671
 Alpha  occ. eigenvalues --   -0.46491  -0.45711  -0.45111  -0.41920  -0.41283
 Alpha  occ. eigenvalues --   -0.40118  -0.35882  -0.35315  -0.33866  -0.32019
 Alpha  occ. eigenvalues --   -0.31529  -0.30624  -0.28795  -0.27654
 Alpha virt. eigenvalues --    0.00657   0.09015   0.11364   0.12658   0.14152
 Alpha virt. eigenvalues --    0.14273   0.15030   0.15321   0.15725   0.16392
 Alpha virt. eigenvalues --    0.16908   0.17263   0.17500   0.18618   0.23232

 Mulliken charges:
               1
     1  C   -0.505622
     2  C    0.316694
     3  C   -0.308383
     4  C    0.461201
     5  C   -0.317179
     6  C   -0.308460
     7  O   -0.264249
     8  C    0.147923
     9  O   -0.298645
    10  H    0.121715
    11  H    0.124332
    12  H    0.121714
    13  H    0.114262
    14  H    0.091856
    15  H    0.094910
    16  H    0.094912
    17  H    0.114182
    18  H    0.091869
    19  H    0.106969
 Sum of Mulliken charges =   0.00000

 Dipole moment (field-independent basis, Debye):
    X=             -1.4187    Y=              1.1973    Z=             -0.0008  Tot=              1.8564
 Quadrupole moment (field-independent basis, Debye-Ang):
   XX=            -52.0177   YY=            -56.1358   ZZ=            -51.9207
   XY=              4.0731   XZ=             -0.0023   YZ=             -0.0001

  Exact polarizability:  90.699  -1.009  73.169  -0.003  -0.001  66.671
 Approx polarizability: 113.232  -3.236 120.477  -0.003   0.000 100.939

                      1                      2                      3
                      A                      A                      A
 Frequencies --     65.8561               139.2084               192.3262
 Red. masses --      4.7548                 5.1926                 2.6512
 Frc consts  --      0.0122                 0.0593                 0.0578
 IR Inten    --      0.8335                 3.2596                 4.9456

                      4                      5                      6
                      A                      A                      A
 Frequencies --    210.2616               253.8788               297.9181
 Red. masses --      1.0350                 3.8975                 2.4889
 Frc consts  --      0.0270                 0.1480                 0.1302
 IR Inten    --      0.0216                 3.5880                 5.1514

                      7                      8                      9
                      A                      A                      A
 Frequencies --    386.4301               443.3717               545.4708
 Red. masses --      2.9324                 3.2143                 2.5591
 Frc consts  --      0.2580                 0.3723                 0.4486
 IR Inten    --      2.2714                 8.4196                 1.5549

                     10                     11                     12
                      A                      A                      A
 Frequencies --    553.1611               558.8119               633.8019
 Red. masses --      3.1264                 1.8540                 3.0063
 Frc consts  --      0.5636                 0.3411                 0.7115
 IR Inten    --      1.1525                 0.3078                 0.3462

                     13                     14                     15
                      A                      A                      A
 Frequencies --    749.4703               763.5529               828.6642
 Red. masses --      3.5350                 2.9326                 5.5382
 Frc consts  --      1.1699                 1.0073                 2.2406
 IR Inten    --      2.2186                 1.4034                11.3791

                     16                     17                     18
                      A                      A                      A
 Frequencies --    932.5804               964.0847               974.4488
 Red. masses --      4.9447                 1.2334                 1.5411
 Frc consts  --      2.5338                 0.6754                 0.8622
 IR Inten    --     15.8663                 0.0004                 0.0082

                     19                     20                     21
                      A                      A                      A
 Frequencies --    985.6248               986.3611              1045.0041
 Red. masses --      1.0247                 1.4405                 1.6489
 Frc consts  --      0.5865                 0.8257                 1.0609
 IR Inten    --      0.0273                 1.9470                 0.4551

                     22                     23                     24
                      A                      A                      A
 Frequencies --   1069.6348              1091.3288              1096.2303
 Red. masses --      2.1859                 1.8842                 1.8315
 Frc consts  --      1.4735                 1.3222                 1.2968
 IR Inten    --     12.3780                 3.1811                 1.8670

                     25                     26                     27
                      A                      A                      A
 Frequencies --   1131.5549              1137.2992              1175.8633
 Red. masses --      1.3219                 1.3492                 1.5218
 Frc consts  --      0.9972                 1.0282                 1.2397
 IR Inten    --      0.1766                 1.2509                 0.3849

                     28                     29                     30
                      A                      A                      A
 Frequencies --   1176.3674              1199.1437              1216.1621
 Red. masses --      1.7762                 5.0149                 2.6497
 Frc consts  --      1.4482                 4.2487                 2.3090
 IR Inten    --     53.1275               320.1230                 0.9610

                     31                     32                     33
                      A                      A                      A
 Frequencies --   1224.5497              1265.5203              1343.1140
 Red. masses --      2.8462                 2.5154                 3.0249
 Frc consts  --      2.5146                 2.3735                 3.2151
 IR Inten    --     15.1195               245.8594                 1.8494

                     34                     35                     36
                      A                      A                      A
 Frequencies --   1414.6741              1416.9233              1490.6081
 Red. masses --      1.2131                 1.3256                 1.0493
 Frc consts  --      1.4304                 1.5681                 1.3736
 IR Inten    --      2.0416                 1.2056                 3.6792

                     37                     38                     39
                      A                      A                      A
 Frequencies --   1491.0151              1497.1953              1498.7191
 Red. masses --      1.0490                 1.0985                 1.1019
 Frc consts  --      1.3739                 1.4508                 1.4583
 IR Inten    --      3.5500                 1.3666                 1.4402

                     40                     41                     42
                      A                      A                      A
 Frequencies --   1563.4027              1821.2375              3027.0852
 Red. masses --      1.2507                 9.6962                 1.0896
 Frc consts  --      1.8012                18.9489                 5.8827
 IR Inten    --      6.7960               228.4391                90.3503

                     43                     44                     45
                      A                      A                      A
 Frequencies --   3030.0148              3051.7437              3058.9051
 Red. masses --      1.0358                 1.0544                 1.0562
 Frc consts  --      5.6030                 5.7856                 5.8226
 IR Inten    --     20.5898                38.8944                60.4716

                     46                     47                     48
                      A                      A                      A
 Frequencies --   3066.4715              3097.6117              3099.2421
 Red. masses --      1.0580                 1.1011                 1.1011
 Frc consts  --      5.8614                 6.2251                 6.2316
 IR Inten    --      0.9813                16.9249                16.9205

                     49                     50                     51
                      A                      A                      A
 Frequencies --   3120.7470              3140.1121              3143.9691
 Red. masses --      1.1115                 1.1100                 1.1081
 Frc consts  --      6.3776                 6.4486                 6.4534
 IR Inten    --     30.7930                10.5917                34.4334

 - Thermochemistry -
 -------------------
 Temperature   298.150 Kelvin.  Pressure   1.00000 Atm.
 Atom     1 has atomic number  6 and mass  12.00000

 Molecular mass:   126.06808 amu.
 Principal axes and moments of inertia in atomic units:
                           1         2         3
     Eigenvalues --   448.198651632.809001776.68033
           X            0.99992   0.01241  -0.00001
           Y           -0.01241   0.99992  -0.00001
           Z            0.00001   0.00001   1.00000
 This molecule is an asymmetric top.
 Rotational symmetry number  1.
 Warning -- assumption of classical behavior for rotation
           may cause significant error
 Rotational temperatures (Kelvin)      0.19325     0.05305     0.04875
 Rotational constants (GHZ):           4.02665     1.10530     1.01579
 Zero-point vibrational energy     416699.6 (Joules/Mol)
                                   99.59360 (Kcal/Mol)
 Warning -- explicit consideration of  11 degrees of freedom as
           vibrations may cause significant error
 Vibrational temperatures:     94.75   200.29   276.71   302.52   365.27
          (Kelvin)            428.64   555.99   637.91   784.81   795.87
                              804.00   911.90  1078.32  1098.58  1192.26
                             1341.77  1387.10  1402.01  1418.09  1419.15
                             1503.53  1538.96  1570.18  1577.23  1628.05
                             1636.32  1691.80  1692.53  1725.30  1749.78
                             1761.85  1820.80  1932.44  2035.40  2038.63
                             2144.65  2145.24  2154.13  2156.32  2249.38
                             2620.35  4355.29  4359.51  4390.77  4401.08
                             4411.96  4456.77  4459.11  4490.05  4517.92
                             4523.46

 Zero-point correction=                           0.158712 (Hartree/Particle)
 Thermal correction to Energy=                    0.167092
 Thermal correction to Enthalpy=                  0.168037
 Thermal correction to Gibbs Free Energy=         0.125596
 Sum of electronic and zero-point Energies=           -423.014212
 Sum of electronic and thermal Energies=              -423.005832
 Sum of electronic and thermal Enthalpies=            -423.004888
 Sum of electronic and thermal Free Energies=         -423.047329

                     E (Thermal)             CV                S
                      KCal/Mol        Cal/Mol-Kelvin    Cal/Mol-Kelvin
 Total                  104.852             31.944             89.324
 Electronic               0.000              0.000              0.000
 Translational            0.889              2.981             40.409
 Rotational               0.889              2.981             28.654
 Vibrational            103.075             25.983             20.261
 Vibration     1          0.597              1.971              4.274
 Vibration     2          0.615              1.914              2.815
 Vibration     3          0.634              1.851              2.205
 Vibration     4          0.642              1.825              2.041
 Vibration     5          0.665              1.756              1.703
 Vibration     6          0.691              1.678              1.429
 Vibration     7          0.755              1.499              1.014
 Vibration     8          0.803              1.376              0.816
 Vibration     9          0.901              1.150              0.554
 Vibration    10          0.909              1.133              0.538
 Vibration    11          0.914              1.120              0.526

 Normal termination of Gaussian 09 at Mon Jan 27 17:58:48 2020.
