 Gaussian 09, Revision D.01,
 Gaussian 09:  ES64L-G09RevD.01 24-Apr-2013

 -----------------------------
 # b3lyp 6-31G(2df,p) opt Freq
 -----------------------------

 -----
 titel
 -----
 Symbolic Z-matrix:
 Charge =  0 Multiplicity = 1

 SCF Done:  E(RB3LYP) =  -423.202595179     A.U. after   14 cycles
 Optimization completed.
    -- Stationary point found.
 Normal termination of Gaussian 09 at Mon Jan 27 13:55:08 2020.

 ----------------------------------------------------------------------
 #N Geom=AllCheck Guess=TCheck SCRF=Check GenChk RB3LYP/6-31G(2df,p) Fr
 eq
 ----------------------------------------------------------------------

 Structure from the checkpoint file:  "/scratch/puck/g09_c63ea73e-d52f-4741-93d6-b57e90dd6838/Gau-23245.chk"
 -----
 titel
 -----
 Charge =  0 Multiplicity = 1

                         Standard orientation:
 ---------------------------------------------------------------------
 Center     Atomic      Atomic             Coordinates (Angstroms)
 Number     Number       Type             X           Y           Z
 ---------------------------------------------------------------------
      1          6           0       -3.986548   -0.852462    0.078177
      2          6           0       -2.632957   -0.319064    0.113444
      3          6           0       -1.510005    0.112482    0.144520
      4          6           0       -0.169248    0.680811    0.191163
      5          6           0       -0.042187    1.978554   -0.610679
      6          8           0        0.747384   -0.313456   -0.350843
      7          6           0        1.996564   -0.318850    0.162381
      8          6           0        2.823022   -1.408144   -0.478462
      9          8           0        2.383692    0.443067    1.013305
     10          1           0       -4.006046   -1.839000   -0.397689
     11          1           0       -4.398856   -0.962326    1.087070
     12          1           0       -4.658144   -0.198189   -0.488245
     13          1           0        0.132602    0.866324    1.226428
     14          1           0       -0.264742    1.796496   -1.664984
     15          1           0       -0.747501    2.721080   -0.228165
     16          1           0        0.971647    2.373691   -0.513250
     17          1           0        3.828941   -1.393535   -0.060864
     18          1           0        2.357635   -2.381939   -0.302187
     19          1           0        2.864003   -1.259449   -1.561077
 ---------------------------------------------------------------------

 SCF Done:  E(RB3LYP) =  -423.202595179     A.U. after    1 cycles

 The electronic state is 1-A.
 Alpha  occ. eigenvalues --  -19.17733 -19.12299 -10.30564 -10.26052 -10.20746
 Alpha  occ. eigenvalues --  -10.19257 -10.18212 -10.18152 -10.17136  -1.09625
 Alpha  occ. eigenvalues --   -1.01072  -0.80528  -0.77076  -0.73847  -0.69760
 Alpha  occ. eigenvalues --   -0.64628  -0.56611  -0.51775  -0.48383  -0.47000
 Alpha  occ. eigenvalues --   -0.46006  -0.43894  -0.43088  -0.42985  -0.42383
 Alpha  occ. eigenvalues --   -0.40829  -0.39701  -0.38353  -0.36423  -0.34698
 Alpha  occ. eigenvalues --   -0.30109  -0.27603  -0.25845  -0.25111
 Alpha virt. eigenvalues --    0.01618   0.04001   0.05596   0.10723   0.10901
 Alpha virt. eigenvalues --    0.12657   0.14405   0.15001   0.16605   0.17143
 Alpha virt. eigenvalues --    0.17427   0.17870   0.18475   0.20449   0.21894

 Mulliken charges:
               1
     1  C   -0.499142
     2  C    0.087625
     3  C    0.074605
     4  C   -0.059798
     5  C   -0.398514
     6  O   -0.248717
     7  C    0.439972
     8  C   -0.477527
     9  O   -0.356159
    10  H    0.153598
    11  H    0.151038
    12  H    0.150484
    13  H    0.135376
    14  H    0.130098
    15  H    0.129846
    16  H    0.138174
    17  H    0.147147
    18  H    0.152041
    19  H    0.149852
 Sum of Mulliken charges =   0.00000

 Dipole moment (field-independent basis, Debye):
    X=             -1.6079    Y=             -0.9107    Z=             -1.2389  Tot=              2.2248
 Quadrupole moment (field-independent basis, Debye-Ang):
   XX=            -46.6298   YY=            -50.2202   ZZ=            -54.4980
   XY=             -2.1924   XZ=             -4.5417   YZ=             -1.0920

  Exact polarizability: 114.595   6.247  72.522   1.020   2.295  60.512
 Approx polarizability: 151.214  17.910 101.578   7.223   8.497  93.807

                      1                      2                      3
                      A                      A                      A
 Frequencies --     20.9154                43.0328                59.6924
 Red. masses --      1.0209                 5.2747                 1.4220
 Frc consts  --      0.0003                 0.0058                 0.0030
 IR Inten    --      0.0014                 1.2915                 1.2575

                      4                      5                      6
                      A                      A                      A
 Frequencies --     80.6646               121.5885               137.4382
 Red. masses --      2.1174                 3.0744                 3.1580
 Frc consts  --      0.0081                 0.0268                 0.0351
 IR Inten    --      0.7513                 4.4800                 1.7280

                      7                      8                      9
                      A                      A                      A
 Frequencies --    218.4532               254.5846               289.6280
 Red. masses --      2.2961                 1.3647                 3.2624
 Frc consts  --      0.0646                 0.0521                 0.1612
 IR Inten    --      5.6155                 1.8494                 2.1355

                     10                     11                     12
                      A                      A                      A
 Frequencies --    329.1787               374.0768               399.8624
 Red. masses --      4.3671                 3.6602                 3.9064
 Frc consts  --      0.2788                 0.3018                 0.3680
 IR Inten    --      3.8814                 5.7445                 2.3426

                     13                     14                     15
                      A                      A                      A
 Frequencies --    528.6238               541.6359               612.4176
 Red. masses --      3.5083                 5.3092                 2.7477
 Frc consts  --      0.5776                 0.9177                 0.6072
 IR Inten    --      3.6797                 4.1012                 7.2475

                     16                     17                     18
                      A                      A                      A
 Frequencies --    619.4024               759.2118               855.4260
 Red. masses --      4.8678                 2.9000                 2.7512
 Frc consts  --      1.1003                 0.9849                 1.1862
 IR Inten    --      5.6498                 3.6563                13.8187

                     19                     20                     21
                      A                      A                      A
 Frequencies --    958.4080               997.1617              1032.8642
 Red. masses --      5.1711                 2.2063                 1.9637
 Frc consts  --      2.7985                 1.2926                 1.2343
 IR Inten    --     20.0781                 7.4145                71.6374

                     22                     23                     24
                      A                      A                      A
 Frequencies --   1051.5830              1053.4616              1064.1972
 Red. masses --      1.4181                 1.4236                 1.8127
 Frc consts  --      0.9239                 0.9308                 1.2095
 IR Inten    --      1.8811                 7.2650                 5.7822

                     25                     26                     27
                      A                      A                      A
 Frequencies --   1075.1792              1112.6866              1197.2363
 Red. masses --      2.1097                 2.1181                 2.2614
 Frc consts  --      1.4369                 1.5450                 1.9098
 IR Inten    --    114.4465                 4.7639                50.8020

                     28                     29                     30
                      A                      A                      A
 Frequencies --   1263.5028              1355.3268              1364.1497
 Red. masses --      3.3034                 1.6605                 1.2101
 Frc consts  --      3.1071                 1.7971                 1.3267
 IR Inten    --    417.8927                21.8815                 1.6115

                     31                     32                     33
                      A                      A                      A
 Frequencies --   1396.7742              1398.9335              1414.4402
 Red. masses --      1.4210                 1.2391                 1.2488
 Frc consts  --      1.6334                 1.4288                 1.4721
 IR Inten    --     52.7301                 5.4263                 4.0123

                     34                     35                     36
                      A                      A                      A
 Frequencies --   1469.2411              1475.6924              1476.3806
 Red. masses --      1.0513                 1.0465                 1.0393
 Frc consts  --      1.3371                 1.3427                 1.3347
 IR Inten    --     12.2836                 7.2282                 5.5593

                     37                     38                     39
                      A                      A                      A
 Frequencies --   1478.5781              1487.7807              1494.4781
 Red. masses --      1.0400                 1.0564                 1.0443
 Frc consts  --      1.3396                 1.3776                 1.3742
 IR Inten    --      5.8844                 0.8915                 4.2450

                     40                     41                     42
                      A                      A                      A
 Frequencies --   1816.3631              2377.5933              3029.2665
 Red. masses --     11.1480                11.8726                 1.0347
 Frc consts  --     21.6697                39.5431                 5.5944
 IR Inten    --    234.1775                14.9223                28.7411

                     43                     44                     45
                      A                      A                      A
 Frequencies --   3051.2335              3058.1329              3069.2532
 Red. masses --      1.0337                 1.0361                 1.0822
 Frc consts  --      5.6701                 5.7088                 6.0063
 IR Inten    --     11.2294                 2.1946                 5.1940

                     46                     47                     48
                      A                      A                      A
 Frequencies --   3090.9745              3091.7678              3123.7040
 Red. masses --      1.1005                 1.0999                 1.0993
 Frc consts  --      6.1946                 6.1949                 6.3201
 IR Inten    --      9.3039                 8.3446                 4.5879

                     49                     50                     51
                      A                      A                      A
 Frequencies --   3130.4085              3138.5426              3169.4816
 Red. masses --      1.1020                 1.1038                 1.1031
 Frc consts  --      6.3625                 6.4059                 6.5289
 IR Inten    --     17.9472                13.5469                 7.8196

 - Thermochemistry -
 -------------------
 Temperature   298.150 Kelvin.  Pressure   1.00000 Atm.
 Atom     1 has atomic number  6 and mass  12.00000

 Molecular mass:   126.06808 amu.
 Principal axes and moments of inertia in atomic units:
                           1         2         3
     Eigenvalues --   566.539272385.933982699.08460
           X            0.99994  -0.00427  -0.00985
           Y            0.00413   0.99990  -0.01341
           Z            0.00990   0.01337   0.99986
 This molecule is an asymmetric top.
 Rotational symmetry number  1.
 Warning -- assumption of classical behavior for rotation
           may cause significant error
 Rotational temperatures (Kelvin)      0.15288     0.03630     0.03209
 Rotational constants (GHZ):           3.18555     0.75641     0.66865
 Zero-point vibrational energy     406793.8 (Joules/Mol)
                                   97.22605 (Kcal/Mol)
 Warning -- explicit consideration of  16 degrees of freedom as
           vibrations may cause significant error
 Vibrational temperatures:     30.09    61.91    85.88   116.06   174.94
          (Kelvin)            197.74   314.31   366.29   416.71   473.61
                              538.21   575.31   760.57   779.29   881.13
                              891.18  1092.34  1230.77  1378.93  1434.69
                             1486.06  1512.99  1515.69  1531.14  1546.94
                             1600.91  1722.55  1817.90  1950.01  1962.70
                             2009.64  2012.75  2035.06  2113.91  2123.19
                             2124.18  2127.34  2140.58  2150.22  2613.34
                             3420.82  4358.43  4390.04  4399.97  4415.97
                             4447.22  4448.36  4494.31  4503.95  4515.66
                             4560.17

 Zero-point correction=                           0.154940 (Hartree/Particle)
 Thermal correction to Energy=                    0.166154
 Thermal correction to Enthalpy=                  0.167098
 Thermal correction to Gibbs Free Energy=         0.115908
 Sum of electronic and zero-point Energies=           -423.047656
 Sum of electronic and thermal Energies=              -423.036442
 Sum of electronic and thermal Enthalpies=            -423.035497
 Sum of electronic and thermal Free Energies=         -423.086687

                     E (Thermal)             CV                S
                      KCal/Mol        Cal/Mol-Kelvin    Cal/Mol-Kelvin
 Total                  104.263             37.326            107.737
 Electronic               0.000              0.000              0.000
 Translational            0.889              2.981             40.409
 Rotational               0.889              2.981             29.680
 Vibrational            102.485             31.365             37.649
 Vibration     1          0.593              1.986              6.545
 Vibration     2          0.595              1.980              5.114
 Vibration     3          0.597              1.974              4.467
 Vibration     4          0.600              1.962              3.875
 Vibration     5          0.609              1.931              3.075
 Vibration     6          0.614              1.916              2.839
 Vibration     7          0.646              1.813              1.972
 Vibration     8          0.665              1.755              1.699
 Vibration     9          0.686              1.693              1.476
 Vibration    10          0.712              1.617              1.264
 Vibration    11          0.745              1.525              1.063
 Vibration    12          0.766              1.470              0.963
 Vibration    13          0.884              1.187              0.590
 Vibration    14          0.897              1.158              0.562
 Vibration    15          0.972              1.006              0.429
 Vibration    16          0.979              0.991              0.417

 Normal termination of Gaussian 09 at Mon Jan 27 14:29:59 2020.
