 Gaussian 09, Revision D.01,
 Gaussian 09:  ES64L-G09RevD.01 24-Apr-2013

 -----------------------------
 # b3lyp 6-31G(2df,p) opt Freq
 -----------------------------

 -----
 titel
 -----
 Symbolic Z-matrix:
 Charge =  0 Multiplicity = 1

 SCF Done:  E(RB3LYP) =  -423.119588893     A.U. after   14 cycles
 Optimization completed.
    -- Stationary point found.
 Normal termination of Gaussian 09 at Tue Jan 28 14:12:59 2020.

 ----------------------------------------------------------------------
 #N Geom=AllCheck Guess=TCheck SCRF=Check GenChk RB3LYP/6-31G(2df,p) Fr
 eq
 ----------------------------------------------------------------------

 Structure from the checkpoint file:  "/scratch/puck/g09_3c499f55-aa93-4a83-a703-102900cd221a/Gau-122982.chk"
 -----
 titel
 -----
 Charge =  0 Multiplicity = 1

                         Standard orientation:
 ---------------------------------------------------------------------
 Center     Atomic      Atomic             Coordinates (Angstroms)
 Number     Number       Type             X           Y           Z
 ---------------------------------------------------------------------
      1          6           0       -3.472038   -0.309126   -0.043286
      2          8           0       -2.085026   -0.379300   -0.275075
      3          6           0       -1.380512    0.713068    0.290089
      4          6           0        0.072958    0.499940    0.073100
      5          6           0        1.044346    1.274025   -0.416126
      6          6           0        2.270055    0.351267   -0.273709
      7          6           0        1.718480   -0.988636   -0.850259
      8          6           0        0.864342   -0.778242    0.433342
      9          8           0        2.063982   -0.214515    1.065087
     10          1           0       -3.916673    0.593859   -0.490963
     11          1           0       -3.924782   -1.190388   -0.503784
     12          1           0       -3.707677   -0.307973    1.033036
     13          1           0       -1.706541    1.666441   -0.157474
     14          1           0       -1.599007    0.774144    1.372529
     15          1           0        1.016117    2.279065   -0.811305
     16          1           0        3.272523    0.734333   -0.458879
     17          1           0        1.219622   -0.981417   -1.821098
     18          1           0        2.428579   -1.812780   -0.751175
     19          1           0        0.380404   -1.578547    0.990115
 ---------------------------------------------------------------------

 SCF Done:  E(RB3LYP) =  -423.119588893     A.U. after    1 cycles

 The electronic state is 1-A.
 Alpha  occ. eigenvalues --  -19.14426 -19.12375 -10.23956 -10.23702 -10.23686
 Alpha  occ. eigenvalues --  -10.22717 -10.18774 -10.18769 -10.18217  -1.04171
 Alpha  occ. eigenvalues --   -1.03565  -0.81119  -0.74179  -0.70256  -0.68041
 Alpha  occ. eigenvalues --   -0.64111  -0.55457  -0.53127  -0.51698  -0.48548
 Alpha  occ. eigenvalues --   -0.47875  -0.46156  -0.43671  -0.41002  -0.40561
 Alpha  occ. eigenvalues --   -0.39786  -0.37341  -0.34957  -0.33107  -0.32575
 Alpha  occ. eigenvalues --   -0.31851  -0.26185  -0.24938  -0.22824
 Alpha virt. eigenvalues --   -0.00025   0.08819   0.10600   0.12258   0.13241
 Alpha virt. eigenvalues --    0.13482   0.14838   0.15247   0.15413   0.16096
 Alpha virt. eigenvalues --    0.16699   0.17967   0.18365   0.19440   0.20991

 Mulliken charges:
               1
     1  C   -0.219368
     2  O   -0.238960
     3  C   -0.222536
     4  C    0.388518
     5  C   -0.227279
     6  C    0.029205
     7  C   -0.213861
     8  C   -0.021428
     9  O   -0.289692
    10  H    0.104941
    11  H    0.128899
    12  H    0.104896
    13  H    0.095838
    14  H    0.098554
    15  H    0.109048
    16  H    0.080064
    17  H    0.102857
    18  H    0.106645
    19  H    0.083659
 Sum of Mulliken charges =   0.00000

 Dipole moment (field-independent basis, Debye):
    X=             -1.4986    Y=              0.7040    Z=             -1.0090  Tot=              1.9389
 Quadrupole moment (field-independent basis, Debye-Ang):
   XX=            -49.1836   YY=            -50.7922   ZZ=            -55.4753
   XY=              0.1621   XZ=             -5.5378   YZ=             -0.9632

  Exact polarizability:  96.954   3.042  74.036  -5.536  -3.087  62.304
 Approx polarizability: 126.341  10.269 112.274  -8.237  -7.939  99.696

                      1                      2                      3
                      A                      A                      A
 Frequencies --     63.0625                85.4272                98.0672
 Red. masses --      3.0515                 2.3125                 3.7973
 Frc consts  --      0.0072                 0.0099                 0.0215
 IR Inten    --      0.5635                 4.1493                 2.2235

                      4                      5                      6
                      A                      A                      A
 Frequencies --    222.0965               256.1481               327.2923
 Red. masses --      1.3931                 2.3695                 3.0037
 Frc consts  --      0.0405                 0.0916                 0.1896
 IR Inten    --      1.8178                 1.3432                 0.8579

                      7                      8                      9
                      A                      A                      A
 Frequencies --    386.4433               490.7511               561.6090
 Red. masses --      3.8909                 2.0857                 2.9805
 Frc consts  --      0.3424                 0.2960                 0.5539
 IR Inten    --      0.3775                 1.5409                 2.2734

                     10                     11                     12
                      A                      A                      A
 Frequencies --    641.1102               702.4035               790.4449
 Red. masses --      5.8898                 3.2221                 2.7540
 Frc consts  --      1.4263                 0.9366                 1.0138
 IR Inten    --     10.0789                 3.2603                 5.5161

                     13                     14                     15
                      A                      A                      A
 Frequencies --    798.3499               838.8460               851.1370
 Red. masses --      2.6418                 2.4855                 2.1849
 Frc consts  --      0.9921                 1.0304                 0.9326
 IR Inten    --     11.2131                 6.0043                33.8152

                     16                     17                     18
                      A                      A                      A
 Frequencies --    888.1799               914.7658               934.7970
 Red. masses --      2.7851                 4.6821                 3.0127
 Frc consts  --      1.2945                 2.3084                 1.5511
 IR Inten    --     13.1297                16.0985                25.3789

                     19                     20                     21
                      A                      A                      A
 Frequencies --    981.3055              1018.5445              1022.3746
 Red. masses --      3.8591                 1.5903                 1.9412
 Frc consts  --      2.1895                 0.9720                 1.1955
 IR Inten    --     22.4440                 3.8357                 1.4144

                     22                     23                     24
                      A                      A                      A
 Frequencies --   1058.5861              1093.3714              1147.3853
 Red. masses --      1.5994                 1.6080                 5.4909
 Frc consts  --      1.0560                 1.1326                 4.2591
 IR Inten    --      2.5578                 1.1693               150.1001

                     25                     26                     27
                      A                      A                      A
 Frequencies --   1157.5671              1180.6244              1198.9096
 Red. masses --      1.4563                 1.3067                 1.9864
 Frc consts  --      1.1497                 1.0731                 1.6822
 IR Inten    --      2.2070                 6.0536                35.4886

                     28                     29                     30
                      A                      A                      A
 Frequencies --   1210.7017              1222.3691              1233.2171
 Red. masses --      1.4549                 1.4602                 1.5593
 Frc consts  --      1.2565                 1.2855                 1.3972
 IR Inten    --      5.1908                29.4451                 9.7587

                     31                     32                     33
                      A                      A                      A
 Frequencies --   1250.4255              1260.5360              1294.0038
 Red. masses --      1.2198                 1.4847                 1.3902
 Frc consts  --      1.1238                 1.3900                 1.3715
 IR Inten    --      5.1039                 3.3160                 9.3210

                     34                     35                     36
                      A                      A                      A
 Frequencies --   1315.5610              1404.4904              1478.5981
 Red. masses --      2.0282                 1.3640                 1.1523
 Frc consts  --      2.0682                 1.5852                 1.4842
 IR Inten    --      2.6673                65.3031                 0.7334

                     37                     38                     39
                      A                      A                      A
 Frequencies --   1484.5175              1485.9050              1499.9472
 Red. masses --      1.0510                 1.1356                 1.0702
 Frc consts  --      1.3647                 1.4773                 1.4186
 IR Inten    --      4.7918                 0.6179                 5.5637

                     40                     41                     42
                      A                      A                      A
 Frequencies --   1518.9438              1696.0673              2930.0066
 Red. masses --      1.0783                 7.8279                 1.0644
 Frc consts  --      1.4658                13.2672                 5.3839
 IR Inten    --      2.5001                 0.2501                39.6605

                     43                     44                     45
                      A                      A                      A
 Frequencies --   2968.5088              2979.8226              3012.8668
 Red. masses --      1.0429                 1.0867                 1.1031
 Frc consts  --      5.4148                 5.6850                 5.8995
 IR Inten    --     65.9730                61.2161                54.2714

                     46                     47                     48
                      A                      A                      A
 Frequencies --   3067.0521              3116.2311              3135.5969
 Red. masses --      1.0553                 1.0958                 1.0919
 Frc consts  --      5.8486                 6.2696                 6.3251
 IR Inten    --     36.7181                27.3129                49.7697

                     49                     50                     51
                      A                      A                      A
 Frequencies --   3140.6920              3145.4642              3239.6124
 Red. masses --      1.1098                 1.0937                 1.0989
 Frc consts  --      6.4496                 6.3756                 6.7951
 IR Inten    --     30.5943                24.1260                 4.3599

 - Thermochemistry -
 -------------------
 Temperature   298.150 Kelvin.  Pressure   1.00000 Atm.
 Atom     1 has atomic number  6 and mass  12.00000

 Molecular mass:   126.06808 amu.
 Principal axes and moments of inertia in atomic units:
                           1         2         3
     Eigenvalues --   409.107951920.001942018.59483
           X            0.99984  -0.00474  -0.01711
           Y            0.00487   0.99996   0.00801
           Z            0.01707  -0.00809   0.99982
 This molecule is an asymmetric top.
 Rotational symmetry number  1.
 Rotational temperatures (Kelvin)      0.21171     0.04511     0.04291
 Rotational constants (GHZ):           4.41141     0.93997     0.89406
 Zero-point vibrational energy     417501.1 (Joules/Mol)
                                   99.78516 (Kcal/Mol)
 Warning -- explicit consideration of   9 degrees of freedom as
           vibrations may cause significant error
 Vibrational temperatures:     90.73   122.91   141.10   319.55   368.54
          (Kelvin)            470.90   556.00   706.08   808.03   922.41
                             1010.60  1137.27  1148.65  1206.91  1224.59
                             1277.89  1316.14  1344.96  1411.88  1465.46
                             1470.97  1523.07  1573.12  1650.83  1665.48
                             1698.65  1724.96  1741.93  1758.71  1774.32
                             1799.08  1813.63  1861.78  1892.80  2020.75
                             2127.37  2135.89  2137.88  2158.09  2185.42
                             2440.26  4215.62  4271.02  4287.29  4334.84
                             4412.80  4483.56  4511.42  4518.75  4525.62
                             4661.07

 Zero-point correction=                           0.159018 (Hartree/Particle)
 Thermal correction to Energy=                    0.167353
 Thermal correction to Enthalpy=                  0.168297
 Thermal correction to Gibbs Free Energy=         0.125172
 Sum of electronic and zero-point Energies=           -422.960571
 Sum of electronic and thermal Energies=              -422.952236
 Sum of electronic and thermal Enthalpies=            -422.951291
 Sum of electronic and thermal Free Energies=         -422.994417

                     E (Thermal)             CV                S
                      KCal/Mol        Cal/Mol-Kelvin    Cal/Mol-Kelvin
 Total                  105.016             30.954             90.765
 Electronic               0.000              0.000              0.000
 Translational            0.889              2.981             40.409
 Rotational               0.889              2.981             28.852
 Vibrational            103.238             24.992             21.505
 Vibration     1          0.597              1.972              4.359
 Vibration     2          0.601              1.959              3.762
 Vibration     3          0.604              1.951              3.492
 Vibration     4          0.648              1.807              1.942
 Vibration     5          0.666              1.752              1.688
 Vibration     6          0.711              1.621              1.273
 Vibration     7          0.755              1.499              1.014
 Vibration     8          0.847              1.271              0.682
 Vibration     9          0.917              1.114              0.521

 Optimization completed.
    -- Stationary point found.
 Normal termination of Gaussian 09 at Tue Jan 28 14:54:43 2020.
