 Gaussian 09, Revision D.01,
 Gaussian 09:  ES64L-G09RevD.01 24-Apr-2013

 -----------------------------
 # b3lyp 6-31G(2df,p) opt Freq
 -----------------------------

 -----
 titel
 -----
 Symbolic Z-matrix:
 Charge =  0 Multiplicity = 1

 SCF Done:  E(RB3LYP) =  -423.176093415     A.U. after   14 cycles
 Optimization completed.
    -- Stationary point found.
 Normal termination of Gaussian 09 at Tue Jan 28 09:21:03 2020.

 ----------------------------------------------------------------------
 #N Geom=AllCheck Guess=TCheck SCRF=Check GenChk RB3LYP/6-31G(2df,p) Fr
 eq
 ----------------------------------------------------------------------

 Structure from the checkpoint file:  "/scratch/puck/g09_8b9ae250-96c2-4544-961f-cf3a42bd5e25/Gau-109374.chk"
 -----
 titel
 -----
 Charge =  0 Multiplicity = 1

                         Standard orientation:
 ---------------------------------------------------------------------
 Center     Atomic      Atomic             Coordinates (Angstroms)
 Number     Number       Type             X           Y           Z
 ---------------------------------------------------------------------
      1          6           0       -2.640569   -0.469902    0.650466
      2          6           0       -1.633823    0.163653   -0.306016
      3          6           0       -0.732937    1.283604    0.262556
      4          6           0        0.260982    1.692708   -0.765451
      5          6           0        0.555571    0.432323    0.033659
      6          6           0        1.815990    0.159812    0.813115
      7          8           0        2.737248   -0.577313    0.026703
      8          6           0       -0.331626   -0.671404   -0.431708
      9          8           0       -0.122578   -1.850239   -0.573428
     10          1           0       -2.176012   -0.714076    1.611597
     11          1           0       -3.479302    0.206968    0.839883
     12          1           0       -3.035024   -1.396932    0.225702
     13          1           0       -2.117017    0.425959   -1.254186
     14          1           0       -0.962398    1.872825    1.141430
     15          1           0        0.011810    1.635408   -1.822040
     16          1           0        0.915635    2.520523   -0.509488
     17          1           0        2.314357    1.092002    1.098751
     18          1           0        1.566823   -0.380074    1.740562
     19          1           0        2.282249   -1.386951   -0.238142
 ---------------------------------------------------------------------

 SCF Done:  E(RB3LYP) =  -423.176093415     A.U. after    1 cycles

 The electronic state is 1-A.
 Alpha  occ. eigenvalues --  -19.13801 -19.13033 -10.27004 -10.23591 -10.21754
 Alpha  occ. eigenvalues --  -10.21075 -10.20936 -10.20672 -10.18912  -1.04662
 Alpha  occ. eigenvalues --   -1.01279  -0.91445  -0.77372  -0.70736  -0.67973
 Alpha  occ. eigenvalues --   -0.61590  -0.59437  -0.51706  -0.50370  -0.48815
 Alpha  occ. eigenvalues --   -0.47922  -0.45901  -0.42886  -0.41745  -0.40957
 Alpha  occ. eigenvalues --   -0.39640  -0.38169  -0.37747  -0.35609  -0.33681
 Alpha  occ. eigenvalues --   -0.31792  -0.28147  -0.26626  -0.24298
 Alpha virt. eigenvalues --   -0.01540   0.07769   0.09803   0.09980   0.10782
 Alpha virt. eigenvalues --    0.11743   0.13525   0.14075   0.15227   0.16334
 Alpha virt. eigenvalues --    0.16965   0.17951   0.19510   0.20012   0.21779

 Mulliken charges:
               1
     1  C   -0.407999
     2  C   -0.110942
     3  C   -0.124191
     4  C   -0.333610
     5  C    0.222538
     6  C   -0.182875
     7  O   -0.416378
     8  C    0.363634
     9  O   -0.349850
    10  H    0.122153
    11  H    0.120926
    12  H    0.139694
    13  H    0.094527
    14  H    0.109082
    15  H    0.122443
    16  H    0.128055
    17  H    0.109227
    18  H    0.095550
    19  H    0.298015
 Sum of Mulliken charges =   0.00000

 Dipole moment (field-independent basis, Debye):
    X=             -2.0565    Y=              2.5420    Z=              0.8631  Tot=              3.3817
 Quadrupole moment (field-independent basis, Debye-Ang):
   XX=            -57.6228   YY=            -54.8534   ZZ=            -51.4857
   XY=              0.4891   XZ=              0.6405   YZ=             -0.7908

  Exact polarizability:  85.583   0.913  79.607  -0.325   0.367  64.092
 Approx polarizability: 114.121  -3.704 128.570  -1.690   4.707  97.768

                      1                      2                      3
                      A                      A                      A
 Frequencies --     60.1864                86.3775               177.4042
 Red. masses --      4.2481                 4.6295                 3.7546
 Frc consts  --      0.0091                 0.0204                 0.0696
 IR Inten    --      5.1423                 0.5264                 1.7511

                      4                      5                      6
                      A                      A                      A
 Frequencies --    193.9567               212.3069               242.5670
 Red. masses --      2.5002                 1.2206                 2.4773
 Frc consts  --      0.0554                 0.0324                 0.0859
 IR Inten    --      2.2165                 1.2427                 3.8154

                      7                      8                      9
                      A                      A                      A
 Frequencies --    302.5045               393.1338               448.3173
 Red. masses --      2.5923                 3.9074                 2.6351
 Frc consts  --      0.1398                 0.3558                 0.3120
 IR Inten    --      3.7196                 0.7267                 4.6272

                     10                     11                     12
                      A                      A                      A
 Frequencies --    466.3315               500.2923               606.8049
 Red. masses --      1.2592                 2.6520                 4.5320
 Frc consts  --      0.1613                 0.3911                 0.9832
 IR Inten    --     93.7237                31.3405                 4.7898

                     13                     14                     15
                      A                      A                      A
 Frequencies --    686.8845               788.6685               799.4159
 Red. masses --      4.1678                 2.6113                 3.5130
 Frc consts  --      1.1586                 0.9570                 1.3227
 IR Inten    --      0.5552                 5.8676                 6.4343

                     16                     17                     18
                      A                      A                      A
 Frequencies --    857.0446               872.7683               946.1140
 Red. masses --      2.5045                 2.3641                 1.5331
 Frc consts  --      1.0839                 1.0610                 0.8086
 IR Inten    --     13.4675                 4.6152                 8.4421

                     19                     20                     21
                      A                      A                      A
 Frequencies --    957.9977               976.6398              1008.9917
 Red. masses --      2.0683                 1.6588                 1.2466
 Frc consts  --      1.1184                 0.9322                 0.7477
 IR Inten    --     24.8753                 9.3413                10.0009

                     22                     23                     24
                      A                      A                      A
 Frequencies --   1047.7387              1057.6334              1072.9007
 Red. masses --      2.0908                 2.1764                 2.3874
 Frc consts  --      1.3523                 1.4344                 1.6192
 IR Inten    --     99.2221                24.8758                16.3513

                     25                     26                     27
                      A                      A                      A
 Frequencies --   1092.4275              1100.9986              1149.3401
 Red. masses --      1.3975                 1.6952                 2.0566
 Frc consts  --      0.9826                 1.2107                 1.6006
 IR Inten    --      1.3489                 4.9970                 4.1548

                     28                     29                     30
                      A                      A                      A
 Frequencies --   1198.0095              1231.0172              1247.9034
 Red. masses --      1.5016                 1.6810                 1.5255
 Frc consts  --      1.2698                 1.5009                 1.3996
 IR Inten    --     10.0922                 5.5359                 2.1461

                     31                     32                     33
                      A                      A                      A
 Frequencies --   1305.7452              1339.8775              1372.9889
 Red. masses --      2.3032                 1.7417                 2.3753
 Frc consts  --      2.3136                 1.8422                 2.6382
 IR Inten    --     16.6517                 2.7107                 4.4840

                     34                     35                     36
                      A                      A                      A
 Frequencies --   1382.6475              1407.9904              1438.9642
 Red. masses --      1.4176                 1.2357                 1.2796
 Frc consts  --      1.5967                 1.4433                 1.5611
 IR Inten    --      3.0094                 3.6115                93.3669

                     37                     38                     39
                      A                      A                      A
 Frequencies --   1493.1528              1493.5903              1498.8723
 Red. masses --      1.1015                 1.0839                 1.1094
 Frc consts  --      1.4470                 1.4246                 1.4685
 IR Inten    --      4.1376                 1.8717                 4.4438

                     40                     41                     42
                      A                      A                      A
 Frequencies --   1507.2364              1843.9159              2976.2215
 Red. masses --      1.1080                12.3786                 1.0698
 Frc consts  --      1.4830                24.7973                 5.5830
 IR Inten    --      0.1489               275.9753                55.9201

                     43                     44                     45
                      A                      A                      A
 Frequencies --   3037.5832              3039.7532              3070.7757
 Red. masses --      1.0369                 1.0818                 1.0929
 Frc consts  --      5.6368                 5.8895                 6.0721
 IR Inten    --     20.4703                20.9987                27.5533

                     46                     47                     48
                      A                      A                      A
 Frequencies --   3105.8705              3111.1537              3119.4059
 Red. masses --      1.1019                 1.0556                 1.1013
 Frc consts  --      6.2626                 6.0197                 6.3140
 IR Inten    --     25.7996                17.4869                13.0361

                     49                     50                     51
                      A                      A                      A
 Frequencies --   3194.1690              3203.1280              3776.0078
 Red. masses --      1.1065                 1.1017                 1.0663
 Frc consts  --      6.6513                 6.6596                 8.9576
 IR Inten    --      3.0377                 8.1450                36.0961

 - Thermochemistry -
 -------------------
 Temperature   298.150 Kelvin.  Pressure   1.00000 Atm.
 Atom     1 has atomic number  6 and mass  12.00000

 Molecular mass:   126.06808 amu.
 Principal axes and moments of inertia in atomic units:
                           1         2         3
     Eigenvalues --   668.797121345.513491703.14097
           X            0.99984   0.01712  -0.00521
           Y           -0.01727   0.99941  -0.02982
           Z            0.00470   0.02990   0.99954
 This molecule is an asymmetric top.
 Rotational symmetry number  1.
 Warning -- assumption of classical behavior for rotation
           may cause significant error
 Rotational temperatures (Kelvin)      0.12951     0.06437     0.05086
 Rotational constants (GHZ):           2.69849     1.34130     1.05965
 Zero-point vibrational energy     415712.6 (Joules/Mol)
                                   99.35771 (Kcal/Mol)
 Warning -- explicit consideration of  12 degrees of freedom as
           vibrations may cause significant error
 Vibrational temperatures:     86.59   124.28   255.24   279.06   305.46
          (Kelvin)            349.00   435.24   565.63   645.03   670.95
                              719.81   873.06   988.27  1134.72  1150.18
                             1233.09  1255.72  1361.25  1378.34  1405.17
                             1451.71  1507.46  1521.70  1543.66  1571.76
                             1584.09  1653.64  1723.67  1771.16  1795.45
                             1878.67  1927.78  1975.42  1989.32  2025.78
                             2070.35  2148.31  2148.94  2156.54  2168.57
                             2652.98  4282.11  4370.40  4373.52  4418.16
                             4468.65  4476.25  4488.12  4595.69  4608.58
                             5432.83

 Zero-point correction=                           0.158337 (Hartree/Particle)
 Thermal correction to Energy=                    0.167420
 Thermal correction to Enthalpy=                  0.168365
 Thermal correction to Gibbs Free Energy=         0.124188
 Sum of electronic and zero-point Energies=           -423.017757
 Sum of electronic and thermal Energies=              -423.008673
 Sum of electronic and thermal Enthalpies=            -423.007729
 Sum of electronic and thermal Free Energies=         -423.051905

                     E (Thermal)             CV                S
                      KCal/Mol        Cal/Mol-Kelvin    Cal/Mol-Kelvin
 Total                  105.058             33.578             92.976
 Electronic               0.000              0.000              0.000
 Translational            0.889              2.981             40.409
 Rotational               0.889              2.981             28.818
 Vibrational            103.280             27.616             23.750
 Vibration     1          0.597              1.973              4.451
 Vibration     2          0.601              1.959              3.740
 Vibration     3          0.628              1.870              2.356
 Vibration     4          0.635              1.848              2.190
 Vibration     5          0.643              1.822              2.024
 Vibration     6          0.659              1.775              1.784
 Vibration     7          0.694              1.669              1.403
 Vibration     8          0.760              1.485              0.988
 Vibration     9          0.807              1.365              0.801
 Vibration    10          0.824              1.325              0.748
 Vibration    11          0.856              1.249              0.657
 Vibration    12          0.966              1.017              0.438

 Optimization completed.
    -- Stationary point found.
 Normal termination of Gaussian 09 at Tue Jan 28 10:06:08 2020.
