 Gaussian 09, Revision D.01,
 Gaussian 09:  ES64L-G09RevD.01 24-Apr-2013

 -----------------------------
 # b3lyp 6-31G(2df,p) opt Freq
 -----------------------------

 -----
 titel
 -----
 Symbolic Z-matrix:
 Charge =  0 Multiplicity = 1

 SCF Done:  E(RB3LYP) =  -423.108428914     A.U. after   14 cycles
 SCF Done:  E(RB3LYP) =  -423.108428895     A.U. after    7 cycles
 SCF Done:  E(RB3LYP) =  -423.108428804     A.U. after    7 cycles
 SCF Done:  E(RB3LYP) =  -423.108428843     A.U. after    7 cycles
 Optimization completed.
    -- Stationary point found.
 Normal termination of Gaussian 09 at Tue Jan 28 12:21:36 2020.

 ----------------------------------------------------------------------
 #N Geom=AllCheck Guess=TCheck SCRF=Check GenChk RB3LYP/6-31G(2df,p) Fr
 eq
 ----------------------------------------------------------------------

 Structure from the checkpoint file:  "/scratch/puck/g09_94416675-2519-4c0a-8f25-247eff38ba49/Gau-1511.chk"
 -----
 titel
 -----
 Charge =  0 Multiplicity = 1

                         Standard orientation:
 ---------------------------------------------------------------------
 Center     Atomic      Atomic             Coordinates (Angstroms)
 Number     Number       Type             X           Y           Z
 ---------------------------------------------------------------------
      1          6           0        3.291310    0.111939   -0.146203
      2          6           0        1.910260   -0.353271    0.281231
      3          8           0        0.969389    0.622267   -0.159091
      4          6           0       -0.357619    0.397540    0.281350
      5          6           0       -1.116231    1.636366    0.103632
      6          6           0       -1.773978    2.628601   -0.054106
      7          6           0       -1.030269   -0.736011   -0.483164
      8          6           0       -2.097895   -1.534765    0.124121
      9          8           0       -0.773774   -2.058467   -0.008476
     10          1           0        4.049609   -0.607067    0.178089
     11          1           0        3.345701    0.205156   -1.234578
     12          1           0        3.522394    1.086451    0.292878
     13          1           0        1.678646   -1.337735   -0.145190
     14          1           0        1.853987   -0.453070    1.377330
     15          1           0       -0.357866    0.118310    1.349415
     16          1           0       -2.344255    3.515057   -0.184845
     17          1           0       -0.999660   -0.622246   -1.566494
     18          1           0       -2.415621   -1.321176    1.143799
     19          1           0       -2.851328   -1.996469   -0.511033
 ---------------------------------------------------------------------

 SCF Done:  E(RB3LYP) =  -423.108428843     A.U. after    1 cycles

 The electronic state is 1-A.
 Alpha  occ. eigenvalues --  -19.15965 -19.14402 -10.26325 -10.24501 -10.24177
 Alpha  occ. eigenvalues --  -10.22643 -10.18712 -10.18186 -10.17414  -1.08064
 Alpha  occ. eigenvalues --   -1.03649  -0.79802  -0.74297  -0.71165  -0.66663
 Alpha  occ. eigenvalues --   -0.62562  -0.60240  -0.54304  -0.52067  -0.49949
 Alpha  occ. eigenvalues --   -0.48971  -0.47270  -0.45195  -0.40926  -0.39147
 Alpha  occ. eigenvalues --   -0.38443  -0.37893  -0.35673  -0.33291  -0.31289
 Alpha  occ. eigenvalues --   -0.29093  -0.27842  -0.27237  -0.25326
 Alpha virt. eigenvalues --    0.03184   0.04336   0.10118   0.10622   0.11089
 Alpha virt. eigenvalues --    0.11804   0.12114   0.13103   0.14405   0.16384
 Alpha virt. eigenvalues --    0.16657   0.18173   0.18572   0.19921   0.20413

 Mulliken charges:
               1
     1  C   -0.385681
     2  C   -0.038998
     3  O   -0.262261
     4  C   -0.097465
     5  C    0.309302
     6  C   -0.411376
     7  C    0.065169
     8  C   -0.171706
     9  O   -0.235991
    10  H    0.115989
    11  H    0.127856
    12  H    0.126961
    13  H    0.117071
    14  H    0.089495
    15  H    0.097993
    16  H    0.199498
    17  H    0.111815
    18  H    0.120069
    19  H    0.122262
 Sum of Mulliken charges =   0.00000

 Dipole moment (field-independent basis, Debye):
    X=             -1.0577    Y=              0.0963    Z=              0.3569  Tot=              1.1205
 Quadrupole moment (field-independent basis, Debye-Ang):
   XX=            -46.4697   YY=            -54.8863   ZZ=            -52.1087
   XY=             -2.1287   XZ=              0.9706   YZ=              0.1533

  Exact polarizability:  89.947  -7.635  85.962  -0.087  -2.725  60.395
 Approx polarizability: 115.605 -18.811 127.784   0.326  -8.100  91.586

                      1                      2                      3
                      A                      A                      A
 Frequencies --     61.0268                73.9371                91.4819
 Red. masses --      1.7174                 3.4225                 4.1321
 Frc consts  --      0.0038                 0.0110                 0.0204
 IR Inten    --      0.5035                 4.6709                 2.6045

                      4                      5                      6
                      A                      A                      A
 Frequencies --    126.7561               143.7549               238.8668
 Red. masses --      3.5672                 4.0614                 1.3230
 Frc consts  --      0.0338                 0.0495                 0.0445
 IR Inten    --      1.2004                 0.8815                 0.1672

                      7                      8                      9
                      A                      A                      A
 Frequencies --    263.0846               285.1995               345.1580
 Red. masses --      2.9789                 3.3067                 4.0206
 Frc consts  --      0.1215                 0.1585                 0.2822
 IR Inten    --      0.7778                 1.7735                 1.6280

                     10                     11                     12
                      A                      A                      A
 Frequencies --    396.5537               474.5475               513.0514
 Red. masses --      3.7164                 5.4237                 6.0443
 Frc consts  --      0.3443                 0.7196                 0.9374
 IR Inten    --      8.6201                13.0307                 2.4333

                     13                     14                     15
                      A                      A                      A
 Frequencies --    582.3725               636.6773               670.9635
 Red. masses --      4.3363                 1.2329                 1.2547
 Frc consts  --      0.8665                 0.2944                 0.3328
 IR Inten    --      1.1966                41.5710                34.0367

                     16                     17                     18
                      A                      A                      A
 Frequencies --    818.1266               852.2308               863.6224
 Red. masses --      1.1021                 1.5938                 7.7135
 Frc consts  --      0.4346                 0.6820                 3.3896
 IR Inten    --      0.5846                11.7444                23.4115

                     19                     20                     21
                      A                      A                      A
 Frequencies --    898.7575               949.6886               998.9729
 Red. masses --      2.3687                 2.9404                 2.9452
 Frc consts  --      1.1273                 1.5625                 1.7317
 IR Inten    --      2.7151                32.3985                12.8497

                     22                     23                     24
                      A                      A                      A
 Frequencies --   1040.8891              1095.1598              1122.1944
 Red. masses --      3.0975                 1.3726                 4.8403
 Frc consts  --      1.9773                 0.9699                 3.5914
 IR Inten    --     10.5887                 3.6573               188.4698

                     25                     26                     27
                      A                      A                      A
 Frequencies --   1128.0673              1145.3476              1156.9762
 Red. masses --      2.2025                 2.2453                 1.4849
 Frc consts  --      1.6513                 1.7354                 1.1711
 IR Inten    --     12.6517                49.2885                23.4867

                     28                     29                     30
                      A                      A                      A
 Frequencies --   1170.7153              1185.6940              1277.8514
 Red. masses --      1.4589                 1.5555                 1.2998
 Frc consts  --      1.1781                 1.2884                 1.2505
 IR Inten    --      2.5353                 5.5059                 7.3708

                     31                     32                     33
                      A                      A                      A
 Frequencies --   1290.2335              1301.0474              1338.8183
 Red. masses --      1.5131                 1.1754                 1.2291
 Frc consts  --      1.4840                 1.1723                 1.2980
 IR Inten    --     13.8851                 9.9168                44.1442

                     34                     35                     36
                      A                      A                      A
 Frequencies --   1401.6640              1426.7077              1438.5976
 Red. masses --      1.2377                 1.6597                 1.4930
 Frc consts  --      1.4327                 1.9905                 1.8205
 IR Inten    --      0.1025                18.2546                 8.0055

                     37                     38                     39
                      A                      A                      A
 Frequencies --   1482.9573              1499.7578              1528.2878
 Red. masses --      1.0403                 1.0453                 1.2062
 Frc consts  --      1.3479                 1.3853                 1.6599
 IR Inten    --      4.1744                 2.4524                 5.2928

                     40                     41                     42
                      A                      A                      A
 Frequencies --   1529.0589              2244.6268              2955.3928
 Red. masses --      1.1834                 5.8934                 1.0803
 Frc consts  --      1.6301                17.4946                 5.5596
 IR Inten    --      2.8054                 2.1808                18.1329

                     43                     44                     45
                      A                      A                      A
 Frequencies --   2976.2383              3040.6486              3045.2249
 Red. masses --      1.0670                 1.0937                 1.0347
 Frc consts  --      5.5686                 5.9577                 5.6532
 IR Inten    --     47.1618                25.2952                18.3623

                     46                     47                     48
                      A                      A                      A
 Frequencies --   3088.8056              3119.3871              3122.6193
 Red. masses --      1.0503                 1.1014                 1.0900
 Frc consts  --      5.9041                 6.3145                 6.2620
 IR Inten    --     22.8867                22.1536                 8.9207

                     49                     50                     51
                      A                      A                      A
 Frequencies --   3123.3156              3177.2142              3503.9083
 Red. masses --      1.1020                 1.1193                 1.1637
 Frc consts  --      6.3335                 6.6570                 8.4174
 IR Inten    --     29.9963                22.1342                63.4868

 - Thermochemistry -
 -------------------
 Temperature   298.150 Kelvin.  Pressure   1.00000 Atm.
 Atom     1 has atomic number  6 and mass  12.00000

 Molecular mass:   126.06808 amu.
 Principal axes and moments of inertia in atomic units:
                           1         2         3
     Eigenvalues --   945.536311430.361002267.20198
           X            1.00000   0.00105   0.00046
           Y           -0.00105   1.00000  -0.00206
           Z           -0.00046   0.00206   1.00000
 This molecule is an asymmetric top.
 Rotational symmetry number  1.
 Warning -- assumption of classical behavior for rotation
           may cause significant error
 Rotational temperatures (Kelvin)      0.09160     0.06055     0.03820
 Rotational constants (GHZ):           1.90870     1.26174     0.79602
 Zero-point vibrational energy     408179.2 (Joules/Mol)
                                   97.55717 (Kcal/Mol)
 Warning -- explicit consideration of  13 degrees of freedom as
           vibrations may cause significant error
 Vibrational temperatures:     87.80   106.38   131.62   182.37   206.83
          (Kelvin)            343.68   378.52   410.34   496.60   570.55
                              682.77   738.17   837.90   916.04   965.37
                             1177.10  1226.17  1242.56  1293.11  1366.39
                             1437.30  1497.61  1575.69  1614.59  1623.04
                             1647.90  1664.63  1684.40  1705.95  1838.54
                             1856.36  1871.91  1926.26  2016.68  2052.71
                             2069.82  2133.64  2157.81  2198.86  2199.97
                             3229.51  4252.15  4282.14  4374.81  4381.39
                             4444.10  4488.10  4492.75  4493.75  4571.30
                             5041.34

 Zero-point correction=                           0.155467 (Hartree/Particle)
 Thermal correction to Energy=                    0.165570
 Thermal correction to Enthalpy=                  0.166514
 Thermal correction to Gibbs Free Energy=         0.119491
 Sum of electronic and zero-point Energies=           -422.952962
 Sum of electronic and thermal Energies=              -422.942859
 Sum of electronic and thermal Enthalpies=            -422.941915
 Sum of electronic and thermal Free Energies=         -422.988938

                     E (Thermal)             CV                S
                      KCal/Mol        Cal/Mol-Kelvin    Cal/Mol-Kelvin
 Total                  103.897             35.707             98.968
 Electronic               0.000              0.000              0.000
 Translational            0.889              2.981             40.409
 Rotational               0.889              2.981             29.507
 Vibrational            102.119             29.745             29.052
 Vibration     1          0.597              1.973              4.424
 Vibration     2          0.599              1.966              4.046
 Vibration     3          0.602              1.955              3.628
 Vibration     4          0.611              1.926              2.995
 Vibration     5          0.616              1.909              2.753
 Vibration     6          0.657              1.781              1.811
 Vibration     7          0.670              1.741              1.641
 Vibration     8          0.683              1.701              1.502
 Vibration     9          0.724              1.585              1.188
 Vibration    10          0.763              1.478              0.975
 Vibration    11          0.831              1.307              0.725
 Vibration    12          0.868              1.221              0.626
 Vibration    13          0.939              1.069              0.481

 Optimization completed.
    -- Stationary point found.
 Normal termination of Gaussian 09 at Tue Jan 28 13:01:28 2020.
