 Gaussian 09, Revision D.01,
 Gaussian 09:  ES64L-G09RevD.01 24-Apr-2013

 -----------------------------
 # b3lyp 6-31G(2df,p) opt Freq
 -----------------------------

 -----
 titel
 -----
 Symbolic Z-matrix:
 Charge =  0 Multiplicity = 1

 SCF Done:  E(RB3LYP) =  -423.153617356     A.U. after   13 cycles
 Optimization completed.
    -- Stationary point found.
 Normal termination of Gaussian 09 at Tue Jan 28 08:14:16 2020.

 ----------------------------------------------------------------------
 #N Geom=AllCheck Guess=TCheck SCRF=Check GenChk RB3LYP/6-31G(2df,p) Fr
 eq
 ----------------------------------------------------------------------

 Structure from the checkpoint file:  "/scratch/puck/g09_bdb3b91a-b9e0-4819-ba96-d8b957fba174/Gau-25848.chk"
 -----
 titel
 -----
 Charge =  0 Multiplicity = 1

                         Standard orientation:
 ---------------------------------------------------------------------
 Center     Atomic      Atomic             Coordinates (Angstroms)
 Number     Number       Type             X           Y           Z
 ---------------------------------------------------------------------
      1          6           0        0.661097    1.656394    1.104454
      2          6           0        0.260026    1.271313   -0.320564
      3          8           0       -1.170379    1.210802   -0.429146
      4          6           0       -1.811344   -0.054509   -0.496183
      5          6           0       -1.442858   -1.029970    0.605453
      6          6           0       -0.251427   -1.623106    0.648211
      7          6           0        0.786609   -1.334193   -0.376638
      8          8           0        1.941667   -0.590897    0.030525
      9          6           0        1.012424    0.043697   -0.855947
     10          1           0        0.429722    0.864553    1.817935
     11          1           0        1.733483    1.863609    1.159579
     12          1           0        0.110527    2.557401    1.388177
     13          1           0        0.532506    2.106030   -0.978906
     14          1           0       -2.878519    0.178805   -0.451592
     15          1           0       -1.626850   -0.527050   -1.472624
     16          1           0       -2.186459   -1.237874    1.370309
     17          1           0        0.002388   -2.337092    1.428112
     18          1           0        1.031714   -2.156396   -1.053252
     19          1           0        1.394029    0.151020   -1.871483
 ---------------------------------------------------------------------

 SCF Done:  E(RB3LYP) =  -423.153617356     A.U. after    1 cycles

 The electronic state is 1-A.
 Alpha  occ. eigenvalues --  -19.15478 -19.13598 -10.24475 -10.24005 -10.23657
 Alpha  occ. eigenvalues --  -10.23367 -10.19516 -10.19418 -10.16541  -1.07510
 Alpha  occ. eigenvalues --   -1.02301  -0.80498  -0.76648  -0.69693  -0.67285
 Alpha  occ. eigenvalues --   -0.64251  -0.56196  -0.55483  -0.52651  -0.48577
 Alpha  occ. eigenvalues --   -0.47001  -0.44676  -0.43841  -0.42166  -0.41148
 Alpha  occ. eigenvalues --   -0.39317  -0.37459  -0.35394  -0.35122  -0.31484
 Alpha  occ. eigenvalues --   -0.30156  -0.27531  -0.26253  -0.24820
 Alpha virt. eigenvalues --   -0.01044   0.07636   0.09146   0.10990   0.11640
 Alpha virt. eigenvalues --    0.13656   0.14976   0.15766   0.16850   0.17547
 Alpha virt. eigenvalues --    0.17783   0.18853   0.19315   0.20169   0.20832

 Mulliken charges:
               1
     1  C   -0.385231
     2  C    0.115272
     3  O   -0.278719
     4  C   -0.115730
     5  C   -0.074035
     6  C   -0.083994
     7  C    0.016402
     8  O   -0.242651
     9  C   -0.009559
    10  H    0.126399
    11  H    0.119575
    12  H    0.114702
    13  H    0.086810
    14  H    0.111478
    15  H    0.099576
    16  H    0.101986
    17  H    0.103508
    18  H    0.098736
    19  H    0.095475
 Sum of Mulliken charges =   0.00000

 Dipole moment (field-independent basis, Debye):
    X=             -0.9079    Y=             -1.0913    Z=             -0.5956  Tot=              1.5395
 Quadrupole moment (field-independent basis, Debye-Ang):
   XX=            -55.7287   YY=            -52.1432   ZZ=            -51.3034
   XY=              3.1898   XZ=             -2.4838   YZ=             -0.1828

  Exact polarizability:  81.346  -0.878  77.785  -2.800  -3.026  66.657
 Approx polarizability: 127.237  -8.180 113.360  -0.632  -7.080  97.775

                      1                      2                      3
                      A                      A                      A
 Frequencies --     88.2962               182.6131               230.9138
 Red. masses --      3.9526                 2.9176                 1.0577
 Frc consts  --      0.0182                 0.0573                 0.0332
 IR Inten    --      3.5221                 0.2621                 0.1569

                      4                      5                      6
                      A                      A                      A
 Frequencies --    243.7146               296.6335               327.0383
 Red. masses --      2.9321                 3.2457                 3.3574
 Frc consts  --      0.1026                 0.1683                 0.2116
 IR Inten    --      2.9315                 6.5218                 2.6986

                      7                      8                      9
                      A                      A                      A
 Frequencies --    362.7343               414.0568               508.0141
 Red. masses --      3.9906                 3.2915                 3.9777
 Frc consts  --      0.3094                 0.3325                 0.6048
 IR Inten    --      3.2682                 2.7273                 0.1282

                     10                     11                     12
                      A                      A                      A
 Frequencies --    530.6598               677.4057               720.7217
 Red. masses --      3.5399                 2.4970                 2.5023
 Frc consts  --      0.5873                 0.6751                 0.7658
 IR Inten    --      2.5873                12.8327                13.3831

                     13                     14                     15
                      A                      A                      A
 Frequencies --    767.0707               799.5836               832.4451
 Red. masses --      2.4231                 3.7129                 2.6595
 Frc consts  --      0.8400                 1.3986                 1.0858
 IR Inten    --      3.3997                 4.0448                 2.6216

                     16                     17                     18
                      A                      A                      A
 Frequencies --    866.2448               923.5577               958.1162
 Red. masses --      3.4302                 3.3821                 3.0330
 Frc consts  --      1.5165                 1.6997                 1.6404
 IR Inten    --     25.1388                 4.3589                29.1158

                     19                     20                     21
                      A                      A                      A
 Frequencies --    989.2943              1010.7776              1019.8051
 Red. masses --      1.5274                 1.7542                 2.2271
 Frc consts  --      0.8808                 1.0559                 1.3647
 IR Inten    --      2.5866                 3.7699                18.6506

                     22                     23                     24
                      A                      A                      A
 Frequencies --   1055.6164              1084.9631              1105.9562
 Red. masses --      1.4427                 1.6233                 2.4725
 Frc consts  --      0.9472                 1.1259                 1.7818
 IR Inten    --      4.4736                14.7109                 2.5034

                     25                     26                     27
                      A                      A                      A
 Frequencies --   1119.0863              1157.5768              1175.3262
 Red. masses --      2.6033                 2.0792                 1.7623
 Frc consts  --      1.9209                 1.6415                 1.4343
 IR Inten    --     77.6722                69.0360                 4.4803

                     28                     29                     30
                      A                      A                      A
 Frequencies --   1223.1109              1293.5817              1300.1095
 Red. masses --      1.2139                 1.1339                 1.2618
 Frc consts  --      1.0699                 1.1179                 1.2566
 IR Inten    --      1.0987                 2.5421                 5.6608

                     31                     32                     33
                      A                      A                      A
 Frequencies --   1365.5170              1369.0202              1383.6515
 Red. masses --      1.2506                 1.4651                 1.1934
 Frc consts  --      1.3740                 1.6178                 1.3462
 IR Inten    --     10.7328                 3.3657                 0.8283

                     34                     35                     36
                      A                      A                      A
 Frequencies --   1396.6504              1410.4857              1417.6561
 Red. masses --      1.2669                 1.2672                 1.4810
 Frc consts  --      1.4560                 1.4854                 1.7536
 IR Inten    --      4.4431                14.5707                 5.0218

                     37                     38                     39
                      A                      A                      A
 Frequencies --   1463.0738              1484.3346              1496.1510
 Red. masses --      2.8545                 1.0782                 1.0535
 Frc consts  --      3.6001                 1.3997                 1.3895
 IR Inten    --     11.5279                 2.9007                 0.7772

                     40                     41                     42
                      A                      A                      A
 Frequencies --   1505.2384              1714.9973              2985.8227
 Red. masses --      1.0861                 7.1390                 1.0713
 Frc consts  --      1.4498                12.3713                 5.6274
 IR Inten    --      2.3904                 0.0665                55.8608

                     43                     44                     45
                      A                      A                      A
 Frequencies --   3017.9290              3052.8261              3074.1560
 Red. masses --      1.0846                 1.0361                 1.0846
 Frc consts  --      5.8201                 5.6895                 6.0392
 IR Inten    --     30.9731                16.2899                26.7429

                     46                     47                     48
                      A                      A                      A
 Frequencies --   3087.3286              3105.3813              3123.2665
 Red. masses --      1.0911                 1.0893                 1.1022
 Frc consts  --      6.1273                 6.1890                 6.3350
 IR Inten    --     29.3371                43.0542                15.8761

                     49                     50                     51
                      A                      A                      A
 Frequencies --   3149.2265              3150.6741              3174.0525
 Red. masses --      1.1000                 1.0838                 1.0982
 Frc consts  --      6.4278                 6.3388                 6.5187
 IR Inten    --     18.5321                 5.8788                23.0893

 - Thermochemistry -
 -------------------
 Temperature   298.150 Kelvin.  Pressure   1.00000 Atm.
 Atom     1 has atomic number  6 and mass  12.00000

 Molecular mass:   126.06808 amu.
 Principal axes and moments of inertia in atomic units:
                           1         2         3
     Eigenvalues --   832.72298 918.725441321.38695
           X            0.96653   0.25653  -0.00317
           Y           -0.25637   0.96626   0.02487
           Z            0.00944  -0.02322   0.99969
 This molecule is an asymmetric top.
 Rotational symmetry number  1.
 Warning -- assumption of classical behavior for rotation
           may cause significant error
 Rotational temperatures (Kelvin)      0.10401     0.09428     0.06555
 Rotational constants (GHZ):           2.16728     1.96440     1.36579
 Zero-point vibrational energy     419844.2 (Joules/Mol)
                                  100.34516 (Kcal/Mol)
 Warning -- explicit consideration of  10 degrees of freedom as
           vibrations may cause significant error
 Vibrational temperatures:    127.04   262.74   332.23   350.65   426.79
          (Kelvin)            470.53   521.89   595.73   730.92   763.50
                              974.63  1036.96  1103.64  1150.42  1197.70
                             1246.33  1328.79  1378.51  1423.37  1454.28
                             1467.27  1518.79  1561.02  1591.22  1610.11
                             1665.49  1691.03  1759.78  1861.17  1870.57
                             1964.67  1969.71  1990.76  2009.47  2029.37
                             2039.69  2105.03  2135.62  2152.62  2165.70
                             2467.50  4295.93  4342.12  4392.33  4423.02
                             4441.97  4467.95  4493.68  4531.03  4533.11
                             4566.75

 Zero-point correction=                           0.159910 (Hartree/Particle)
 Thermal correction to Energy=                    0.167948
 Thermal correction to Enthalpy=                  0.168892
 Thermal correction to Gibbs Free Energy=         0.127582
 Sum of electronic and zero-point Energies=           -422.993707
 Sum of electronic and thermal Energies=              -422.985670
 Sum of electronic and thermal Enthalpies=            -422.984725
 Sum of electronic and thermal Free Energies=         -423.026036

                     E (Thermal)             CV                S
                      KCal/Mol        Cal/Mol-Kelvin    Cal/Mol-Kelvin
 Total                  105.389             31.331             86.945
 Electronic               0.000              0.000              0.000
 Translational            0.889              2.981             40.409
 Rotational               0.889              2.981             28.404
 Vibrational            103.611             25.369             18.132
 Vibration     1          0.601              1.957              3.697
 Vibration     2          0.630              1.863              2.302
 Vibration     3          0.653              1.794              1.872
 Vibration     4          0.659              1.773              1.776
 Vibration     5          0.690              1.680              1.436
 Vibration     6          0.711              1.621              1.275
 Vibration     7          0.737              1.549              1.110
 Vibration     8          0.778              1.440              0.912
 Vibration     9          0.863              1.232              0.638
 Vibration    10          0.886              1.182              0.586

 Optimization completed.
    -- Stationary point found.
 Normal termination of Gaussian 09 at Tue Jan 28 09:02:56 2020.
