 Gaussian 09, Revision D.01,
 Gaussian 09:  ES64L-G09RevD.01 24-Apr-2013

 -----------------------------
 # b3lyp 6-31G(2df,p) opt Freq
 -----------------------------

 -----
 titel
 -----
 Symbolic Z-matrix:
 Charge =  0 Multiplicity = 1

 SCF Done:  E(RB3LYP) =  -423.209028930     A.U. after   14 cycles
 Optimization completed.
    -- Stationary point found.
 Normal termination of Gaussian 09 at Tue Jan 28 00:38:42 2020.

 ----------------------------------------------------------------------
 #N Geom=AllCheck Guess=TCheck SCRF=Check GenChk RB3LYP/6-31G(2df,p) Fr
 eq
 ----------------------------------------------------------------------

 Structure from the checkpoint file:  "/scratch/puck/g09_d73b930a-ecf8-4f3d-bb30-daa426592961/Gau-892.chk"
 -----
 titel
 -----
 Charge =  0 Multiplicity = 1

                         Standard orientation:
 ---------------------------------------------------------------------
 Center     Atomic      Atomic             Coordinates (Angstroms)
 Number     Number       Type             X           Y           Z
 ---------------------------------------------------------------------
      1          6           0        1.743613    1.692812    0.231961
      2          6           0        0.638642    0.878564   -0.445026
      3          6           0       -0.795116    1.311175   -0.048916
      4          6           0       -1.634229    0.030613   -0.073342
      5          8           0       -2.813854   -0.061638   -0.298586
      6          6           0       -0.683089   -1.116140    0.141781
      7          8           0        0.225301   -0.855248    1.233416
      8          6           0        0.688564   -0.616487   -0.099463
      9          6           0        1.812553   -1.487887   -0.588863
     10          1           0        1.633107    2.758569    0.009842
     11          1           0        1.698197    1.565033    1.318243
     12          1           0        2.738287    1.385817   -0.106451
     13          1           0        0.743575    0.964647   -1.534611
     14          1           0       -0.810848    1.714240    0.970104
     15          1           0       -1.229160    2.064067   -0.709245
     16          1           0       -1.000109   -2.145447    0.005311
     17          1           0        2.774264   -1.133832   -0.203327
     18          1           0        1.672727   -2.518582   -0.254860
     19          1           0        1.862753   -1.475317   -1.682441
 ---------------------------------------------------------------------

 SCF Done:  E(RB3LYP) =  -423.209028929     A.U. after    1 cycles

 The electronic state is 1-A.
 Alpha  occ. eigenvalues --  -19.16555 -19.13439 -10.27083 -10.25532 -10.24113
 Alpha  occ. eigenvalues --  -10.20663 -10.19532 -10.19239 -10.18536  -1.08756
 Alpha  occ. eigenvalues --   -1.04244  -0.82417  -0.75752  -0.73244  -0.67732
 Alpha  occ. eigenvalues --   -0.63907  -0.55998  -0.55796  -0.49180  -0.48457
 Alpha  occ. eigenvalues --   -0.45445  -0.43979  -0.43123  -0.42474  -0.41923
 Alpha  occ. eigenvalues --   -0.40017  -0.38635  -0.37390  -0.36378  -0.35593
 Alpha  occ. eigenvalues --   -0.34621  -0.30309  -0.28946  -0.23836
 Alpha virt. eigenvalues --   -0.02637   0.07487   0.09893   0.11069   0.12104
 Alpha virt. eigenvalues --    0.12699   0.13672   0.14752   0.15964   0.16218
 Alpha virt. eigenvalues --    0.17451   0.18063   0.19849   0.20231   0.20485

 Mulliken charges:
               1
     1  C   -0.409243
     2  C   -0.043113
     3  C   -0.355893
     4  C    0.417363
     5  O   -0.317711
     6  C   -0.154526
     7  O   -0.289933
     8  C    0.411330
     9  C   -0.490577
    10  H    0.120424
    11  H    0.134134
    12  H    0.116880
    13  H    0.083618
    14  H    0.139800
    15  H    0.127896
    16  H    0.108522
    17  H    0.135498
    18  H    0.136793
    19  H    0.128737
 Sum of Mulliken charges =   0.00000

 Dipole moment (field-independent basis, Debye):
    X=              2.9934    Y=              0.3632    Z=             -1.2674  Tot=              3.2708
 Quadrupole moment (field-independent basis, Debye-Ang):
   XX=            -61.4669   YY=            -49.5493   ZZ=            -54.4256
   XY=             -0.4598   XZ=             -2.3468   YZ=              1.4986

  Exact polarizability:  89.586   0.918  76.750   0.154   0.151  59.673
 Approx polarizability: 131.249   3.385 103.219   4.263  -1.558  99.910

                      1                      2                      3
                      A                      A                      A
 Frequencies --     95.3390               126.8795               199.3827
 Red. masses --      3.2075                 3.0889                 1.1191
 Frc consts  --      0.0172                 0.0293                 0.0262
 IR Inten    --      2.9499                 1.4323                 0.2208

                      4                      5                      6
                      A                      A                      A
 Frequencies --    227.1996               249.2893               289.4103
 Red. masses --      1.6306                 1.4771                 2.5647
 Frc consts  --      0.0496                 0.0541                 0.1266
 IR Inten    --      0.8036                 0.0036                 0.7285

                      7                      8                      9
                      A                      A                      A
 Frequencies --    312.5699               397.4304               481.3062
 Red. masses --      3.1388                 3.2876                 4.1445
 Frc consts  --      0.1807                 0.3060                 0.5657
 IR Inten    --      4.0231                10.2527                 6.3597

                     10                     11                     12
                      A                      A                      A
 Frequencies --    504.7307               539.9069               565.2531
 Red. masses --      3.5402                 4.2035                 2.7788
 Frc consts  --      0.5314                 0.7219                 0.5231
 IR Inten    --      4.9943                 5.1189                 3.3591

                     13                     14                     15
                      A                      A                      A
 Frequencies --    667.6195               676.5343               825.3473
 Red. masses --      3.4439                 3.5300                 3.1560
 Frc consts  --      0.9044                 0.9519                 1.2666
 IR Inten    --      0.5501                 1.4870                13.6567

                     16                     17                     18
                      A                      A                      A
 Frequencies --    829.1482               862.2348               916.3055
 Red. masses --      3.6670                 2.9660                 1.6245
 Frc consts  --      1.4853                 1.2992                 0.8036
 IR Inten    --     11.2334                13.0553                 0.4294

                     19                     20                     21
                      A                      A                      A
 Frequencies --    931.3348              1008.8746              1019.8235
 Red. masses --      2.1668                 1.6963                 1.4700
 Frc consts  --      1.1073                 1.0173                 0.9008
 IR Inten    --      2.2827                 3.6658                 5.2830

                     22                     23                     24
                      A                      A                      A
 Frequencies --   1047.0015              1078.8607              1099.8311
 Red. masses --      2.4430                 1.5456                 1.7981
 Frc consts  --      1.5779                 1.0600                 1.2815
 IR Inten    --      1.4143                11.5205                 0.8810

                     25                     26                     27
                      A                      A                      A
 Frequencies --   1135.5386              1178.8317              1209.7977
 Red. masses --      2.1814                 2.1806                 1.6219
 Frc consts  --      1.6572                 1.7854                 1.3986
 IR Inten    --      1.4498                18.2167                13.7214

                     28                     29                     30
                      A                      A                      A
 Frequencies --   1240.1544              1257.9062              1281.2196
 Red. masses --      1.9946                 1.8644                 1.4617
 Frc consts  --      1.8074                 1.7382                 1.4137
 IR Inten    --     20.7866                17.4446                 2.2287

                     31                     32                     33
                      A                      A                      A
 Frequencies --   1330.1038              1360.2356              1404.4330
 Red. masses --      1.6419                 1.6142                 1.3597
 Frc consts  --      1.7115                 1.7597                 1.5802
 IR Inten    --      3.2930                 3.6669                 6.3377

                     34                     35                     36
                      A                      A                      A
 Frequencies --   1408.1654              1434.7410              1452.6378
 Red. masses --      1.2719                 2.8983                 1.1005
 Frc consts  --      1.4860                 3.5151                 1.3682
 IR Inten    --      2.2532                25.4677                 6.4440

                     37                     38                     39
                      A                      A                      A
 Frequencies --   1481.5627              1494.4705              1501.1348
 Red. masses --      1.0648                 1.0882                 1.0482
 Frc consts  --      1.3771                 1.4320                 1.3917
 IR Inten    --      6.9487                 2.6160                 2.0058

                     40                     41                     42
                      A                      A                      A
 Frequencies --   1502.6394              1844.7905              3021.7026
 Red. masses --      1.0638                12.2288                 1.0828
 Frc consts  --      1.4152                24.5204                 5.8252
 IR Inten    --      5.1343               252.9516                16.1401

                     43                     44                     45
                      A                      A                      A
 Frequencies --   3035.7092              3041.2279              3054.3870
 Red. masses --      1.0350                 1.0364                 1.0647
 Frc consts  --      5.6194                 5.6476                 5.8525
 IR Inten    --     16.3010                20.2818                 6.0466

                     46                     47                     48
                      A                      A                      A
 Frequencies --   3102.5646              3106.4077              3111.2753
 Red. masses --      1.1008                 1.1009                 1.1022
 Frc consts  --      6.2432                 6.2591                 6.2861
 IR Inten    --     20.5579                21.2181                17.2562

                     49                     50                     51
                      A                      A                      A
 Frequencies --   3122.3043              3128.5687              3172.1552
 Red. masses --      1.0981                 1.1011                 1.0927
 Frc consts  --      6.3076                 6.3502                 6.4781
 IR Inten    --      9.1618                12.9098                11.8963

 - Thermochemistry -
 -------------------
 Temperature   298.150 Kelvin.  Pressure   1.00000 Atm.
 Atom     1 has atomic number  6 and mass  12.00000

 Molecular mass:   126.06808 amu.
 Principal axes and moments of inertia in atomic units:
                           1         2         3
     Eigenvalues --   709.572281182.528491594.04805
           X            0.99991   0.00115  -0.01357
           Y           -0.00069   0.99942   0.03398
           Z            0.01360  -0.03396   0.99933
 This molecule is an asymmetric top.
 Rotational symmetry number  1.
 Warning -- assumption of classical behavior for rotation
           may cause significant error
 Rotational temperatures (Kelvin)      0.12206     0.07324     0.05434
 Rotational constants (GHZ):           2.54342     1.52617     1.13217
 Zero-point vibrational energy     414902.5 (Joules/Mol)
                                   99.16407 (Kcal/Mol)
 Warning -- explicit consideration of  12 degrees of freedom as
           vibrations may cause significant error
 Vibrational temperatures:    137.17   182.55   286.87   326.89   358.67
          (Kelvin)            416.40   449.72   571.81   692.49   726.19
                              776.80   813.27   960.55   973.38  1187.49
                             1192.96  1240.56  1318.36  1339.98  1451.54
                             1467.30  1506.40  1552.24  1582.41  1633.78
                             1696.07  1740.63  1784.30  1809.84  1843.39
                             1913.72  1957.07  2020.66  2026.03  2064.27
                             2090.02  2131.64  2150.21  2159.80  2161.96
                             2654.24  4347.55  4367.70  4375.64  4394.58
                             4463.89  4469.42  4476.43  4492.29  4501.31
                             4564.02

 Zero-point correction=                           0.158028 (Hartree/Particle)
 Thermal correction to Energy=                    0.166709
 Thermal correction to Enthalpy=                  0.167653
 Thermal correction to Gibbs Free Energy=         0.124944
 Sum of electronic and zero-point Energies=           -423.051001
 Sum of electronic and thermal Energies=              -423.042320
 Sum of electronic and thermal Enthalpies=            -423.041376
 Sum of electronic and thermal Free Energies=         -423.084085

                     E (Thermal)             CV                S
                      KCal/Mol        Cal/Mol-Kelvin    Cal/Mol-Kelvin
 Total                  104.611             33.114             89.889
 Electronic               0.000              0.000              0.000
 Translational            0.889              2.981             40.409
 Rotational               0.889              2.981             28.683
 Vibrational            102.834             27.152             20.798
 Vibration     1          0.603              1.953              3.547
 Vibration     2          0.611              1.926              2.993
 Vibration     3          0.638              1.841              2.139
 Vibration     4          0.651              1.800              1.901
 Vibration     5          0.662              1.764              1.736
 Vibration     6          0.686              1.693              1.477
 Vibration     7          0.701              1.650              1.349
 Vibration     8          0.764              1.476              0.972
 Vibration     9          0.838              1.292              0.707
 Vibration    10          0.860              1.240              0.646
 Vibration    11          0.895              1.162              0.565
 Vibration    12          0.921              1.106              0.513

 Optimization completed.
    -- Stationary point found.
 Normal termination of Gaussian 09 at Tue Jan 28 01:21:21 2020.
