 Gaussian 09, Revision D.01,
 Gaussian 09:  ES64L-G09RevD.01 24-Apr-2013

 -----------------------------
 # b3lyp 6-31G(2df,p) opt Freq
 -----------------------------

 -----
 titel
 -----
 Symbolic Z-matrix:
 Charge =  0 Multiplicity = 1

 SCF Done:  E(RB3LYP) =  -423.101086526     A.U. after   14 cycles
 Optimization completed.
    -- Stationary point found.
 Normal termination of Gaussian 09 at Tue Jan 28 02:57:04 2020.

 ----------------------------------------------------------------------
 #N Geom=AllCheck Guess=TCheck SCRF=Check GenChk RB3LYP/6-31G(2df,p) Fr
 eq
 ----------------------------------------------------------------------

 Structure from the checkpoint file:  "/scratch/puck/g09_b20ae034-4880-4d96-b015-23503616a967/Gau-87727.chk"
 -----
 titel
 -----
 Charge =  0 Multiplicity = 1

                         Standard orientation:
 ---------------------------------------------------------------------
 Center     Atomic      Atomic             Coordinates (Angstroms)
 Number     Number       Type             X           Y           Z
 ---------------------------------------------------------------------
      1          6           0       -2.497996    0.793948   -0.137579
      2          6           0       -1.473796   -0.135511    0.481792
      3          8           0       -1.108345   -1.254661   -0.419925
      4          6           0        0.092084   -0.544172   -0.868564
      5          6           0        1.546590   -0.750953   -0.364556
      6          6           0        0.973867   -0.790425    1.069318
      7          6           0        0.003518    0.257703    0.421890
      8          8           0        0.791345    1.421293    0.282080
      9          6           0        1.929067    0.776839   -0.401638
     10          1           0       -3.420781    0.245266   -0.346906
     11          1           0       -2.730032    1.610682    0.553926
     12          1           0       -2.131568    1.228373   -1.071360
     13          1           0       -1.819070   -0.527658    1.444635
     14          1           0       -0.056297   -0.115026   -1.862592
     15          1           0        2.295280   -1.437630   -0.763870
     16          1           0        0.493552   -1.731588    1.325770
     17          1           0        1.604085   -0.416878    1.878594
     18          1           0        2.013265    1.185666   -1.414689
     19          1           0        2.847570    0.981155    0.155274
 ---------------------------------------------------------------------

 SCF Done:  E(RB3LYP) =  -423.101086526     A.U. after    1 cycles

 The electronic state is 1-A.
 Alpha  occ. eigenvalues --  -19.14517 -19.14225 -10.24557 -10.23924 -10.23901
 Alpha  occ. eigenvalues --  -10.22430 -10.20816 -10.18263 -10.18058  -1.06018
 Alpha  occ. eigenvalues --   -1.02185  -0.82852  -0.75957  -0.71498  -0.66495
 Alpha  occ. eigenvalues --   -0.63309  -0.57180  -0.52847  -0.51357  -0.49689
 Alpha  occ. eigenvalues --   -0.47191  -0.46438  -0.41917  -0.40843  -0.39780
 Alpha  occ. eigenvalues --   -0.38201  -0.37250  -0.35827  -0.34109  -0.33472
 Alpha  occ. eigenvalues --   -0.32686  -0.27998  -0.25727  -0.23543
 Alpha virt. eigenvalues --    0.05290   0.09054   0.10129   0.11963   0.12751
 Alpha virt. eigenvalues --    0.13719   0.14179   0.14871   0.15719   0.16598
 Alpha virt. eigenvalues --    0.17497   0.18489   0.19269   0.20204   0.20847

 Mulliken charges:
               1
     1  C   -0.399548
     2  C    0.026523
     3  O   -0.324890
     4  C    0.088564
     5  C   -0.144064
     6  C   -0.277754
     7  C    0.409043
     8  O   -0.355182
     9  C   -0.091634
    10  H    0.129027
    11  H    0.125558
    12  H    0.127326
    13  H    0.086589
    14  H    0.079045
    15  H    0.074431
    16  H    0.122746
    17  H    0.096576
    18  H    0.110366
    19  H    0.117277
 Sum of Mulliken charges =   0.00000

 Dipole moment (field-independent basis, Debye):
    X=              0.7497    Y=              0.1586    Z=             -0.0018  Tot=              0.7663
 Quadrupole moment (field-independent basis, Debye-Ang):
   XX=            -48.5829   YY=            -58.6045   ZZ=            -51.5117
   XY=             -2.7985   XZ=             -2.4531   YZ=             -2.1157

  Exact polarizability:  89.687  -0.631  65.597  -2.642  -2.858  68.739
 Approx polarizability: 119.009   2.916 104.340  -4.469   0.019 106.435

                      1                      2                      3
                      A                      A                      A
 Frequencies --    164.8741               219.4143               223.0008
 Red. masses --      3.0877                 1.8918                 1.3145
 Frc consts  --      0.0495                 0.0537                 0.0385
 IR Inten    --      1.4520                 3.2852                 1.2693

                      4                      5                      6
                      A                      A                      A
 Frequencies --    320.7063               409.8420               429.1767
 Red. masses --      2.3817                 3.1869                 4.2036
 Frc consts  --      0.1443                 0.3154                 0.4562
 IR Inten    --      1.2440                 6.1192                 5.4795

                      7                      8                      9
                      A                      A                      A
 Frequencies --    465.6619               501.4476               573.3100
 Red. masses --      2.5270                 2.8674                 4.2157
 Frc consts  --      0.3228                 0.4248                 0.8164
 IR Inten    --      2.8768                 5.1764                 0.5481

                     10                     11                     12
                      A                      A                      A
 Frequencies --    684.6895               744.9456               823.7736
 Red. masses --      4.0755                 2.6977                 4.1720
 Frc consts  --      1.1257                 0.8821                 1.6680
 IR Inten    --      6.1677                 6.6550                35.9124

                     13                     14                     15
                      A                      A                      A
 Frequencies --    825.5109               846.0272               857.6681
 Red. masses --      3.7664                 3.5276                 2.4856
 Frc consts  --      1.5123                 1.4876                 1.0773
 IR Inten    --      5.1547                11.3029                20.6973

                     16                     17                     18
                      A                      A                      A
 Frequencies --    912.6384               928.2237               961.4841
 Red. masses --      3.5555                 2.1553                 3.0888
 Frc consts  --      1.7448                 1.0941                 1.6824
 IR Inten    --     24.0399                11.6615                 8.7074

                     19                     20                     21
                      A                      A                      A
 Frequencies --    981.1537              1002.2955              1008.5885
 Red. masses --      1.7551                 2.5648                 1.6458
 Frc consts  --      0.9955                 1.5181                 0.9864
 IR Inten    --     11.1000                40.4410                19.0708

                     22                     23                     24
                      A                      A                      A
 Frequencies --   1055.8661              1065.0463              1081.0970
 Red. masses --      2.0958                 1.8076                 1.5001
 Frc consts  --      1.3766                 1.2080                 1.0330
 IR Inten    --     13.6477                 8.7038                18.0336

                     25                     26                     27
                      A                      A                      A
 Frequencies --   1101.3105              1129.5617              1159.2592
 Red. masses --      1.8266                 2.0662                 1.3969
 Frc consts  --      1.3053                 1.5532                 1.1060
 IR Inten    --      6.9868                 0.1217                 4.5917

                     28                     29                     30
                      A                      A                      A
 Frequencies --   1180.5624              1231.2306              1236.9400
 Red. masses --      1.5610                 1.5346                 1.6816
 Frc consts  --      1.2819                 1.3706                 1.5159
 IR Inten    --      4.0159                11.1490                29.9129

                     31                     32                     33
                      A                      A                      A
 Frequencies --   1259.4210              1269.9189              1314.0877
 Red. masses --      1.6688                 1.9871                 2.1001
 Frc consts  --      1.5596                 1.8881                 2.1367
 IR Inten    --      6.6154                 6.8852                12.2086

                     34                     35                     36
                      A                      A                      A
 Frequencies --   1330.4510              1357.5422              1384.9323
 Red. masses --      1.2482                 1.4998                 1.5694
 Frc consts  --      1.3017                 1.6285                 1.7735
 IR Inten    --     17.4066                 3.3308                 8.6369

                     37                     38                     39
                      A                      A                      A
 Frequencies --   1407.9546              1483.8302              1487.4428
 Red. masses --      1.3039                 1.1166                 1.0620
 Frc consts  --      1.5229                 1.4486                 1.3844
 IR Inten    --     11.6971                 3.3209                 5.5439

                     40                     41                     42
                      A                      A                      A
 Frequencies --   1490.3283              1510.3719              3039.3325
 Red. masses --      1.0497                 1.1156                 1.0589
 Frc consts  --      1.3737                 1.4994                 5.7634
 IR Inten    --      3.1807                 0.8285                43.6389

                     43                     44                     45
                      A                      A                      A
 Frequencies --   3041.8209              3049.9356              3072.8213
 Red. masses --      1.0371                 1.0842                 1.0857
 Frc consts  --      5.6536                 5.9421                 6.0400
 IR Inten    --     12.1897                45.2290                32.1414

                     46                     47                     48
                      A                      A                      A
 Frequencies --   3083.5500              3097.9122              3101.2515
 Red. masses --      1.0617                 1.1040                 1.0937
 Frc consts  --      5.9479                 6.2426                 6.1976
 IR Inten    --     26.1551                26.4076                56.8496

                     49                     50                     51
                      A                      A                      A
 Frequencies --   3113.1779              3126.4061              3172.4700
 Red. masses --      1.1007                 1.1021                 1.1065
 Frc consts  --      6.2855                 6.3468                 6.5616
 IR Inten    --     15.2355                24.5870                10.0542

 - Thermochemistry -
 -------------------
 Temperature   298.150 Kelvin.  Pressure   1.00000 Atm.
 Atom     1 has atomic number  6 and mass  12.00000

 Molecular mass:   126.06808 amu.
 Principal axes and moments of inertia in atomic units:
                           1         2         3
     Eigenvalues --   548.877891120.046341309.64974
           X            0.99916  -0.04092  -0.00231
           Y            0.04057   0.99557  -0.08479
           Z            0.00577   0.08462   0.99640
 This molecule is an asymmetric top.
 Rotational symmetry number  1.
 Warning -- assumption of classical behavior for rotation
           may cause significant error
 Rotational temperatures (Kelvin)      0.15780     0.07733     0.06614
 Rotational constants (GHZ):           3.28806     1.61131     1.37803
 Zero-point vibrational energy     420608.6 (Joules/Mol)
                                  100.52786 (Kcal/Mol)
 Warning -- explicit consideration of   9 degrees of freedom as
           vibrations may cause significant error
 Vibrational temperatures:    237.22   315.69   320.85   461.42   589.67
          (Kelvin)            617.49   669.98   721.47   824.86   985.11
                             1071.81  1185.22  1187.72  1217.24  1233.99
                             1313.08  1335.51  1383.36  1411.66  1442.08
                             1451.13  1519.15  1532.36  1555.46  1584.54
                             1625.19  1667.91  1698.56  1771.46  1779.68
                             1812.02  1827.13  1890.68  1914.22  1953.20
                             1992.61  2025.73  2134.90  2140.10  2144.25
                             2173.09  4372.92  4376.50  4388.17  4421.10
                             4436.54  4457.20  4462.00  4479.16  4498.20
                             4564.47

 Zero-point correction=                           0.160201 (Hartree/Particle)
 Thermal correction to Energy=                    0.167366
 Thermal correction to Enthalpy=                  0.168310
 Thermal correction to Gibbs Free Energy=         0.129045
 Sum of electronic and zero-point Energies=           -422.940885
 Sum of electronic and thermal Energies=              -422.933721
 Sum of electronic and thermal Enthalpies=            -422.932777
 Sum of electronic and thermal Free Energies=         -422.972041

                     E (Thermal)             CV                S
                      KCal/Mol        Cal/Mol-Kelvin    Cal/Mol-Kelvin
 Total                  105.024             29.622             82.639
 Electronic               0.000              0.000              0.000
 Translational            0.889              2.981             40.409
 Rotational               0.889              2.981             28.178
 Vibrational            103.246             23.661             14.052
 Vibration     1          0.623              1.886              2.493
 Vibration     2          0.647              1.812              1.964
 Vibration     3          0.649              1.806              1.935
 Vibration     4          0.706              1.634              1.307
 Vibration     5          0.774              1.449              0.927
 Vibration     6          0.791              1.407              0.861
 Vibration     7          0.823              1.326              0.750
 Vibration     8          0.857              1.247              0.655
 Vibration     9          0.930              1.089              0.498

 Optimization completed.
    -- Stationary point found.
 Normal termination of Gaussian 09 at Tue Jan 28 03:41:47 2020.
