 Gaussian 09, Revision D.01,
 Gaussian 09:  ES64L-G09RevD.01 24-Apr-2013

 -----------------------------
 # b3lyp 6-31G(2df,p) opt Freq
 -----------------------------

 -----
 titel
 -----
 Symbolic Z-matrix:
 Charge =  0 Multiplicity = 1

 SCF Done:  E(RB3LYP) =  -423.172643947     A.U. after   13 cycles
 SCF Done:  E(RB3LYP) =  -423.172644104     A.U. after    6 cycles
 Optimization completed.
    -- Stationary point found.
 Normal termination of Gaussian 09 at Tue Jan 28 04:00:54 2020.

 ----------------------------------------------------------------------
 #N Geom=AllCheck Guess=TCheck SCRF=Check GenChk RB3LYP/6-31G(2df,p) Fr
 eq
 ----------------------------------------------------------------------

 Structure from the checkpoint file:  "/scratch/puck/g09_db21eda2-3209-4574-bf31-d3a3ecc4cfde/Gau-43598.chk"
 -----
 titel
 -----
 Charge =  0 Multiplicity = 1

                         Standard orientation:
 ---------------------------------------------------------------------
 Center     Atomic      Atomic             Coordinates (Angstroms)
 Number     Number       Type             X           Y           Z
 ---------------------------------------------------------------------
      1          8           0        0.265237   -1.259458    1.311479
      2          6           0        0.119073   -1.367468   -0.091449
      3          6           0       -1.351019   -1.153595   -0.462588
      4          6           0       -1.956616    0.211256   -0.237166
      5          6           0       -1.403137    1.359275    0.158878
      6          6           0        0.044694    1.611972    0.522156
      7          6           0        1.015095    1.041984   -0.498709
      8          8           0        2.088055    0.186265   -0.043248
      9          6           0        1.028993   -0.384317   -0.824714
     10          1           0        1.175426   -0.966438    1.459191
     11          1           0        0.399383   -2.384939   -0.413018
     12          1           0       -1.481995   -1.427439   -1.520610
     13          1           0       -1.942320   -1.890917    0.097002
     14          1           0       -3.027051    0.232043   -0.439107
     15          1           0       -2.064814    2.216194    0.261849
     16          1           0        0.216939    2.688181    0.621380
     17          1           0        0.257434    1.161814    1.496259
     18          1           0        1.335502    1.732824   -1.278154
     19          1           0        1.322663   -0.690419   -1.829085
 ---------------------------------------------------------------------

 SCF Done:  E(RB3LYP) =  -423.172644104     A.U. after    1 cycles

 The electronic state is 1-A.
 Alpha  occ. eigenvalues --  -19.15978 -19.13224 -10.24070 -10.23781 -10.23755
 Alpha  occ. eigenvalues --  -10.19064 -10.18763 -10.18325 -10.18163  -1.07732
 Alpha  occ. eigenvalues --   -1.01460  -0.81096  -0.76521  -0.71999  -0.66274
 Alpha  occ. eigenvalues --   -0.63253  -0.57035  -0.53679  -0.51854  -0.49911
 Alpha  occ. eigenvalues --   -0.47392  -0.44758  -0.43138  -0.41093  -0.40300
 Alpha  occ. eigenvalues --   -0.39109  -0.38139  -0.36563  -0.33589  -0.32592
 Alpha  occ. eigenvalues --   -0.30554  -0.27719  -0.26239  -0.24232
 Alpha virt. eigenvalues --    0.02044   0.07997   0.08852   0.10382   0.11393
 Alpha virt. eigenvalues --    0.11950   0.13665   0.16287   0.16621   0.17647
 Alpha virt. eigenvalues --    0.18367   0.18607   0.20761   0.22068   0.22688

 Mulliken charges:
               1
     1  O   -0.436540
     2  C    0.075750
     3  C   -0.263955
     4  C   -0.021257
     5  C   -0.067538
     6  C   -0.288403
     7  C    0.061044
     8  O   -0.277985
     9  C    0.029516
    10  H    0.291989
    11  H    0.068671
    12  H    0.107270
    13  H    0.122507
    14  H    0.086409
    15  H    0.085750
    16  H    0.098297
    17  H    0.135511
    18  H    0.099589
    19  H    0.093375
 Sum of Mulliken charges =   0.00000

 Dipole moment (field-independent basis, Debye):
    X=             -0.6158    Y=              0.4677    Z=             -1.6309  Tot=              1.8049
 Quadrupole moment (field-independent basis, Debye-Ang):
   XX=            -55.2730   YY=            -50.4037   ZZ=            -53.3646
   XY=             -0.1020   XZ=              0.6635   YZ=              2.5736

  Exact polarizability:  77.160   3.567  86.370   1.770   6.669  62.061
 Approx polarizability: 110.931   9.710 129.458   7.185  11.781  98.176

                      1                      2                      3
                      A                      A                      A
 Frequencies --    118.2309               190.4546               246.5629
 Red. masses --      2.4553                 4.7714                 3.8587
 Frc consts  --      0.0202                 0.1020                 0.1382
 IR Inten    --      0.8196                 6.6767                 3.7273

                      4                      5                      6
                      A                      A                      A
 Frequencies --    299.3749               332.1944               385.5737
 Red. masses --      3.4014                 3.0420                 2.5846
 Frc consts  --      0.1796                 0.1978                 0.2264
 IR Inten    --     12.5174                11.3367                 0.3936

                      7                      8                      9
                      A                      A                      A
 Frequencies --    444.0148               449.7491               485.8815
 Red. masses --      2.6338                 3.4760                 1.5037
 Frc consts  --      0.3059                 0.4143                 0.2092
 IR Inten    --     11.5913                33.7937                71.2899

                     10                     11                     12
                      A                      A                      A
 Frequencies --    545.7402               665.6492               726.3800
 Red. masses --      3.0682                 1.3709                 2.7393
 Frc consts  --      0.5384                 0.3579                 0.8516
 IR Inten    --     13.1079                22.9841                 4.4646

                     13                     14                     15
                      A                      A                      A
 Frequencies --    767.0587               813.4907               827.9653
 Red. masses --      3.2887                 5.0354                 3.0298
 Frc consts  --      1.1401                 1.9633                 1.2237
 IR Inten    --     16.1420                 4.8370                 0.6604

                     16                     17                     18
                      A                      A                      A
 Frequencies --    859.8127               913.1036               927.2166
 Red. masses --      4.8796                 3.3388                 2.1579
 Frc consts  --      2.1254                 1.6402                 1.0930
 IR Inten    --     29.9364                 1.7034                15.7042

                     19                     20                     21
                      A                      A                      A
 Frequencies --    962.2720              1003.1590              1015.2679
 Red. masses --      2.4355                 1.5118                 1.7239
 Frc consts  --      1.3287                 0.8964                 1.0470
 IR Inten    --     22.5679                11.5478                11.3574

                     22                     23                     24
                      A                      A                      A
 Frequencies --   1041.3428              1056.0940              1099.3189
 Red. masses --      2.5883                 2.0831                 1.6141
 Frc consts  --      1.6537                 1.3689                 1.1493
 IR Inten    --      2.9944                 7.3311                17.7321

                     25                     26                     27
                      A                      A                      A
 Frequencies --   1128.8202              1153.2649              1227.2712
 Red. masses --      1.8054                 1.4348                 1.1889
 Frc consts  --      1.3554                 1.1243                 1.0550
 IR Inten    --     13.0482                 5.4825                 4.3627

                     28                     29                     30
                      A                      A                      A
 Frequencies --   1249.1608              1252.8888              1284.6327
 Red. masses --      1.1309                 1.2368                 1.2036
 Frc consts  --      1.0397                 1.1439                 1.1702
 IR Inten    --      9.8526                 0.9653                10.9114

                     31                     32                     33
                      A                      A                      A
 Frequencies --   1303.9217              1350.8989              1371.7637
 Red. masses --      1.2022                 1.3618                 1.4176
 Frc consts  --      1.2042                 1.4642                 1.5717
 IR Inten    --     25.4634                 0.3605                 0.6296

                     34                     35                     36
                      A                      A                      A
 Frequencies --   1384.5577              1398.6264              1423.9001
 Red. masses --      1.2968                 1.5335                 1.4078
 Frc consts  --      1.4646                 1.7675                 1.6817
 IR Inten    --     10.1038                 7.1117                 7.7511

                     37                     38                     39
                      A                      A                      A
 Frequencies --   1450.4879              1455.2454              1475.7337
 Red. masses --      1.5352                 1.1015                 1.1763
 Frc consts  --      1.9030                 1.3744                 1.5093
 IR Inten    --     39.0139                 6.6474                 6.5508

                     40                     41                     42
                      A                      A                      A
 Frequencies --   1487.4608              1728.8479              2949.1916
 Red. masses --      2.6328                 6.8157                 1.0823
 Frc consts  --      3.4320                12.0025                 5.5462
 IR Inten    --      9.4807                 3.7628                61.9969

                     43                     44                     45
                      A                      A                      A
 Frequencies --   3001.5985              3035.3446              3050.4125
 Red. masses --      1.0666                 1.0934                 1.0601
 Frc consts  --      5.6617                 5.9352                 5.8120
 IR Inten    --     35.2170                17.7331                26.3188

                     46                     47                     48
                      A                      A                      A
 Frequencies --   3088.6162              3104.6357              3119.0164
 Red. masses --      1.0985                 1.0869                 1.0922
 Frc consts  --      6.1740                 6.1724                 6.2602
 IR Inten    --      1.0635                21.9921                41.7338

                     49                     50                     51
                      A                      A                      A
 Frequencies --   3124.5578              3155.7430              3742.4510
 Red. masses --      1.0845                 1.0932                 1.0650
 Frc consts  --      6.2380                 6.4143                 8.7885
 IR Inten    --     13.4900                38.5259                46.5441

 - Thermochemistry -
 -------------------
 Temperature   298.150 Kelvin.  Pressure   1.00000 Atm.
 Atom     1 has atomic number  8 and mass  15.99491

 Molecular mass:   126.06808 amu.
 Principal axes and moments of inertia in atomic units:
                           1         2         3
     Eigenvalues --   788.00830 965.078851339.00566
           X            0.99990   0.01298   0.00562
           Y           -0.01320   0.99901   0.04253
           Z           -0.00506  -0.04260   0.99908
 This molecule is an asymmetric top.
 Rotational symmetry number  1.
 Warning -- assumption of classical behavior for rotation
           may cause significant error
 Rotational temperatures (Kelvin)      0.10991     0.08975     0.06469
 Rotational constants (GHZ):           2.29026     1.87005     1.34782
 Zero-point vibrational energy     422730.1 (Joules/Mol)
                                  101.03492 (Kcal/Mol)
 Warning -- explicit consideration of  10 degrees of freedom as
           vibrations may cause significant error
 Vibrational temperatures:    170.11   274.02   354.75   430.73   477.95
          (Kelvin)            554.75   638.84   647.09   699.07   785.20
                              957.72  1045.10  1103.63  1170.43  1191.26
                             1237.08  1313.75  1334.06  1384.49  1443.32
                             1460.74  1498.26  1519.48  1581.67  1624.12
                             1659.29  1765.77  1797.26  1802.63  1848.30
                             1876.05  1943.64  1973.66  1992.07  2012.31
                             2048.67  2086.93  2093.77  2123.25  2140.12
                             2487.42  4243.22  4318.63  4367.18  4388.86
                             4443.82  4466.87  4487.56  4495.54  4540.40
                             5384.55

 Zero-point correction=                           0.161009 (Hartree/Particle)
 Thermal correction to Energy=                    0.168693
 Thermal correction to Enthalpy=                  0.169638
 Thermal correction to Gibbs Free Energy=         0.129221
 Sum of electronic and zero-point Energies=           -423.011635
 Sum of electronic and thermal Energies=              -423.003951
 Sum of electronic and thermal Enthalpies=            -423.003006
 Sum of electronic and thermal Free Energies=         -423.043423

                     E (Thermal)             CV                S
                      KCal/Mol        Cal/Mol-Kelvin    Cal/Mol-Kelvin
 Total                  105.857             30.939             85.064
 Electronic               0.000              0.000              0.000
 Translational            0.889              2.981             40.409
 Rotational               0.889              2.981             28.412
 Vibrational            104.079             24.977             16.244
 Vibration     1          0.608              1.934              3.129
 Vibration     2          0.634              1.853              2.223
 Vibration     3          0.661              1.768              1.755
 Vibration     4          0.692              1.675              1.420
 Vibration     5          0.714              1.611              1.249
 Vibration     6          0.754              1.501              1.017
 Vibration     7          0.804              1.374              0.814
 Vibration     8          0.809              1.361              0.797
 Vibration     9          0.842              1.281              0.694
 Vibration    10          0.901              1.149              0.553

 Optimization completed.
    -- Stationary point found.
 Normal termination of Gaussian 09 at Tue Jan 28 04:49:04 2020.
