 Gaussian 09, Revision D.01,
 Gaussian 09:  ES64L-G09RevD.01 24-Apr-2013

 -----------------------------
 # b3lyp 6-31G(2df,p) opt Freq
 -----------------------------

 -----
 titel
 -----
 Symbolic Z-matrix:
 Charge =  0 Multiplicity = 1

 SCF Done:  E(RB3LYP) =  -423.208935571     A.U. after   14 cycles
 Optimization completed.
    -- Stationary point found.
 Normal termination of Gaussian 09 at Tue Jan 28 03:55:03 2020.

 ----------------------------------------------------------------------
 #N Geom=AllCheck Guess=TCheck SCRF=Check GenChk RB3LYP/6-31G(2df,p) Fr
 eq
 ----------------------------------------------------------------------

 Structure from the checkpoint file:  "/scratch/puck/g09_87ae119b-193f-42c2-a5d9-31e6ddca5d77/Gau-116362.chk"
 -----
 titel
 -----
 Charge =  0 Multiplicity = 1

                         Standard orientation:
 ---------------------------------------------------------------------
 Center     Atomic      Atomic             Coordinates (Angstroms)
 Number     Number       Type             X           Y           Z
 ---------------------------------------------------------------------
      1          8           0       -1.436692   -1.555542   -0.795586
      2          6           0       -0.924074   -0.865423    0.341612
      3          6           0       -1.742087    0.406237    0.689132
      4          6           0       -1.069058    1.550429   -0.087316
      5          6           0        0.403879    1.136846   -0.171688
      6          8           0        1.339307    1.855547   -0.432494
      7          6           0        0.485762   -0.330266    0.130621
      8          6           0        1.690101   -0.812206    0.931600
      9          6           0        1.590036   -1.147971   -0.514602
     10          1           0       -1.224969   -1.043525   -1.583295
     11          1           0       -0.975332   -1.600013    1.149495
     12          1           0       -2.796004    0.262007    0.443842
     13          1           0       -1.669236    0.596364    1.765700
     14          1           0       -1.453970    1.624899   -1.113494
     15          1           0       -1.174716    2.540802    0.359925
     16          1           0        2.397781   -0.044843    1.226205
     17          1           0        1.507329   -1.590969    1.663974
     18          1           0        2.235144   -0.611292   -1.202081
     19          1           0        1.325703   -2.159349   -0.801782
 ---------------------------------------------------------------------

 SCF Done:  E(RB3LYP) =  -423.208935571     A.U. after    1 cycles

 The electronic state is 1-A.
 Alpha  occ. eigenvalues --  -19.14099 -19.12700 -10.26554 -10.24093 -10.20326
 Alpha  occ. eigenvalues --  -10.20213 -10.19983 -10.19429 -10.19033  -1.03834
 Alpha  occ. eigenvalues --   -1.02293  -0.87604  -0.81135  -0.69686  -0.66374
 Alpha  occ. eigenvalues --   -0.61241  -0.59557  -0.52815  -0.51383  -0.48822
 Alpha  occ. eigenvalues --   -0.46656  -0.44885  -0.43842  -0.41877  -0.40278
 Alpha  occ. eigenvalues --   -0.38564  -0.38157  -0.36991  -0.34452  -0.34163
 Alpha  occ. eigenvalues --   -0.31520  -0.29366  -0.27072  -0.24122
 Alpha virt. eigenvalues --   -0.02053   0.06387   0.09088   0.11279   0.11539
 Alpha virt. eigenvalues --    0.12045   0.14010   0.15259   0.16517   0.17394
 Alpha virt. eigenvalues --    0.18767   0.19545   0.20132   0.21665   0.22468

 Mulliken charges:
               1
     1  O   -0.431227
     2  C    0.022187
     3  C   -0.243519
     4  C   -0.340765
     5  C    0.348916
     6  O   -0.340381
     7  C    0.210332
     8  C   -0.300103
     9  C   -0.302139
    10  H    0.279730
    11  H    0.086958
    12  H    0.113160
    13  H    0.109217
    14  H    0.126879
    15  H    0.131325
    16  H    0.137276
    17  H    0.123113
    18  H    0.136256
    19  H    0.132787
 Sum of Mulliken charges =   0.00000

 Dipole moment (field-independent basis, Debye):
    X=             -1.0520    Y=             -0.6954    Z=              0.5668  Tot=              1.3826
 Quadrupole moment (field-independent basis, Debye-Ang):
   XX=            -56.2372   YY=            -59.0168   ZZ=            -49.1015
   XY=             -7.4944   XZ=              0.9657   YZ=              0.0249

  Exact polarizability:  81.799  -4.050  78.330  -0.313  -1.917  66.576
 Approx polarizability: 114.876   1.624 115.199  -0.062  -3.854 103.503

                      1                      2                      3
                      A                      A                      A
 Frequencies --     62.8962               144.2911               191.6962
 Red. masses --      4.6296                 2.4262                 1.7768
 Frc consts  --      0.0108                 0.0298                 0.0385
 IR Inten    --      5.4288                 5.6465                30.1214

                      4                      5                      6
                      A                      A                      A
 Frequencies --    225.4228               234.3247               257.2129
 Red. masses --      1.9501                 2.2056                 2.4702
 Frc consts  --      0.0584                 0.0714                 0.0963
 IR Inten    --     33.6439                 0.6003                20.3934

                      7                      8                      9
                      A                      A                      A
 Frequencies --    356.9275               462.4378               471.6927
 Red. masses --      3.7137                 3.2926                 3.3305
 Frc consts  --      0.2787                 0.4149                 0.4366
 IR Inten    --     18.3143                 1.7198                 0.1434

                     10                     11                     12
                      A                      A                      A
 Frequencies --    561.1617               580.8275               662.9514
 Red. masses --      2.5616                 3.5018                 5.1063
 Frc consts  --      0.4753                 0.6960                 1.3223
 IR Inten    --      4.0472                 0.2242                 2.4398

                     13                     14                     15
                      A                      A                      A
 Frequencies --    733.4469               793.9282               798.6039
 Red. masses --      2.6899                 1.3427                 1.6443
 Frc consts  --      0.8526                 0.4986                 0.6179
 IR Inten    --     10.0471                 7.4463                 4.9489

                     16                     17                     18
                      A                      A                      A
 Frequencies --    855.3115               886.1116               912.3050
 Red. masses --      2.4037                 2.8508                 2.5014
 Frc consts  --      1.0361                 1.3189                 1.2266
 IR Inten    --      7.4999                 5.4412                 4.1615

                     19                     20                     21
                      A                      A                      A
 Frequencies --    963.8305               973.1537               991.0256
 Red. masses --      1.5210                 2.0419                 2.4499
 Frc consts  --      0.8325                 1.1393                 1.4176
 IR Inten    --      6.7980                14.5334                20.9839

                     22                     23                     24
                      A                      A                      A
 Frequencies --   1033.2449              1058.1227              1075.2179
 Red. masses --      1.8955                 1.4164                 2.0520
 Frc consts  --      1.1923                 0.9344                 1.3977
 IR Inten    --     11.1738                 7.9831                42.1907

                     25                     26                     27
                      A                      A                      A
 Frequencies --   1095.6711              1102.6722              1147.5809
 Red. masses --      1.5139                 2.7870                 1.3023
 Frc consts  --      1.0708                 1.9965                 1.0105
 IR Inten    --     18.9606                83.0879                41.4631

                     28                     29                     30
                      A                      A                      A
 Frequencies --   1191.4313              1205.8804              1264.5021
 Red. masses --      1.5210                 1.2920                 1.7440
 Frc consts  --      1.2721                 1.1070                 1.6430
 IR Inten    --      7.6545                 0.3140                11.4293

                     31                     32                     33
                      A                      A                      A
 Frequencies --   1274.4821              1288.3331              1306.3466
 Red. masses --      1.3831                 2.2022                 1.6229
 Frc consts  --      1.3237                 2.1536                 1.6318
 IR Inten    --     11.6255                13.0850                 0.3208

                     34                     35                     36
                      A                      A                      A
 Frequencies --   1331.5885              1373.3724              1433.7224
 Red. masses --      1.5376                 2.1409                 1.2373
 Frc consts  --      1.6064                 2.3792                 1.4985
 IR Inten    --     14.2038                66.6024                50.6787

                     37                     38                     39
                      A                      A                      A
 Frequencies --   1454.8758              1458.2120              1483.0582
 Red. masses --      1.0904                 1.0795                 1.1194
 Frc consts  --      1.3599                 1.3524                 1.4506
 IR Inten    --      4.7381                 8.5096                 7.3279

                     40                     41                     42
                      A                      A                      A
 Frequencies --   1486.2821              1824.2136              3029.4024
 Red. masses --      1.3219                12.2605                 1.0701
 Frc consts  --      1.7205                24.0387                 5.7860
 IR Inten    --      3.4400               173.8758                 7.5121

                     43                     44                     45
                      A                      A                      A
 Frequencies --   3048.5849              3078.9452              3111.7655
 Red. masses --      1.0657                 1.0861                 1.0927
 Frc consts  --      5.8355                 6.0662                 6.2339
 IR Inten    --     17.9720                32.7781                 9.5581

                     46                     47                     48
                      A                      A                      A
 Frequencies --   3117.9943              3133.2675              3136.0186
 Red. masses --      1.0999                 1.0522                 1.0537
 Frc consts  --      6.3001                 6.0863                 6.1057
 IR Inten    --     17.6372                12.4416                 8.0188

                     49                     50                     51
                      A                      A                      A
 Frequencies --   3221.5434              3236.1875              3810.1121
 Red. masses --      1.1192                 1.1172                 1.0661
 Frc consts  --      6.8436                 6.8938                 9.1182
 IR Inten    --      0.4586                 3.5461                12.7051

 - Thermochemistry -
 -------------------
 Temperature   298.150 Kelvin.  Pressure   1.00000 Atm.
 Atom     1 has atomic number  8 and mass  15.99491

 Molecular mass:   126.06808 amu.
 Principal axes and moments of inertia in atomic units:
                           1         2         3
     Eigenvalues --   859.63970 986.151411492.85181
           X            0.94636  -0.32311  -0.00279
           Y            0.32311   0.94636  -0.00100
           Z            0.00297   0.00004   1.00000
 This molecule is an asymmetric top.
 Rotational symmetry number  1.
 Warning -- assumption of classical behavior for rotation
           may cause significant error
 Rotational temperatures (Kelvin)      0.10076     0.08783     0.05802
 Rotational constants (GHZ):           2.09942     1.83009     1.20892
 Zero-point vibrational energy     418287.4 (Joules/Mol)
                                   99.97309 (Kcal/Mol)
 Warning -- explicit consideration of  11 degrees of freedom as
           vibrations may cause significant error
 Vibrational temperatures:     90.49   207.60   275.81   324.33   337.14
          (Kelvin)            370.07   513.54   665.34   678.66   807.39
                              835.68   953.84  1055.27  1142.28  1149.01
                             1230.60  1274.92  1312.60  1386.74  1400.15
                             1425.86  1486.61  1522.40  1547.00  1576.42
                             1586.50  1651.11  1714.20  1734.99  1819.33
                             1833.69  1853.62  1879.54  1915.86  1975.97
                             2062.80  2093.24  2098.04  2133.79  2138.43
                             2624.63  4358.63  4386.23  4429.91  4477.13
                             4486.09  4508.07  4512.03  4635.08  4656.15
                             5481.89

 Zero-point correction=                           0.159317 (Hartree/Particle)
 Thermal correction to Energy=                    0.167870
 Thermal correction to Enthalpy=                  0.168814
 Thermal correction to Gibbs Free Energy=         0.126076
 Sum of electronic and zero-point Energies=           -423.049618
 Sum of electronic and thermal Energies=              -423.041066
 Sum of electronic and thermal Enthalpies=            -423.040122
 Sum of electronic and thermal Free Energies=         -423.082859

                     E (Thermal)             CV                S
                      KCal/Mol        Cal/Mol-Kelvin    Cal/Mol-Kelvin
 Total                  105.340             32.695             89.949
 Electronic               0.000              0.000              0.000
 Translational            0.889              2.981             40.409
 Rotational               0.889              2.981             28.628
 Vibrational            103.562             26.734             20.913
 Vibration     1          0.597              1.972              4.364
 Vibration     2          0.616              1.909              2.746
 Vibration     3          0.634              1.851              2.211
 Vibration     4          0.650              1.802              1.915
 Vibration     5          0.654              1.788              1.846
 Vibration     6          0.667              1.751              1.681
 Vibration     7          0.732              1.561              1.135
 Vibration     8          0.820              1.333              0.759
 Vibration     9          0.829              1.313              0.733
 Vibration    10          0.917              1.115              0.522
 Vibration    11          0.938              1.073              0.484

 Optimization completed.
    -- Stationary point found.
 Normal termination of Gaussian 09 at Tue Jan 28 04:37:39 2020.
