 Gaussian 09, Revision D.01,
 Gaussian 09:  ES64L-G09RevD.01 24-Apr-2013

 -----------------------------
 # b3lyp 6-31G(2df,p) opt Freq
 -----------------------------

 -----
 titel
 -----
 Symbolic Z-matrix:
 Charge =  0 Multiplicity = 1

 SCF Done:  E(RB3LYP) =  -423.162363900     A.U. after   14 cycles
 Optimization completed.
    -- Stationary point found.
 Normal termination of Gaussian 09 at Mon Jan 27 23:06:04 2020.

 ----------------------------------------------------------------------
 #N Geom=AllCheck Guess=TCheck SCRF=Check GenChk RB3LYP/6-31G(2df,p) Fr
 eq
 ----------------------------------------------------------------------

 Structure from the checkpoint file:  "/scratch/puck/g09_21f3750e-6106-477e-aed6-7f8fbe99b25a/Gau-103136.chk"
 -----
 titel
 -----
 Charge =  0 Multiplicity = 1

                         Standard orientation:
 ---------------------------------------------------------------------
 Center     Atomic      Atomic             Coordinates (Angstroms)
 Number     Number       Type             X           Y           Z
 ---------------------------------------------------------------------
      1          8           0       -2.248632   -1.009672    0.401124
      2          6           0       -1.192554   -0.483053   -0.397463
      3          6           0       -1.079661    1.025975   -0.203759
      4          8           0        0.080022    1.592355   -0.818433
      5          6           0        0.110171    1.345352    0.601416
      6          6           0        0.847162    0.077766    0.976698
      7          6           0        2.167560   -0.204095    0.199219
      8          6           0        1.377362   -1.105857   -0.793033
      9          6           0        0.135039   -1.039920    0.143077
     10          1           0       -3.082915   -0.673935    0.057242
     11          1           0       -1.334182   -0.741679   -1.457863
     12          1           0       -1.976021    1.645314   -0.224259
     13          1           0        0.177567    2.241329    1.214003
     14          1           0        0.881271   -0.039801    2.062667
     15          1           0        2.666466    0.667241   -0.229837
     16          1           0        2.890378   -0.761767    0.799617
     17          1           0        1.206459   -0.622180   -1.756237
     18          1           0        1.786110   -2.104385   -0.965884
     19          1           0       -0.056722   -1.968604    0.682092
 ---------------------------------------------------------------------

 SCF Done:  E(RB3LYP) =  -423.162363900     A.U. after    1 cycles

 The electronic state is 1-A.
 Alpha  occ. eigenvalues --  -19.15056 -19.14006 -10.23305 -10.23271 -10.23183
 Alpha  occ. eigenvalues --  -10.18489 -10.18104 -10.17656 -10.17422  -1.07198
 Alpha  occ. eigenvalues --   -1.02017  -0.84327  -0.73621  -0.70189  -0.64374
 Alpha  occ. eigenvalues --   -0.61417  -0.57633  -0.54456  -0.52128  -0.49743
 Alpha  occ. eigenvalues --   -0.46787  -0.45382  -0.43508  -0.40433  -0.38456
 Alpha  occ. eigenvalues --   -0.37245  -0.36107  -0.33961  -0.33122  -0.30837
 Alpha  occ. eigenvalues --   -0.29259  -0.28628  -0.28030  -0.25218
 Alpha virt. eigenvalues --    0.06639   0.08939   0.09294   0.11599   0.12887
 Alpha virt. eigenvalues --    0.13352   0.13661   0.15093   0.15966   0.16867
 Alpha virt. eigenvalues --    0.18414   0.19049   0.20087   0.22168   0.22507

 Mulliken charges:
               1
     1  O   -0.436742
     2  C    0.069256
     3  C    0.002571
     4  O   -0.259778
     5  C    0.036621
     6  C   -0.048441
     7  C   -0.224845
     8  C   -0.237738
     9  C   -0.004602
    10  H    0.283837
    11  H    0.073712
    12  H    0.085049
    13  H    0.092856
    14  H    0.071576
    15  H    0.107044
    16  H    0.098308
    17  H    0.113338
    18  H    0.092836
    19  H    0.085143
 Sum of Mulliken charges =   0.00000

 Dipole moment (field-independent basis, Debye):
    X=             -0.9042    Y=              0.0696    Z=              0.3998  Tot=              0.9911
 Quadrupole moment (field-independent basis, Debye-Ang):
   XX=            -47.6841   YY=            -55.0776   ZZ=            -53.8590
   XY=             -3.1176   XZ=              3.5879   YZ=              3.4391

  Exact polarizability:  83.656  -2.115  71.339   2.849   2.431  65.621
 Approx polarizability: 114.000   0.948 102.418   2.784  -0.929 105.226

                      1                      2                      3
                      A                      A                      A
 Frequencies --    111.8087               176.0855               240.2935
 Red. masses --      2.6796                 2.8476                 2.8568
 Frc consts  --      0.0197                 0.0520                 0.0972
 IR Inten    --      0.7860                 0.5599                 7.9161

                      4                      5                      6
                      A                      A                      A
 Frequencies --    277.8543               305.4784               345.8776
 Red. masses --      1.3479                 2.5228                 4.7863
 Frc consts  --      0.0613                 0.1387                 0.3374
 IR Inten    --    111.7390                 3.9043                 6.9788

                      7                      8                      9
                      A                      A                      A
 Frequencies --    488.2008               504.3125               645.6621
 Red. masses --      3.7314                 7.1447                 3.6689
 Frc consts  --      0.5240                 1.0706                 0.9012
 IR Inten    --      4.3747                 1.0589                 1.0255

                     10                     11                     12
                      A                      A                      A
 Frequencies --    717.5088               728.8065               763.4474
 Red. masses --      4.8312                 1.7115                 1.6262
 Frc consts  --      1.4654                 0.5356                 0.5584
 IR Inten    --      4.4968                 7.6536                 3.4348

                     13                     14                     15
                      A                      A                      A
 Frequencies --    827.7139               853.9423               876.3564
 Red. masses --      3.2081                 3.1275                 2.3555
 Frc consts  --      1.2950                 1.3437                 1.0659
 IR Inten    --      1.0516                17.9791                14.8410

                     16                     17                     18
                      A                      A                      A
 Frequencies --    893.8096               943.0466               955.9971
 Red. masses --      3.0688                 1.8500                 2.6681
 Frc consts  --      1.4445                 0.9694                 1.4367
 IR Inten    --      3.2798                 9.7319                 0.6035

                     19                     20                     21
                      A                      A                      A
 Frequencies --    982.9666              1023.7432              1036.2939
 Red. masses --      2.1319                 2.2016                 2.7683
 Frc consts  --      1.2136                 1.3595                 1.7516
 IR Inten    --      1.2297                 8.0725                24.1518

                     22                     23                     24
                      A                      A                      A
 Frequencies --   1049.7550              1063.9543              1095.7772
 Red. masses --      1.5185                 1.9627                 2.5514
 Frc consts  --      0.9859                 1.3091                 1.8050
 IR Inten    --     36.5896                 1.2294                26.6211

                     25                     26                     27
                      A                      A                      A
 Frequencies --   1114.6352              1127.1815              1187.5764
 Red. masses --      1.7681                 1.4730                 1.4745
 Frc consts  --      1.2942                 1.1027                 1.2252
 IR Inten    --      0.8706                 0.2015                 5.2213

                     28                     29                     30
                      A                      A                      A
 Frequencies --   1211.4948              1237.5969              1247.8318
 Red. masses --      1.1971                 1.2516                 1.3674
 Frc consts  --      1.0352                 1.1294                 1.2544
 IR Inten    --     32.2985                 7.4147                 6.3894

                     31                     32                     33
                      A                      A                      A
 Frequencies --   1259.0164              1269.2477              1276.5244
 Red. masses --      1.3320                 1.4553                 1.4431
 Frc consts  --      1.2440                 1.3813                 1.3855
 IR Inten    --      4.6551                 7.5343                 4.1820

                     34                     35                     36
                      A                      A                      A
 Frequencies --   1302.3839              1314.2585              1340.3078
 Red. masses --      1.4557                 1.2576                 1.6780
 Frc consts  --      1.4548                 1.2798                 1.7761
 IR Inten    --      0.7056                 9.8029                 7.0655

                     37                     38                     39
                      A                      A                      A
 Frequencies --   1355.8499              1397.3784              1438.9760
 Red. masses --      1.6759                 1.7940                 2.2683
 Frc consts  --      1.8152                 2.0640                 2.7673
 IR Inten    --     10.9729                 1.7843                10.5407

                     40                     41                     42
                      A                      A                      A
 Frequencies --   1470.2144              1491.2223              2988.8741
 Red. masses --      1.0864                 1.1362                 1.0837
 Frc consts  --      1.3835                 1.4886                 5.7038
 IR Inten    --      1.3095                 0.8211                47.4900

                     43                     44                     45
                      A                      A                      A
 Frequencies --   3062.1104              3067.5591              3077.0623
 Red. masses --      1.0599                 1.0626                 1.0832
 Frc consts  --      5.8554                 5.8913                 6.0428
 IR Inten    --     26.5154                53.3674                27.4016

                     46                     47                     48
                      A                      A                      A
 Frequencies --   3102.6998              3113.0609              3115.8310
 Red. masses --      1.0895                 1.1047                 1.0892
 Frc consts  --      6.1795                 6.3075                 6.2303
 IR Inten    --     11.8432                 3.2579                34.4420

                     49                     50                     51
                      A                      A                      A
 Frequencies --   3131.2224              3144.2093              3811.7541
 Red. masses --      1.1057                 1.0937                 1.0662
 Frc consts  --      6.3873                 6.3704                 9.1272
 IR Inten    --     42.8248                36.0993                17.6134

 - Thermochemistry -
 -------------------
 Temperature   298.150 Kelvin.  Pressure   1.00000 Atm.
 Atom     1 has atomic number  8 and mass  15.99491

 Molecular mass:   126.06808 amu.
 Principal axes and moments of inertia in atomic units:
                           1         2         3
     Eigenvalues --   690.863031033.533191348.03831
           X            0.99873  -0.04949   0.00989
           Y            0.04897   0.99764   0.04808
           Z           -0.01225  -0.04753   0.99879
 This molecule is an asymmetric top.
 Rotational symmetry number  1.
 Warning -- assumption of classical behavior for rotation
           may cause significant error
 Rotational temperatures (Kelvin)      0.12537     0.08380     0.06425
 Rotational constants (GHZ):           2.61230     1.74619     1.33879
 Zero-point vibrational energy     422071.1 (Joules/Mol)
                                  100.87741 (Kcal/Mol)
 Warning -- explicit consideration of   8 degrees of freedom as
           vibrations may cause significant error
 Vibrational temperatures:    160.87   253.35   345.73   399.77   439.51
          (Kelvin)            497.64   702.41   725.59   928.96  1032.33
                             1048.59  1098.43  1190.89  1228.63  1260.88
                             1285.99  1356.83  1375.46  1414.27  1472.94
                             1490.99  1510.36  1530.79  1576.58  1603.71
                             1621.76  1708.66  1743.07  1780.62  1795.35
                             1811.44  1826.16  1836.63  1873.84  1890.92
                             1928.40  1950.76  2010.51  2070.36  2115.31
                             2145.53  4300.32  4405.69  4413.53  4427.20
                             4464.09  4478.99  4482.98  4505.13  4523.81
                             5484.26

 Zero-point correction=                           0.160758 (Hartree/Particle)
 Thermal correction to Energy=                    0.168257
 Thermal correction to Enthalpy=                  0.169201
 Thermal correction to Gibbs Free Energy=         0.128968
 Sum of electronic and zero-point Energies=           -423.001606
 Sum of electronic and thermal Energies=              -422.994107
 Sum of electronic and thermal Enthalpies=            -422.993163
 Sum of electronic and thermal Free Energies=         -423.033396

                     E (Thermal)             CV                S
                      KCal/Mol        Cal/Mol-Kelvin    Cal/Mol-Kelvin
 Total                  105.583             30.033             84.677
 Electronic               0.000              0.000              0.000
 Translational            0.889              2.981             40.409
 Rotational               0.889              2.981             28.356
 Vibrational            103.805             24.071             15.912
 Vibration     1          0.607              1.940              3.237
 Vibration     2          0.628              1.872              2.370
 Vibration     3          0.657              1.779              1.801
 Vibration     4          0.679              1.714              1.547
 Vibration     5          0.696              1.663              1.387
 Vibration     6          0.724              1.584              1.185
 Vibration     7          0.844              1.276              0.688
 Vibration     8          0.860              1.240              0.647

 Normal termination of Gaussian 09 at Mon Jan 27 23:52:45 2020.
