 Gaussian 09, Revision D.01,
 Gaussian 09:  ES64L-G09RevD.01 24-Apr-2013

 -----------------------------
 # b3lyp 6-31G(2df,p) opt Freq
 -----------------------------

 -----
 titel
 -----
 Symbolic Z-matrix:
 Charge =  0 Multiplicity = 1

 SCF Done:  E(RB3LYP) =  -423.124231998     A.U. after   14 cycles
 Optimization completed.
    -- Stationary point found.
 Normal termination of Gaussian 09 at Mon Jan 27 14:18:39 2020.

 ----------------------------------------------------------------------
 #N Geom=AllCheck Guess=TCheck SCRF=Check GenChk RB3LYP/6-31G(2df,p) Fr
 eq
 ----------------------------------------------------------------------

 Structure from the checkpoint file:  "/scratch/puck/g09_d8b97d75-92fb-4993-bc95-61c0cd8a6802/Gau-58127.chk"
 -----
 titel
 -----
 Charge =  0 Multiplicity = 1

                         Standard orientation:
 ---------------------------------------------------------------------
 Center     Atomic      Atomic             Coordinates (Angstroms)
 Number     Number       Type             X           Y           Z
 ---------------------------------------------------------------------
      1          6           0       -0.499497   -1.828916   -0.430921
      2          6           0       -0.506107   -0.421720    0.193943
      3          8           0       -0.622332   -0.535268    1.618365
      4          6           0       -1.681285    0.317750   -0.279392
      5          6           0       -2.637889    0.900848   -0.712390
      6          6           0        0.782361    0.386593   -0.089188
      7          6           0        0.781936    1.810572    0.420287
      8          6           0        1.726352   -0.015509   -1.138571
      9          8           0        1.966751   -0.367824    0.230965
     10          1           0        0.426353   -2.346842   -0.165072
     11          1           0       -1.349030   -2.385123   -0.030720
     12          1           0       -0.591803   -1.790546   -1.518881
     13          1           0        0.197987   -0.949666    1.915664
     14          1           0       -3.487331    1.421053   -1.081323
     15          1           0        0.098830    2.430408   -0.166001
     16          1           0        0.453492    1.834533    1.462247
     17          1           0        1.789075    2.228704    0.355307
     18          1           0        1.507612   -0.848289   -1.801584
     19          1           0        2.404234    0.732809   -1.546885
 ---------------------------------------------------------------------

 SCF Done:  E(RB3LYP) =  -423.124231998     A.U. after    1 cycles

 The electronic state is 1-A.
 Alpha  occ. eigenvalues --  -19.15797 -19.14187 -10.26833 -10.24956 -10.23862
 Alpha  occ. eigenvalues --  -10.18512 -10.18230 -10.18066 -10.17799  -1.07825
 Alpha  occ. eigenvalues --   -1.02518  -0.79884  -0.74148  -0.72929  -0.66751
 Alpha  occ. eigenvalues --   -0.65203  -0.59156  -0.52954  -0.52238  -0.48466
 Alpha  occ. eigenvalues --   -0.47749  -0.46003  -0.42578  -0.40602  -0.40526
 Alpha  occ. eigenvalues --   -0.39019  -0.37354  -0.37222  -0.34754  -0.30531
 Alpha  occ. eigenvalues --   -0.28877  -0.28522  -0.27785  -0.25849
 Alpha virt. eigenvalues --    0.03213   0.04794   0.08842   0.09774   0.11062
 Alpha virt. eigenvalues --    0.12186   0.12655   0.13624   0.15186   0.16039
 Alpha virt. eigenvalues --    0.16839   0.17569   0.18491   0.19879   0.21850

 Mulliken charges:
               1
     1  C   -0.447036
     2  C    0.088914
     3  O   -0.456132
     4  C    0.376818
     5  C   -0.473440
     6  C    0.370777
     7  C   -0.463735
     8  C   -0.227393
     9  O   -0.286646
    10  H    0.130614
    11  H    0.136409
    12  H    0.125859
    13  H    0.292616
    14  H    0.200198
    15  H    0.136339
    16  H    0.141390
    17  H    0.121237
    18  H    0.116832
    19  H    0.116377
 Sum of Mulliken charges =   0.00000

 Dipole moment (field-independent basis, Debye):
    X=              0.2806    Y=              0.2532    Z=             -1.7707  Tot=              1.8105
 Quadrupole moment (field-independent basis, Debye-Ang):
   XX=            -53.5351   YY=            -50.3842   ZZ=            -52.4980
   XY=             -0.8656   XZ=              1.5352   YZ=             -1.0842

  Exact polarizability:  87.443  -7.378  74.330   2.349  -0.891  67.177
 Approx polarizability: 128.634 -19.999 104.108   9.321  -7.362 106.074

                      1                      2                      3
                      A                      A                      A
 Frequencies --     59.8927               144.3558               187.8241
 Red. masses --      3.7866                 3.9711                 2.3621
 Frc consts  --      0.0080                 0.0488                 0.0491
 IR Inten    --      1.7577                 0.2119                 2.8213

                      4                      5                      6
                      A                      A                      A
 Frequencies --    194.4637               259.2420               272.4177
 Red. masses --      1.2663                 3.3843                 2.1134
 Frc consts  --      0.0282                 0.1340                 0.0924
 IR Inten    --      0.6422                 0.5692                 6.8396

                      7                      8                      9
                      A                      A                      A
 Frequencies --    307.6686               347.9400               367.4502
 Red. masses --      1.3294                 2.8899                 2.0543
 Frc consts  --      0.0741                 0.2061                 0.1634
 IR Inten    --      3.9892                 0.7745                 5.1498

                     10                     11                     12
                      A                      A                      A
 Frequencies --    393.4594               408.8356               428.9647
 Red. masses --      1.3243                 3.0591                 3.3693
 Frc consts  --      0.1208                 0.3013                 0.3653
 IR Inten    --     58.1665                27.3909                17.0037

                     13                     14                     15
                      A                      A                      A
 Frequencies --    516.1541               521.2888               584.1312
 Red. masses --      4.1822                 4.6292                 5.3705
 Frc consts  --      0.6565                 0.7412                 1.0797
 IR Inten    --     21.5164                 7.2189                 2.7921

                     16                     17                     18
                      A                      A                      A
 Frequencies --    635.1831               658.9974               671.8819
 Red. masses --      1.2549                 4.3097                 1.2662
 Frc consts  --      0.2983                 1.1027                 0.3368
 IR Inten    --     41.6355                 3.7742                35.2069

                     19                     20                     21
                      A                      A                      A
 Frequencies --    794.2223               867.4952               906.1016
 Red. masses --      4.1715                 2.5547                 2.1377
 Frc consts  --      1.5503                 1.1327                 1.0341
 IR Inten    --     16.2462                 6.7211                19.3787

                     22                     23                     24
                      A                      A                      A
 Frequencies --    927.2754               947.9171              1016.9744
 Red. masses --      1.6415                 1.9282                 2.0424
 Frc consts  --      0.8316                 1.0208                 1.2446
 IR Inten    --      0.3580                24.2208                17.4454

                     25                     26                     27
                      A                      A                      A
 Frequencies --   1099.5934              1111.1863              1130.0302
 Red. masses --      1.9399                 3.0347                 1.6226
 Frc consts  --      1.3819                 2.2077                 1.2208
 IR Inten    --     34.2824                17.3272                42.8290

                     28                     29                     30
                      A                      A                      A
 Frequencies --   1135.1804              1144.1382              1181.0401
 Red. masses --      1.4017                 2.1623                 1.3967
 Frc consts  --      1.0642                 1.6677                 1.1479
 IR Inten    --      2.1007                76.3824                 1.1979

                     31                     32                     33
                      A                      A                      A
 Frequencies --   1269.0858              1378.1575              1388.5228
 Red. masses --      3.4004                 1.6815                 1.5843
 Frc consts  --      3.2267                 1.8817                 1.7997
 IR Inten    --      1.7323                46.4437                30.0014

                     34                     35                     36
                      A                      A                      A
 Frequencies --   1396.4458              1412.7577              1476.1478
 Red. masses --      1.2952                 1.7587                 1.0480
 Frc consts  --      1.4882                 2.0681                 1.3454
 IR Inten    --     18.0826                 7.9152                 3.9312

                     37                     38                     39
                      A                      A                      A
 Frequencies --   1492.1308              1496.3981              1504.4737
 Red. masses --      1.0670                 1.0515                 1.0885
 Frc consts  --      1.3996                 1.3873                 1.4516
 IR Inten    --      6.9973                 7.4241                 0.6562

                     40                     41                     42
                      A                      A                      A
 Frequencies --   1537.0661              2241.6405              3050.3053
 Red. masses --      1.2913                 5.8980                 1.0342
 Frc consts  --      1.7974                17.4616                 5.6693
 IR Inten    --      2.8352                 1.8331                10.6180

                     43                     44                     45
                      A                      A                      A
 Frequencies --   3054.3422              3094.8457              3129.3025
 Red. masses --      1.0342                 1.0530                 1.1023
 Frc consts  --      5.6847                 5.9421                 6.3600
 IR Inten    --     10.1277                22.0558                 9.8602

                     46                     47                     48
                      A                      A                      A
 Frequencies --   3130.5393              3135.1225              3141.7571
 Red. masses --      1.1011                 1.1028                 1.1023
 Frc consts  --      6.3577                 6.3864                 6.4107
 IR Inten    --     13.5282                11.8741                14.0446

                     49                     50                     51
                      A                      A                      A
 Frequencies --   3185.3544              3501.1286              3778.8234
 Red. masses --      1.1169                 1.1632                 1.0655
 Frc consts  --      6.6770                 8.4010                 8.9641
 IR Inten    --     17.9227                62.9385                23.5356

 - Thermochemistry -
 -------------------
 Temperature   298.150 Kelvin.  Pressure   1.00000 Atm.
 Atom     1 has atomic number  6 and mass  12.00000

 Molecular mass:   126.06808 amu.
 Principal axes and moments of inertia in atomic units:
                           1         2         3
     Eigenvalues --   783.761191262.327791437.73135
           X            0.99963   0.02725   0.00043
           Y           -0.02722   0.99743   0.06627
           Z            0.00138  -0.06626   0.99780
 This molecule is an asymmetric top.
 Rotational symmetry number  1.
 Warning -- assumption of classical behavior for rotation
           may cause significant error
 Rotational temperatures (Kelvin)      0.11051     0.06861     0.06024
 Rotational constants (GHZ):           2.30267     1.42969     1.25527
 Zero-point vibrational energy     406823.9 (Joules/Mol)
                                   97.23326 (Kcal/Mol)
 Warning -- explicit consideration of  15 degrees of freedom as
           vibrations may cause significant error
 Vibrational temperatures:     86.17   207.70   270.24   279.79   372.99
          (Kelvin)            391.95   442.67   500.61   528.68   566.10
                              588.22   617.18   742.63   750.02   840.43
                              913.89   948.15   966.69  1142.71  1248.13
                             1303.68  1334.14  1363.84  1463.20  1582.07
                             1598.75  1625.86  1633.27  1646.16  1699.25
                             1825.93  1982.86  1997.77  2009.17  2032.64
                             2123.84  2146.84  2152.98  2164.60  2211.49
                             3225.22  4388.70  4394.51  4452.79  4502.36
                             4504.14  4510.74  4520.28  4583.01  5037.34
                             5436.88

 Zero-point correction=                           0.154951 (Hartree/Particle)
 Thermal correction to Energy=                    0.164854
 Thermal correction to Enthalpy=                  0.165798
 Thermal correction to Gibbs Free Energy=         0.120858
 Sum of electronic and zero-point Energies=           -422.969281
 Sum of electronic and thermal Energies=              -422.959378
 Sum of electronic and thermal Enthalpies=            -422.958434
 Sum of electronic and thermal Free Energies=         -423.003374

                     E (Thermal)             CV                S
                      KCal/Mol        Cal/Mol-Kelvin    Cal/Mol-Kelvin
 Total                  103.447             37.828             94.584
 Electronic               0.000              0.000              0.000
 Translational            0.889              2.981             40.409
 Rotational               0.889              2.981             28.744
 Vibrational            101.670             31.866             25.432
 Vibration     1          0.597              1.973              4.461
 Vibration     2          0.616              1.909              2.745
 Vibration     3          0.633              1.857              2.249
 Vibration     4          0.635              1.848              2.185
 Vibration     5          0.668              1.747              1.667
 Vibration     6          0.675              1.724              1.581
 Vibration     7          0.698              1.659              1.375
 Vibration     8          0.726              1.579              1.176
 Vibration     9          0.740              1.539              1.090
 Vibration    10          0.761              1.484              0.987
 Vibration    11          0.773              1.451              0.931
 Vibration    12          0.790              1.407              0.862
 Vibration    13          0.871              1.214              0.619
 Vibration    14          0.876              1.203              0.607
 Vibration    15          0.941              1.066              0.478

 Optimization completed.
    -- Stationary point found.
 Normal termination of Gaussian 09 at Mon Jan 27 15:04:25 2020.
