 Gaussian 09, Revision D.01,
 Gaussian 09:  ES64L-G09RevD.01 24-Apr-2013

 -----------------------------
 # b3lyp 6-31G(2df,p) opt Freq
 -----------------------------

 -----
 titel
 -----
 Symbolic Z-matrix:
 Charge =  0 Multiplicity = 1

 SCF Done:  E(RB3LYP) =  -423.172376430     A.U. after   14 cycles
 Optimization completed.
    -- Stationary point found.
 Normal termination of Gaussian 09 at Mon Jan 27 16:07:55 2020.

 ----------------------------------------------------------------------
 #N Geom=AllCheck Guess=TCheck SCRF=Check GenChk RB3LYP/6-31G(2df,p) Fr
 eq
 ----------------------------------------------------------------------

 Structure from the checkpoint file:  "/scratch/puck/g09_5b15f019-2001-47df-813a-a89ad5340587/Gau-38935.chk"
 -----
 titel
 -----
 Charge =  0 Multiplicity = 1

                         Standard orientation:
 ---------------------------------------------------------------------
 Center     Atomic      Atomic             Coordinates (Angstroms)
 Number     Number       Type             X           Y           Z
 ---------------------------------------------------------------------
      1          6           0       -1.105474    1.724188   -0.052295
      2          6           0       -0.937703    0.223065   -0.004060
      3          8           0       -2.234408   -0.341450   -0.022340
      4          6           0        0.002400   -0.552607   -0.974875
      5          6           0        1.365107    0.111390   -1.213105
      6          6           0        1.973918    0.483492    0.122294
      7          6           0        1.290805    0.211023    1.234371
      8          6           0       -0.031075   -0.493396    1.052549
      9          8           0        0.152658   -1.570076    0.067145
     10          1           0       -1.741965    2.049852    0.776149
     11          1           0       -0.149087    2.243352    0.015814
     12          1           0       -1.602985    2.011520   -0.983887
     13          1           0       -2.113470   -1.299291    0.001939
     14          1           0       -0.452752   -0.955264   -1.884854
     15          1           0        2.024874   -0.573420   -1.762373
     16          1           0        1.246191    0.999064   -1.849489
     17          1           0        2.951229    0.956500    0.139775
     18          1           0        1.644875    0.466445    2.227147
     19          1           0       -0.500774   -0.849479    1.972063
 ---------------------------------------------------------------------

 SCF Done:  E(RB3LYP) =  -423.172376430     A.U. after    1 cycles

 The electronic state is 1-A.
 Alpha  occ. eigenvalues --  -19.13661 -19.13362 -10.24088 -10.23369 -10.23348
 Alpha  occ. eigenvalues --  -10.19337 -10.19095 -10.18443 -10.17400  -1.05565
 Alpha  occ. eigenvalues --   -1.00299  -0.81226  -0.74999  -0.74521  -0.66639
 Alpha  occ. eigenvalues --   -0.62338  -0.58467  -0.53872  -0.51609  -0.47062
 Alpha  occ. eigenvalues --   -0.46116  -0.43328  -0.42349  -0.41070  -0.40667
 Alpha  occ. eigenvalues --   -0.39494  -0.38233  -0.37338  -0.34891  -0.33132
 Alpha  occ. eigenvalues --   -0.30835  -0.27331  -0.25199  -0.23552
 Alpha virt. eigenvalues --   -0.00124   0.08738   0.10601   0.11073   0.12278
 Alpha virt. eigenvalues --    0.14015   0.14365   0.15047   0.16501   0.17314
 Alpha virt. eigenvalues --    0.17729   0.18358   0.19050   0.20076   0.22457

 Mulliken charges:
               1
     1  C   -0.462261
     2  C    0.467969
     3  O   -0.496082
     4  C    0.013340
     5  C   -0.278457
     6  C   -0.070610
     7  C   -0.053064
     8  C   -0.036093
     9  O   -0.325214
    10  H    0.128060
    11  H    0.124392
    12  H    0.125533
    13  H    0.285991
    14  H    0.075953
    15  H    0.118640
    16  H    0.112617
    17  H    0.097772
    18  H    0.095552
    19  H    0.075961
 Sum of Mulliken charges =   0.00000

 Dipole moment (field-independent basis, Debye):
    X=              1.1508    Y=              1.0231    Z=             -0.2209  Tot=              1.5556
 Quadrupole moment (field-independent basis, Debye-Ang):
   XX=            -55.7516   YY=            -54.6707   ZZ=            -49.0931
   XY=              3.1231   XZ=             -0.7326   YZ=              0.2616

  Exact polarizability:  79.982   3.985  65.719  -3.466  -0.503  78.365
 Approx polarizability: 113.824   7.087 100.696 -10.157  -3.816 123.910

                      1                      2                      3
                      A                      A                      A
 Frequencies --    179.4054               203.4247               217.2066
 Red. masses --      1.1077                 2.5911                 2.9272
 Frc consts  --      0.0210                 0.0632                 0.0814
 IR Inten    --      0.2095                 0.8749                 1.3432

                      4                      5                      6
                      A                      A                      A
 Frequencies --    283.8129               368.7480               382.7166
 Red. masses --      2.6214                 4.6035                 3.0210
 Frc consts  --      0.1244                 0.3688                 0.2607
 IR Inten    --      0.1945                10.5528                 4.9397

                      7                      8                      9
                      A                      A                      A
 Frequencies --    423.2505               490.8160               503.2480
 Red. masses --      2.8282                 4.9531                 2.2858
 Frc consts  --      0.2985                 0.7030                 0.3411
 IR Inten    --      0.5953                 5.9473                 4.0221

                     10                     11                     12
                      A                      A                      A
 Frequencies --    516.3564               582.2903               637.8182
 Red. masses --      1.0948                 5.2987                 3.1406
 Frc consts  --      0.1720                 1.0585                 0.7528
 IR Inten    --     76.2038                 0.7111                 7.8608

                     13                     14                     15
                      A                      A                      A
 Frequencies --    705.0565               781.1404               863.7347
 Red. masses --      1.8046                 3.1717                 3.5000
 Frc consts  --      0.5285                 1.1403                 1.5384
 IR Inten    --     10.6252                15.6762                26.0141

                     16                     17                     18
                      A                      A                      A
 Frequencies --    872.8161               882.4974               927.7948
 Red. masses --      2.4580                 3.6752                 2.9416
 Frc consts  --      1.1033                 1.6864                 1.4919
 IR Inten    --     16.2546                13.2117                28.4008

                     19                     20                     21
                      A                      A                      A
 Frequencies --    958.8071               968.5667               972.4927
 Red. masses --      2.2781                 1.3047                 2.3820
 Frc consts  --      1.2339                 0.7211                 1.3273
 IR Inten    --     20.0310                 0.3366                13.0859

                     22                     23                     24
                      A                      A                      A
 Frequencies --    988.8373              1009.1564              1065.2290
 Red. masses --      1.7846                 2.3549                 2.6032
 Frc consts  --      1.0281                 1.4130                 1.7404
 IR Inten    --      3.4010                11.3868                 4.8222

                     25                     26                     27
                      A                      A                      A
 Frequencies --   1121.6427              1136.3770              1161.0443
 Red. masses --      1.7143                 1.3978                 1.3238
 Frc consts  --      1.2707                 1.0635                 1.0514
 IR Inten    --     32.5965                 2.5625                23.2099

                     28                     29                     30
                      A                      A                      A
 Frequencies --   1177.1710              1186.6744              1229.6174
 Red. masses --      1.8015                 1.7417                 1.5748
 Frc consts  --      1.4708                 1.4451                 1.4029
 IR Inten    --      2.0698                51.7874                41.7019

                     31                     32                     33
                      A                      A                      A
 Frequencies --   1287.9906              1316.1678              1337.5933
 Red. masses --      1.3477                 1.7206                 1.5671
 Frc consts  --      1.3173                 1.7561                 1.6519
 IR Inten    --      0.4829                 0.8731                 1.7670

                     34                     35                     36
                      A                      A                      A
 Frequencies --   1362.5157              1384.4364              1401.1894
 Red. masses --      1.4383                 1.4287                 1.4848
 Frc consts  --      1.5732                 1.6134                 1.7176
 IR Inten    --      3.4592                30.1567                18.7004

                     37                     38                     39
                      A                      A                      A
 Frequencies --   1436.9641              1467.3123              1486.9790
 Red. masses --      1.8445                 1.0913                 1.0565
 Frc consts  --      2.2440                 1.3844                 1.3763
 IR Inten    --     66.2507                 8.6049                 1.5713

                     40                     41                     42
                      A                      A                      A
 Frequencies --   1495.9429              1695.8651              3013.3829
 Red. masses --      1.0643                 6.2310                 1.0595
 Frc consts  --      1.4033                10.5581                 5.6686
 IR Inten    --      2.5454                 3.2692                26.2038

                     43                     44                     45
                      A                      A                      A
 Frequencies --   3041.5551              3047.9570              3068.7105
 Red. masses --      1.1011                 1.0379                 1.0879
 Frc consts  --      6.0015                 5.6810                 6.0363
 IR Inten    --     16.7805                18.2969                51.2178

                     46                     47                     48
                      A                      A                      A
 Frequencies --   3092.2191              3109.7476              3148.2600
 Red. masses --      1.0891                 1.1007                 1.0993
 Frc consts  --      6.1356                 6.2716                 6.4198
 IR Inten    --     35.6384                13.2401                13.0756

                     49                     50                     51
                      A                      A                      A
 Frequencies --   3167.7037              3194.8880              3776.4645
 Red. masses --      1.0854                 1.0999                 1.0647
 Frc consts  --      6.4172                 6.6145                 8.9467
 IR Inten    --      7.8136                22.0748                23.6607

 - Thermochemistry -
 -------------------
 Temperature   298.150 Kelvin.  Pressure   1.00000 Atm.
 Atom     1 has atomic number  6 and mass  12.00000

 Molecular mass:   126.06808 amu.
 Principal axes and moments of inertia in atomic units:
                           1         2         3
     Eigenvalues --   672.188301085.566901175.10636
           X            0.99992   0.00176  -0.01216
           Y           -0.00174   1.00000   0.00194
           Z            0.01216  -0.00192   0.99992
 This molecule is an asymmetric top.
 Rotational symmetry number  1.
 Warning -- assumption of classical behavior for rotation
           may cause significant error
 Rotational temperatures (Kelvin)      0.12885     0.07979     0.07371
 Rotational constants (GHZ):           2.68487     1.66249     1.53581
 Zero-point vibrational energy     419480.1 (Joules/Mol)
                                  100.25815 (Kcal/Mol)
 Warning -- explicit consideration of  11 degrees of freedom as
           vibrations may cause significant error
 Vibrational temperatures:    258.12   292.68   312.51   408.34   530.55
          (Kelvin)            550.64   608.96   706.17   724.06   742.92
                              837.78   917.68  1014.42  1123.89  1242.72
                             1255.79  1269.72  1334.89  1379.51  1393.55
                             1399.20  1422.71  1451.95  1532.62  1613.79
                             1634.99  1670.48  1693.68  1707.36  1769.14
                             1853.13  1893.67  1924.50  1960.35  1991.89
                             2016.00  2067.47  2111.13  2139.43  2152.33
                             2439.97  4335.58  4376.11  4385.32  4415.18
                             4449.01  4474.23  4529.64  4557.61  4596.73
                             5433.48

 Zero-point correction=                           0.159772 (Hartree/Particle)
 Thermal correction to Energy=                    0.167505
 Thermal correction to Enthalpy=                  0.168449
 Thermal correction to Gibbs Free Energy=         0.128268
 Sum of electronic and zero-point Energies=           -423.012605
 Sum of electronic and thermal Energies=              -423.004872
 Sum of electronic and thermal Enthalpies=            -423.003928
 Sum of electronic and thermal Free Energies=         -423.044109

                     E (Thermal)             CV                S
                      KCal/Mol        Cal/Mol-Kelvin    Cal/Mol-Kelvin
 Total                  105.111             31.785             84.568
 Electronic               0.000              0.000              0.000
 Translational            0.889              2.981             40.409
 Rotational               0.889              2.981             28.241
 Vibrational            103.333             25.823             15.919
 Vibration     1          0.629              1.868              2.335
 Vibration     2          0.639              1.835              2.102
 Vibration     3          0.646              1.815              1.982
 Vibration     4          0.682              1.704              1.511
 Vibration     5          0.741              1.536              1.085
 Vibration     6          0.752              1.507              1.028
 Vibration     7          0.785              1.420              0.881
 Vibration     8          0.847              1.270              0.681
 Vibration     9          0.859              1.243              0.650
 Vibration    10          0.871              1.214              0.618
 Vibration    11          0.939              1.070              0.481

 Optimization completed.
    -- Stationary point found.
 Normal termination of Gaussian 09 at Mon Jan 27 16:52:28 2020.
