 Gaussian 09, Revision D.01,
 Gaussian 09:  ES64L-G09RevD.01 24-Apr-2013

 -----------------------------
 # b3lyp 6-31G(2df,p) opt Freq
 -----------------------------

 -----
 titel
 -----
 Symbolic Z-matrix:
 Charge =  0 Multiplicity = 1

 SCF Done:  E(RB3LYP) =  -423.207100975     A.U. after   14 cycles
 Optimization completed.
    -- Stationary point found.
 Normal termination of Gaussian 09 at Mon Jan 27 12:57:47 2020.

 ----------------------------------------------------------------------
 #N Geom=AllCheck Guess=TCheck SCRF=Check GenChk RB3LYP/6-31G(2df,p) Fr
 eq
 ----------------------------------------------------------------------

 Structure from the checkpoint file:  "/scratch/puck/g09_cc6f9807-2e40-42bd-8222-a9ea046ec46f/Gau-46709.chk"
 -----
 titel
 -----
 Charge =  0 Multiplicity = 1

                         Standard orientation:
 ---------------------------------------------------------------------
 Center     Atomic      Atomic             Coordinates (Angstroms)
 Number     Number       Type             X           Y           Z
 ---------------------------------------------------------------------
      1          8           0       -3.368866   -0.301469   -0.440276
      2          6           0       -2.261608   -0.052340   -0.088224
      3          6           0       -1.387313    1.184312    0.123700
      4          6           0       -0.322501    0.156118    0.555151
      5          8           0       -1.286638   -0.934696    0.300023
      6          6           0        0.923249    0.015793   -0.278731
      7          6           0        1.928705   -1.122113    0.058143
      8          6           0        3.088050   -0.124078   -0.207387
      9          6           0        2.073195    1.040839   -0.048488
     10          1           0       -1.169910    1.741622   -0.789666
     11          1           0       -1.752720    1.867012    0.892215
     12          1           0       -0.086454    0.173237    1.624019
     13          1           0        0.644416   -0.020908   -1.337853
     14          1           0        1.869286   -1.403700    1.114430
     15          1           0        1.879737   -2.030427   -0.544954
     16          1           0        3.941874   -0.145471    0.472900
     17          1           0        3.460444   -0.197732   -1.232848
     18          1           0        2.062119    1.428661    0.975771
     19          1           0        2.144565    1.885842   -0.736970
 ---------------------------------------------------------------------

 SCF Done:  E(RB3LYP) =  -423.207100975     A.U. after    1 cycles

 The electronic state is 1-A.
 Alpha  occ. eigenvalues --  -19.17641 -19.13084 -10.30668 -10.25594 -10.20989
 Alpha  occ. eigenvalues --  -10.20165 -10.19509 -10.19100 -10.19001  -1.10150
 Alpha  occ. eigenvalues --   -1.02886  -0.85737  -0.77508  -0.70908  -0.66851
 Alpha  occ. eigenvalues --   -0.62307  -0.56609  -0.54013  -0.51321  -0.50451
 Alpha  occ. eigenvalues --   -0.48510  -0.46852  -0.44136  -0.40142  -0.39886
 Alpha  occ. eigenvalues --   -0.39525  -0.38309  -0.37454  -0.34445  -0.33284
 Alpha  occ. eigenvalues --   -0.31958  -0.31163  -0.29226  -0.27188
 Alpha virt. eigenvalues --    0.01393   0.07441   0.08100   0.08626   0.09413
 Alpha virt. eigenvalues --    0.11676   0.13594   0.15190   0.15495   0.17001
 Alpha virt. eigenvalues --    0.17356   0.17784   0.19089   0.19863   0.20985

 Mulliken charges:
               1
     1  O   -0.315485
     2  C    0.444960
     3  C   -0.438182
     4  C    0.111442
     5  O   -0.251772
     6  C    0.042913
     7  C   -0.230947
     8  C   -0.209380
     9  C   -0.240543
    10  H    0.141572
    11  H    0.143293
    12  H    0.091969
    13  H    0.078132
    14  H    0.104842
    15  H    0.110799
    16  H    0.102387
    17  H    0.108341
    18  H    0.102425
    19  H    0.103235
 Sum of Mulliken charges =   0.00000

 Dipole moment (field-independent basis, Debye):
    X=              3.6232    Y=              2.1853    Z=              0.7038  Tot=              4.2894
 Quadrupole moment (field-independent basis, Debye-Ang):
   XX=            -65.3927   YY=            -53.5412   ZZ=            -50.7997
   XY=             -4.4206   XZ=             -2.5873   YZ=              0.3786

  Exact polarizability:  95.647  -0.467  70.309   3.067   0.290  62.991
 Approx polarizability: 124.068   1.384 104.212   8.294  -0.057  98.937

                      1                      2                      3
                      A                      A                      A
 Frequencies --     63.5967                78.3103               136.8481
 Red. masses --      3.5005                 4.9171                 2.1898
 Frc consts  --      0.0083                 0.0178                 0.0242
 IR Inten    --      1.6824                 2.5502                 0.3722

                      4                      5                      6
                      A                      A                      A
 Frequencies --    162.8060               332.2852               341.4235
 Red. masses --      3.3057                 4.5455                 2.1552
 Frc consts  --      0.0516                 0.2957                 0.1480
 IR Inten    --      1.4657                 0.8461                 0.1742

                      7                      8                      9
                      A                      A                      A
 Frequencies --    402.3001               520.1017               533.8743
 Red. masses --      4.5578                 2.3874                 3.6268
 Frc consts  --      0.4346                 0.3805                 0.6091
 IR Inten    --      1.2199                 3.2523                 5.0921

                     10                     11                     12
                      A                      A                      A
 Frequencies --    636.4585               751.0535               774.9996
 Red. masses --      1.7908                 1.8742                 2.1009
 Frc consts  --      0.4274                 0.6229                 0.7435
 IR Inten    --      2.9711                 1.8404                 1.8569

                     13                     14                     15
                      A                      A                      A
 Frequencies --    784.1257               874.6166               900.8960
 Red. masses --      1.6210                 2.1655                 3.6251
 Frc consts  --      0.5872                 0.9760                 1.7335
 IR Inten    --      3.1772                 2.8550                34.3489

                     16                     17                     18
                      A                      A                      A
 Frequencies --    919.0922               936.1570               952.0263
 Red. masses --      2.6668                 2.3800                 2.7015
 Frc consts  --      1.3273                 1.2289                 1.4426
 IR Inten    --     45.8100                 4.9812                38.3745

                     19                     20                     21
                      A                      A                      A
 Frequencies --    962.5027               989.9990              1020.7867
 Red. masses --      1.7657                 2.2111                 3.0217
 Frc consts  --      0.9637                 1.2768                 1.8551
 IR Inten    --      7.7320                 9.4762                 2.1287

                     22                     23                     24
                      A                      A                      A
 Frequencies --   1050.1598              1090.3685              1119.5208
 Red. masses --      2.1787                 1.6750                 1.9871
 Frc consts  --      1.4157                 1.1733                 1.4674
 IR Inten    --      6.6266                14.4624                 5.2477

                     25                     26                     27
                      A                      A                      A
 Frequencies --   1133.6744              1204.2574              1208.9531
 Red. masses --      2.6251                 1.3653                 1.8152
 Frc consts  --      1.9878                 1.1666                 1.5631
 IR Inten    --    102.3013                 0.5772                 1.4837

                     28                     29                     30
                      A                      A                      A
 Frequencies --   1222.0883              1246.7272              1257.3833
 Red. masses --      1.5569                 1.4466                 1.3347
 Frc consts  --      1.3700                 1.3248                 1.2433
 IR Inten    --      7.4866                 4.1718                 0.1611

                     31                     32                     33
                      A                      A                      A
 Frequencies --   1261.2342              1276.8084              1286.6495
 Red. masses --      1.1714                 1.4362                 1.3830
 Frc consts  --      1.0979                 1.3795                 1.3489
 IR Inten    --      0.0662                 1.0322                 1.5973

                     34                     35                     36
                      A                      A                      A
 Frequencies --   1305.9055              1329.3358              1418.6292
 Red. masses --      1.7105                 1.3307                 1.5717
 Frc consts  --      1.7187                 1.3855                 1.8636
 IR Inten    --     37.8098                 9.5418                14.8710

                     37                     38                     39
                      A                      A                      A
 Frequencies --   1456.1519              1478.0473              1487.3141
 Red. masses --      1.1364                 1.0888                 1.0828
 Frc consts  --      1.4197                 1.4014                 1.4112
 IR Inten    --     10.7217                 0.9526                 2.7252

                     40                     41                     42
                      A                      A                      A
 Frequencies --   1510.1845              1938.7884              3041.8825
 Red. masses --      1.1405                12.8265                 1.0829
 Frc consts  --      1.5326                28.4065                 5.9036
 IR Inten    --      0.6325               509.4231                 2.8471

                     43                     44                     45
                      A                      A                      A
 Frequencies --   3047.6727              3055.1413              3063.2480
 Red. masses --      1.0610                 1.0658                 1.0618
 Frc consts  --      5.8062                 5.8613                 5.8702
 IR Inten    --     33.0496                14.2429                33.0014

                     46                     47                     48
                      A                      A                      A
 Frequencies --   3065.6460              3087.6478              3102.8790
 Red. masses --      1.0822                 1.0601                 1.1040
 Frc consts  --      5.9926                 5.9544                 6.2622
 IR Inten    --     45.1593                 4.3831                15.1929

                     49                     50                     51
                      A                      A                      A
 Frequencies --   3112.3869              3125.1536              3145.3582
 Red. masses --      1.1049                 1.1067                 1.1068
 Frc consts  --      6.3061                 6.3685                 6.4513
 IR Inten    --     21.1079                53.7591                 5.3550

 - Thermochemistry -
 -------------------
 Temperature   298.150 Kelvin.  Pressure   1.00000 Atm.
 Atom     1 has atomic number  8 and mass  15.99491

 Molecular mass:   126.06808 amu.
 Principal axes and moments of inertia in atomic units:
                           1         2         3
     Eigenvalues --   356.756442080.973082289.70530
           X            0.99992  -0.01168  -0.00465
           Y            0.01171   0.99991   0.00607
           Z            0.00458  -0.00613   0.99997
 This molecule is an asymmetric top.
 Rotational symmetry number  1.
 Rotational temperatures (Kelvin)      0.24278     0.04162     0.03783
 Rotational constants (GHZ):           5.05875     0.86726     0.78820
 Zero-point vibrational energy     419909.9 (Joules/Mol)
                                  100.36088 (Kcal/Mol)
 Warning -- explicit consideration of   9 degrees of freedom as
           vibrations may cause significant error
 Vibrational temperatures:     91.50   112.67   196.89   234.24   478.08
          (Kelvin)            491.23   578.82   748.31   768.13   915.72
                             1080.60  1115.05  1128.18  1258.38  1296.19
                             1322.37  1346.92  1369.75  1384.83  1424.39
                             1468.68  1510.94  1568.80  1610.74  1631.10
                             1732.66  1739.41  1758.31  1793.76  1809.09
                             1814.63  1837.04  1851.20  1878.90  1912.62
                             2041.09  2095.08  2126.58  2139.91  2172.82
                             2789.48  4376.58  4384.92  4395.66  4407.33
                             4410.78  4442.43  4464.35  4478.03  4496.39
                             4525.46

 Zero-point correction=                           0.159935 (Hartree/Particle)
 Thermal correction to Energy=                    0.168145
 Thermal correction to Enthalpy=                  0.169089
 Thermal correction to Gibbs Free Energy=         0.126206
 Sum of electronic and zero-point Energies=           -423.047166
 Sum of electronic and thermal Energies=              -423.038956
 Sum of electronic and thermal Enthalpies=            -423.038012
 Sum of electronic and thermal Free Energies=         -423.080895

                     E (Thermal)             CV                S
                      KCal/Mol        Cal/Mol-Kelvin    Cal/Mol-Kelvin
 Total                  105.513             30.634             90.256
 Electronic               0.000              0.000              0.000
 Translational            0.889              2.981             40.409
 Rotational               0.889              2.981             28.921
 Vibrational            103.735             24.673             20.927
 Vibration     1          0.597              1.972              4.342
 Vibration     2          0.600              1.964              3.933
 Vibration     3          0.614              1.917              2.847
 Vibration     4          0.623              1.888              2.517
 Vibration     5          0.714              1.611              1.249
 Vibration     6          0.721              1.593              1.205
 Vibration     7          0.768              1.465              0.954
 Vibration     8          0.875              1.205              0.610
 Vibration     9          0.889              1.175              0.579

 Optimization completed.
    -- Stationary point found.
 Normal termination of Gaussian 09 at Mon Jan 27 13:35:48 2020.
