 Gaussian 09, Revision D.01,
 Gaussian 09:  ES64L-G09RevD.01 24-Apr-2013

 -----------------------------
 # b3lyp 6-31G(2df,p) opt Freq
 -----------------------------

 -----
 titel
 -----
 Symbolic Z-matrix:
 Charge =  0 Multiplicity = 1

 SCF Done:  E(RB3LYP) =  -423.190329704     A.U. after   14 cycles
 Optimization completed.
    -- Stationary point found.
 Normal termination of Gaussian 09 at Mon Jan 27 13:10:18 2020.

 ----------------------------------------------------------------------
 #N Geom=AllCheck Guess=TCheck SCRF=Check GenChk RB3LYP/6-31G(2df,p) Fr
 eq
 ----------------------------------------------------------------------

 Structure from the checkpoint file:  "/scratch/puck/g09_8ef0b720-82b2-4c82-9a70-f2c9a5436af9/Gau-28053.chk"
 -----
 titel
 -----
 Charge =  0 Multiplicity = 1

                         Standard orientation:
 ---------------------------------------------------------------------
 Center     Atomic      Atomic             Coordinates (Angstroms)
 Number     Number       Type             X           Y           Z
 ---------------------------------------------------------------------
      1          8           0       -2.486173   -0.770452   -0.562996
      2          6           0       -1.505551   -0.360121    0.009720
      3          6           0       -1.280029    1.148035    0.188456
      4          8           0        0.009135    1.506343    0.632992
      5          6           0        1.001310    1.447735   -0.378861
      6          6           0        1.528076    0.052022   -0.680127
      7          6           0        2.161464   -0.815715    0.375173
      8          6           0        0.843483   -1.228241   -0.233220
      9          6           0       -0.431268   -1.245393    0.613123
     10          1           0       -1.549118    1.656207   -0.749116
     11          1           0       -1.983769    1.488580    0.958043
     12          1           0        0.606880    1.893491   -1.305716
     13          1           0        1.818786    2.088958   -0.030857
     14          1           0        1.990751   -0.002642   -1.662802
     15          1           0        3.058957   -1.370676    0.124724
     16          1           0        2.126136   -0.455332    1.399062
     17          1           0        0.877148   -2.030405   -0.963705
     18          1           0       -0.819760   -2.263816    0.682327
     19          1           0       -0.214622   -0.881425    1.622485
 ---------------------------------------------------------------------

 SCF Done:  E(RB3LYP) =  -423.190329704     A.U. after    1 cycles

 The electronic state is 1-A.
 Alpha  occ. eigenvalues --  -19.15391 -19.12880 -10.26600 -10.23875 -10.23699
 Alpha  occ. eigenvalues --  -10.20583 -10.19895 -10.19139 -10.18956  -1.05005
 Alpha  occ. eigenvalues --   -1.03595  -0.86944  -0.77178  -0.71983  -0.68295
 Alpha  occ. eigenvalues --   -0.59811  -0.56915  -0.54216  -0.51142  -0.49405
 Alpha  occ. eigenvalues --   -0.47465  -0.45975  -0.45065  -0.42622  -0.41398
 Alpha  occ. eigenvalues --   -0.40028  -0.37553  -0.36907  -0.34589  -0.32544
 Alpha  occ. eigenvalues --   -0.30912  -0.28525  -0.27857  -0.23266
 Alpha virt. eigenvalues --   -0.01451   0.07338   0.09276   0.10936   0.11782
 Alpha virt. eigenvalues --    0.13239   0.13691   0.15581   0.15936   0.16844
 Alpha virt. eigenvalues --    0.17674   0.18431   0.19801   0.21962   0.23195

 Mulliken charges:
               1
     1  O   -0.303707
     2  C    0.353547
     3  C   -0.179860
     4  O   -0.235626
     5  C   -0.111919
     6  C   -0.018461
     7  C   -0.296085
     8  C   -0.024025
     9  C   -0.320035
    10  H    0.121071
    11  H    0.137185
    12  H    0.096086
    13  H    0.114177
    14  H    0.090029
    15  H    0.113401
    16  H    0.120930
    17  H    0.100914
    18  H    0.119312
    19  H    0.123066
 Sum of Mulliken charges =   0.00000

 Dipole moment (field-independent basis, Debye):
    X=              2.2993    Y=              0.4673    Z=              0.0714  Tot=              2.3474
 Quadrupole moment (field-independent basis, Debye-Ang):
   XX=            -57.9499   YY=            -52.9888   ZZ=            -52.4518
   XY=             -3.7406   XZ=             -4.2971   YZ=             -2.3197

  Exact polarizability:  86.113   0.042  75.223   1.384  -1.829  63.938
 Approx polarizability: 119.794   4.893 105.288   6.968   0.496 102.793

                      1                      2                      3
                      A                      A                      A
 Frequencies --     60.9817                98.9065               251.6560
 Red. masses --      2.6118                 3.9878                 3.1142
 Frc consts  --      0.0057                 0.0230                 0.1162
 IR Inten    --      3.3090                 2.0622                 0.5099

                      4                      5                      6
                      A                      A                      A
 Frequencies --    291.0040               337.2824               396.2369
 Red. masses --      4.1353                 4.0732                 2.3534
 Frc consts  --      0.2063                 0.2730                 0.2177
 IR Inten    --      8.9610                 1.3459                 3.8195

                      7                      8                      9
                      A                      A                      A
 Frequencies --    409.5061               465.8521               495.9451
 Red. masses --      2.2000                 2.3804                 4.0467
 Frc consts  --      0.2174                 0.3044                 0.5864
 IR Inten    --      0.4591                12.9281                 5.5370

                     10                     11                     12
                      A                      A                      A
 Frequencies --    588.0887               667.3924               750.0060
 Red. masses --      3.6767                 2.7734                 3.5128
 Frc consts  --      0.7492                 0.7278                 1.1642
 IR Inten    --      1.8330                12.9694                 0.5705

                     13                     14                     15
                      A                      A                      A
 Frequencies --    777.0758               811.0626               860.8762
 Red. masses --      2.7903                 2.3392                 1.3462
 Frc consts  --      0.9927                 0.9066                 0.5878
 IR Inten    --      1.3246                 7.5178                 6.8909

                     16                     17                     18
                      A                      A                      A
 Frequencies --    895.1802               938.1773               954.0156
 Red. masses --      1.7375                 2.4599                 3.1255
 Frc consts  --      0.8204                 1.2757                 1.6760
 IR Inten    --      0.7536                12.2027                 3.1222

                     19                     20                     21
                      A                      A                      A
 Frequencies --    981.4142              1052.6625              1071.1385
 Red. masses --      2.1026                 2.0483                 1.6634
 Frc consts  --      1.1932                 1.3373                 1.1244
 IR Inten    --      7.9161                15.3235                 1.7175

                     22                     23                     24
                      A                      A                      A
 Frequencies --   1079.7995              1093.4887              1128.7696
 Red. masses --      1.9876                 1.6868                 1.7304
 Frc consts  --      1.3654                 1.1883                 1.2990
 IR Inten    --      9.4290                 7.4150                13.8532

                     25                     26                     27
                      A                      A                      A
 Frequencies --   1144.5294              1163.5630              1206.3247
 Red. masses --      1.5019                 2.0678                 2.4185
 Frc consts  --      1.1592                 1.6494                 2.0736
 IR Inten    --      7.8253                39.0254                49.3926

                     28                     29                     30
                      A                      A                      A
 Frequencies --   1243.5108              1265.8002              1269.7893
 Red. masses --      1.4474                 1.2201                 1.5379
 Frc consts  --      1.3187                 1.1518                 1.4610
 IR Inten    --      3.4357                15.3900                32.8180

                     31                     32                     33
                      A                      A                      A
 Frequencies --   1311.1907              1328.8457              1358.5079
 Red. masses --      1.5665                 1.1705                 1.2935
 Frc consts  --      1.5867                 1.2178                 1.4065
 IR Inten    --     18.1821                 3.9435                 3.7925

                     34                     35                     36
                      A                      A                      A
 Frequencies --   1377.1417              1397.4631              1425.8510
 Red. masses --      1.3919                 1.7427                 1.3043
 Frc consts  --      1.5553                 2.0052                 1.5623
 IR Inten    --      6.9914                 9.3500                 5.6451

                     37                     38                     39
                      A                      A                      A
 Frequencies --   1451.1070              1462.4637              1492.3685
 Red. masses --      1.0854                 1.1163                 1.3807
 Frc consts  --      1.3466                 1.4067                 1.8118
 IR Inten    --      9.3949                 6.3214                 6.4631

                     40                     41                     42
                      A                      A                      A
 Frequencies --   1496.7951              1822.5685              2978.6961
 Red. masses --      1.0914                11.6517                 1.0685
 Frc consts  --      1.4406                22.8038                 5.5856
 IR Inten    --      2.3241               175.6282                52.4155

                     43                     44                     45
                      A                      A                      A
 Frequencies --   3004.1383              3054.1715              3060.9053
 Red. masses --      1.0621                 1.0597                 1.0944
 Frc consts  --      5.6474                 5.8240                 6.0412
 IR Inten    --     31.7983                 7.9450                35.0373

                     46                     47                     48
                      A                      A                      A
 Frequencies --   3064.5045              3114.7196              3125.2789
 Red. masses --      1.0984                 1.1022                 1.0543
 Frc consts  --      6.0776                 6.3001                 6.0671
 IR Inten    --     11.4062                 6.8755                13.9395

                     49                     50                     51
                      A                      A                      A
 Frequencies --   3131.9382              3156.2754              3212.4569
 Red. masses --      1.0873                 1.0901                 1.1162
 Frc consts  --      6.2841                 6.3985                 6.7869
 IR Inten    --     14.0759                15.4217                11.6125

 - Thermochemistry -
 -------------------
 Temperature   298.150 Kelvin.  Pressure   1.00000 Atm.
 Atom     1 has atomic number  8 and mass  15.99491

 Molecular mass:   126.06808 amu.
 Principal axes and moments of inertia in atomic units:
                           1         2         3
     Eigenvalues --   700.098471143.061181572.51343
           X            0.99893  -0.04455  -0.01260
           Y            0.04411   0.99846  -0.03375
           Z            0.01408   0.03316   0.99935
 This molecule is an asymmetric top.
 Rotational symmetry number  1.
 Warning -- assumption of classical behavior for rotation
           may cause significant error
 Rotational temperatures (Kelvin)      0.12372     0.07577     0.05508
 Rotational constants (GHZ):           2.57784     1.57887     1.14768
 Zero-point vibrational energy     422146.7 (Joules/Mol)
                                  100.89549 (Kcal/Mol)
 Warning -- explicit consideration of  10 degrees of freedom as
           vibrations may cause significant error
 Vibrational temperatures:     87.74   142.30   362.08   418.69   485.27
          (Kelvin)            570.10   589.19   670.26   713.55   846.13
                              960.23  1079.09  1118.04  1166.94  1238.61
                             1287.96  1349.83  1372.61  1412.03  1514.54
                             1541.13  1553.59  1573.28  1624.05  1646.72
                             1674.11  1735.63  1789.13  1821.20  1826.94
                             1886.51  1911.91  1954.59  1981.40  2010.64
                             2051.48  2087.82  2104.16  2147.18  2153.55
                             2622.27  4285.67  4322.28  4394.27  4403.95
                             4409.13  4481.38  4496.57  4506.15  4541.17
                             4622.00

 Zero-point correction=                           0.160787 (Hartree/Particle)
 Thermal correction to Energy=                    0.168650
 Thermal correction to Enthalpy=                  0.169594
 Thermal correction to Gibbs Free Energy=         0.127996
 Sum of electronic and zero-point Energies=           -423.029543
 Sum of electronic and thermal Energies=              -423.021679
 Sum of electronic and thermal Enthalpies=            -423.020735
 Sum of electronic and thermal Free Energies=         -423.062334

                     E (Thermal)             CV                S
                      KCal/Mol        Cal/Mol-Kelvin    Cal/Mol-Kelvin
 Total                  105.830             30.517             87.551
 Electronic               0.000              0.000              0.000
 Translational            0.889              2.981             40.409
 Rotational               0.889              2.981             28.622
 Vibrational            104.052             24.555             18.521
 Vibration     1          0.597              1.973              4.425
 Vibration     2          0.604              1.950              3.476
 Vibration     3          0.664              1.760              1.719
 Vibration     4          0.687              1.690              1.468
 Vibration     5          0.718              1.601              1.225
 Vibration     6          0.763              1.478              0.977
 Vibration     7          0.774              1.450              0.928
 Vibration     8          0.823              1.326              0.749
 Vibration     9          0.852              1.259              0.668
 Vibration    10          0.945              1.057              0.471

 Optimization completed.
    -- Stationary point found.
 Normal termination of Gaussian 09 at Mon Jan 27 14:32:18 2020.
