 Gaussian 09, Revision D.01,
 Gaussian 09:  ES64L-G09RevD.01 24-Apr-2013

 -----------------------------
 # b3lyp 6-31G(2df,p) opt Freq
 -----------------------------

 -----
 titel
 -----
 Symbolic Z-matrix:
 Charge =  0 Multiplicity = 1

 SCF Done:  E(RB3LYP) =  -423.157543845     A.U. after   13 cycles
 SCF Done:  E(RB3LYP) =  -423.157544022     A.U. after    6 cycles
 SCF Done:  E(RB3LYP) =  -423.157544109     A.U. after    6 cycles
 Optimization completed.
    -- Stationary point found.
 Normal termination of Gaussian 09 at Mon Jan 27 23:52:19 2020.

 ----------------------------------------------------------------------
 #N Geom=AllCheck Guess=TCheck SCRF=Check GenChk RB3LYP/6-31G(2df,p) Fr
 eq
 ----------------------------------------------------------------------

 Structure from the checkpoint file:  "/scratch/puck/g09_39cdeb2d-9a9b-473f-a1b5-dcc25b42f264/Gau-77792.chk"
 -----
 titel
 -----
 Charge =  0 Multiplicity = 1

                         Standard orientation:
 ---------------------------------------------------------------------
 Center     Atomic      Atomic             Coordinates (Angstroms)
 Number     Number       Type             X           Y           Z
 ---------------------------------------------------------------------
      1          8           0        2.982263    0.077516    0.623821
      2          6           0        1.589994   -0.001699    0.520321
      3          6           0        1.000921   -0.745782   -0.656302
      4          6           0       -0.434960   -1.227849   -0.543434
      5          6           0       -1.208974   -0.000523   -0.051904
      6          6           0       -2.074149   -0.032004    1.136133
      7          8           0       -2.625791   -0.000194   -0.184719
      8          6           0       -0.438349    1.251749   -0.479876
      9          6           0        0.998546    0.780672   -0.614473
     10          1           0        3.307954   -0.782515    0.909773
     11          1           0        1.058978   -0.025583    1.474345
     12          1           0        1.695053   -1.272486   -1.301413
     13          1           0       -0.814998   -1.514292   -1.531662
     14          1           0       -0.566520   -2.089493    0.119621
     15          1           0       -2.218187   -0.966156    1.678937
     16          1           0       -2.220858    0.873447    1.724703
     17          1           0       -0.816311    1.586386   -1.453517
     18          1           0       -0.570291    2.078680    0.225318
     19          1           0        1.695224    1.346051   -1.221703
 ---------------------------------------------------------------------

 SCF Done:  E(RB3LYP) =  -423.157544109     A.U. after    1 cycles

 The electronic state is 1-A.
 Alpha  occ. eigenvalues --  -19.14781 -19.14386 -10.24117 -10.23391 -10.23051
 Alpha  occ. eigenvalues --  -10.18970 -10.18912 -10.18800 -10.18661  -1.06944
 Alpha  occ. eigenvalues --   -1.02890  -0.87535  -0.74302  -0.71990  -0.66067
 Alpha  occ. eigenvalues --   -0.60065  -0.56719  -0.55417  -0.52936  -0.48686
 Alpha  occ. eigenvalues --   -0.47331  -0.45418  -0.44333  -0.41370  -0.41132
 Alpha  occ. eigenvalues --   -0.39126  -0.36352  -0.35846  -0.34962  -0.31738
 Alpha  occ. eigenvalues --   -0.29452  -0.27099  -0.26158  -0.25215
 Alpha virt. eigenvalues --    0.07117   0.08927   0.09502   0.10613   0.12233
 Alpha virt. eigenvalues --    0.12806   0.14342   0.14612   0.16060   0.17027
 Alpha virt. eigenvalues --    0.18484   0.18630   0.19073   0.22424   0.23093

 Mulliken charges:
               1
     1  O   -0.434272
     2  C    0.093396
     3  C   -0.099156
     4  C   -0.315142
     5  C    0.458415
     6  C   -0.251624
     7  O   -0.289801
     8  C   -0.317522
     9  C   -0.059660
    10  H    0.285311
    11  H    0.082150
    12  H    0.087802
    13  H    0.116529
    14  H    0.100801
    15  H    0.110395
    16  H    0.112250
    17  H    0.116365
    18  H    0.106043
    19  H    0.097720
 Sum of Mulliken charges =   0.00000

 Dipole moment (field-independent basis, Debye):
    X=              1.0001    Y=             -1.2351    Z=              0.9089  Tot=              1.8308
 Quadrupole moment (field-independent basis, Debye-Ang):
   XX=            -60.8754   YY=            -50.6039   ZZ=            -50.2450
   XY=             -4.6644   XZ=             -2.5344   YZ=             -1.5027

  Exact polarizability:  82.648  -1.304  70.918  -3.741  -0.656  69.712
 Approx polarizability: 110.518  -0.988 105.396  -1.166  -0.966 107.748

                      1                      2                      3
                      A                      A                      A
 Frequencies --     80.8149               232.3066               253.0150
 Red. masses --      4.0892                 2.4921                 3.1404
 Frc consts  --      0.0157                 0.0792                 0.1184
 IR Inten    --      0.9932                12.1126                 0.2598

                      4                      5                      6
                      A                      A                      A
 Frequencies --    278.7591               323.9091               357.4992
 Red. masses --      2.9300                 1.4669                 1.8823
 Frc consts  --      0.1341                 0.0907                 0.1417
 IR Inten    --      5.0011                74.9208                18.8175

                      7                      8                      9
                      A                      A                      A
 Frequencies --    381.1732               390.7587               415.3315
 Red. masses --      2.4834                 2.6724                 4.2983
 Frc consts  --      0.2126                 0.2404                 0.4369
 IR Inten    --      1.6030                 5.8297                 5.2248

                     10                     11                     12
                      A                      A                      A
 Frequencies --    568.8698               651.0720               768.8878
 Red. masses --      4.2125                 4.0702                 3.7947
 Frc consts  --      0.8032                 1.0165                 1.3218
 IR Inten    --      6.2636                 0.3399                18.4068

                     13                     14                     15
                      A                      A                      A
 Frequencies --    824.0702               850.8190               856.4846
 Red. masses --      3.2245                 1.8634                 2.4021
 Frc consts  --      1.2902                 0.7947                 1.0382
 IR Inten    --     15.8811                 8.7031                16.6217

                     16                     17                     18
                      A                      A                      A
 Frequencies --    883.4309               920.4726               940.0656
 Red. masses --      3.2725                 1.3615                 4.3420
 Frc consts  --      1.5048                 0.6796                 2.2608
 IR Inten    --      6.0246                 0.2208                17.5652

                     19                     20                     21
                      A                      A                      A
 Frequencies --    948.3353              1013.6474              1023.4623
 Red. masses --      1.6545                 1.5278                 1.7038
 Frc consts  --      0.8767                 0.9249                 1.0515
 IR Inten    --      6.9246                 6.3056                 0.3361

                     22                     23                     24
                      A                      A                      A
 Frequencies --   1066.1143              1083.9159              1093.9903
 Red. masses --      1.1970                 1.6130                 1.6523
 Frc consts  --      0.8016                 1.1166                 1.1651
 IR Inten    --      1.8568                 2.8224                 3.0426

                     25                     26                     27
                      A                      A                      A
 Frequencies --   1131.3513              1149.8728              1163.5773
 Red. masses --      1.2931                 2.7297                 1.3801
 Frc consts  --      0.9751                 2.1265                 1.1009
 IR Inten    --      1.7166                80.1828                 6.0429

                     28                     29                     30
                      A                      A                      A
 Frequencies --   1180.1032              1184.5666              1219.3985
 Red. masses --      1.4133                 1.9815                 1.3684
 Frc consts  --      1.1597                 1.6382                 1.1988
 IR Inten    --      3.1329                 2.9342                10.2561

                     31                     32                     33
                      A                      A                      A
 Frequencies --   1224.8944              1283.2317              1285.0796
 Red. masses --      2.6143                 1.6438                 1.4618
 Frc consts  --      2.3110                 1.5948                 1.4223
 IR Inten    --      2.7400                 1.0016                34.4729

                     34                     35                     36
                      A                      A                      A
 Frequencies --   1309.2144              1324.1926              1346.4543
 Red. masses --      1.4338                 1.6744                 1.4353
 Frc consts  --      1.4479                 1.7299                 1.5331
 IR Inten    --     33.7010                10.9660                 1.6330

                     37                     38                     39
                      A                      A                      A
 Frequencies --   1422.8327              1464.0715              1481.1175
 Red. masses --      2.5512                 2.3273                 1.0980
 Frc consts  --      3.0430                 2.9392                 1.4192
 IR Inten    --     14.9120                 9.9452                 3.9552

                     40                     41                     42
                      A                      A                      A
 Frequencies --   1492.0616              1530.9706              3031.4331
 Red. masses --      1.1134                 1.3910                 1.0596
 Frc consts  --      1.4604                 1.9209                 5.7372
 IR Inten    --      0.4533                 4.4006                35.6231

                     43                     44                     45
                      A                      A                      A
 Frequencies --   3035.8359              3071.7901              3072.5202
 Red. masses --      1.0604                 1.0856                 1.0760
 Frc consts  --      5.7581                 6.0355                 5.9846
 IR Inten    --     19.4077                 6.5121                 4.4512

                     46                     47                     48
                      A                      A                      A
 Frequencies --   3073.1289              3077.2994              3159.1712
 Red. masses --      1.0804                 1.1012                 1.1193
 Frc consts  --      6.0115                 6.1439                 6.5819
 IR Inten    --     52.5238                35.6952                25.3205

                     49                     50                     51
                      A                      A                      A
 Frequencies --   3174.9901              3189.3111              3802.1019
 Red. masses --      1.0893                 1.0914                 1.0662
 Frc consts  --      6.4699                 6.5408                 9.0811
 IR Inten    --     11.0110                11.2619                19.8539

 - Thermochemistry -
 -------------------
 Temperature   298.150 Kelvin.  Pressure   1.00000 Atm.
 Atom     1 has atomic number  8 and mass  15.99491

 Molecular mass:   126.06808 amu.
 Principal axes and moments of inertia in atomic units:
                           1         2         3
     Eigenvalues --   458.758811673.543551717.48298
           X            0.99988  -0.00755  -0.01376
           Y            0.00688   0.99883  -0.04780
           Z            0.01411   0.04770   0.99876
 This molecule is an asymmetric top.
 Rotational symmetry number  1.
 Warning -- assumption of classical behavior for rotation
           may cause significant error
 Rotational temperatures (Kelvin)      0.18880     0.05175     0.05043
 Rotational constants (GHZ):           3.93397     1.07840     1.05081
 Zero-point vibrational energy     419218.0 (Joules/Mol)
                                  100.19551 (Kcal/Mol)
 Warning -- explicit consideration of  10 degrees of freedom as
           vibrations may cause significant error
 Vibrational temperatures:    116.27   334.24   364.03   401.07   466.03
          (Kelvin)            514.36   548.42   562.21   597.57   818.48
                              936.75  1106.26  1185.65  1224.14  1232.29
                             1271.06  1324.35  1352.54  1364.44  1458.41
                             1472.53  1533.90  1559.51  1574.01  1627.76
                             1654.41  1674.13  1697.90  1704.33  1754.44
                             1762.35  1846.28  1848.94  1883.67  1905.22
                             1937.24  2047.14  2106.47  2131.00  2146.74
                             2202.72  4361.55  4367.89  4419.62  4420.67
                             4421.54  4427.54  4545.34  4568.10  4588.70
                             5470.37

 Zero-point correction=                           0.159672 (Hartree/Particle)
 Thermal correction to Energy=                    0.167561
 Thermal correction to Enthalpy=                  0.168505
 Thermal correction to Gibbs Free Energy=         0.127425
 Sum of electronic and zero-point Energies=           -422.997872
 Sum of electronic and thermal Energies=              -422.989983
 Sum of electronic and thermal Enthalpies=            -422.989039
 Sum of electronic and thermal Free Energies=         -423.030119

                     E (Thermal)             CV                S
                      KCal/Mol        Cal/Mol-Kelvin    Cal/Mol-Kelvin
 Total                  105.146             31.434             86.460
 Electronic               0.000              0.000              0.000
 Translational            0.889              2.981             40.409
 Rotational               0.889              2.981             28.668
 Vibrational            103.369             25.473             17.383
 Vibration     1          0.600              1.962              3.871
 Vibration     2          0.653              1.792              1.861
 Vibration     3          0.664              1.758              1.709
 Vibration     4          0.679              1.713              1.541
 Vibration     5          0.708              1.628              1.290
 Vibration     6          0.733              1.560              1.133
 Vibration     7          0.751              1.510              1.035
 Vibration     8          0.758              1.490              0.997
 Vibration     9          0.779              1.437              0.908
 Vibration    10          0.925              1.099              0.506

 Normal termination of Gaussian 09 at Tue Jan 28 00:37:05 2020.
