 Gaussian 09, Revision D.01,
 Gaussian 09:  ES64L-G09RevD.01 24-Apr-2013

 -----------------------------
 # b3lyp 6-31G(2df,p) opt Freq
 -----------------------------

 -----
 titel
 -----
 Symbolic Z-matrix:
 Charge =  0 Multiplicity = 1

 SCF Done:  E(RB3LYP) =  -423.173284942     A.U. after   14 cycles
 Optimization completed.
    -- Stationary point found.
 Normal termination of Gaussian 09 at Tue Jan 28 00:05:46 2020.

 ----------------------------------------------------------------------
 #N Geom=AllCheck Guess=TCheck SCRF=Check GenChk RB3LYP/6-31G(2df,p) Fr
 eq
 ----------------------------------------------------------------------

 Structure from the checkpoint file:  "/scratch/puck/g09_9073a99b-fce3-4c64-85e4-332d70193c1c/Gau-21333.chk"
 -----
 titel
 -----
 Charge =  0 Multiplicity = 1

                         Standard orientation:
 ---------------------------------------------------------------------
 Center     Atomic      Atomic             Coordinates (Angstroms)
 Number     Number       Type             X           Y           Z
 ---------------------------------------------------------------------
      1          6           0        0.064393    2.071742   -0.337484
      2          6           0       -0.220268    0.707022    0.282963
      3          6           0       -1.465812   -0.025321   -0.297034
      4          8           0       -2.663451    0.198016    0.434515
      5          6           0       -1.034597   -1.474917   -0.358050
      6          6           0        0.266889   -1.627531   -0.115341
      7          6           0        0.917613   -0.315495    0.146299
      8          6           0        2.249350   -0.154479    0.740780
      9          8           0        2.063011    0.021338   -0.664342
     10          1           0       -0.801214    2.729142   -0.211435
     11          1           0        0.928350    2.554566    0.129020
     12          1           0        0.279031    1.979025   -1.405710
     13          1           0       -0.420602    0.835725    1.355528
     14          1           0       -1.697417    0.344814   -1.304158
     15          1           0       -2.543552   -0.186154    1.310497
     16          1           0       -1.737577   -2.264614   -0.599281
     17          1           0        0.825419   -2.556198   -0.141548
     18          1           0        2.477708    0.753624    1.299792
     19          1           0        2.827967   -1.030878    1.033116
 ---------------------------------------------------------------------

 SCF Done:  E(RB3LYP) =  -423.173284942     A.U. after    1 cycles

 The electronic state is 1-A.
 Alpha  occ. eigenvalues --  -19.14964 -19.13830 -10.24300 -10.23547 -10.23257
 Alpha  occ. eigenvalues --  -10.19247 -10.19138 -10.18987 -10.17400  -1.06778
 Alpha  occ. eigenvalues --   -1.02035  -0.83993  -0.75543  -0.68688  -0.66256
 Alpha  occ. eigenvalues --   -0.64363  -0.57959  -0.54576  -0.51445  -0.48874
 Alpha  occ. eigenvalues --   -0.46424  -0.45143  -0.43471  -0.41307  -0.40184
 Alpha  occ. eigenvalues --   -0.39024  -0.36661  -0.35392  -0.34169  -0.33283
 Alpha  occ. eigenvalues --   -0.31419  -0.27694  -0.26926  -0.24605
 Alpha virt. eigenvalues --   -0.00528   0.08699   0.09434   0.10143   0.11715
 Alpha virt. eigenvalues --    0.12801   0.13713   0.15252   0.16099   0.17251
 Alpha virt. eigenvalues --    0.17756   0.18030   0.18510   0.20861   0.23795

 Mulliken charges:
               1
     1  C   -0.406353
     2  C   -0.107912
     3  C    0.084071
     4  O   -0.433088
     5  C   -0.140827
     6  C   -0.134482
     7  C    0.403622
     8  C   -0.250942
     9  O   -0.270242
    10  H    0.121814
    11  H    0.116189
    12  H    0.130851
    13  H    0.075011
    14  H    0.100657
    15  H    0.274921
    16  H    0.107668
    17  H    0.108374
    18  H    0.110568
    19  H    0.110099
 Sum of Mulliken charges =   0.00000

 Dipole moment (field-independent basis, Debye):
    X=              0.2527    Y=             -0.9968    Z=              1.9326  Tot=              2.1892
 Quadrupole moment (field-independent basis, Debye-Ang):
   XX=            -58.8344   YY=            -50.6830   ZZ=            -51.4448
   XY=              1.3541   XZ=              2.7769   YZ=             -0.1940

  Exact polarizability:  94.535   0.196  77.005   6.481   0.933  59.958
 Approx polarizability: 142.762  -0.368 103.383   7.273   0.186  98.195

                      1                      2                      3
                      A                      A                      A
 Frequencies --     48.0403               186.3123               215.4746
 Red. masses --      4.1058                 3.3586                 1.1428
 Frc consts  --      0.0056                 0.0687                 0.0313
 IR Inten    --      1.3626                 1.3523                 0.3362

                      4                      5                      6
                      A                      A                      A
 Frequencies --    240.9726               258.7827               301.9639
 Red. masses --      2.7729                 2.4243                 3.2233
 Frc consts  --      0.0949                 0.0957                 0.1732
 IR Inten    --      2.2163                 1.8791                 0.3245

                      7                      8                      9
                      A                      A                      A
 Frequencies --    335.2901               359.9977               439.7193
 Red. masses --      1.2856                 2.9032                 2.9313
 Frc consts  --      0.0852                 0.2217                 0.3339
 IR Inten    --     59.3291                34.5332                 2.3286

                     10                     11                     12
                      A                      A                      A
 Frequencies --    482.7178               557.5033               606.7536
 Red. masses --      4.6086                 3.1560                 3.4668
 Frc consts  --      0.6327                 0.5779                 0.7520
 IR Inten    --      1.9774                 4.4989                 6.5852

                     13                     14                     15
                      A                      A                      A
 Frequencies --    690.4488               762.1594               796.8155
 Red. masses --      5.3773                 2.3115                 2.5862
 Frc consts  --      1.5104                 0.7911                 0.9674
 IR Inten    --     13.6591                 1.7355                 9.2025

                     16                     17                     18
                      A                      A                      A
 Frequencies --    847.2198               870.9124               906.4479
 Red. masses --      2.6239                 1.7766                 1.5495
 Frc consts  --      1.1097                 0.7939                 0.7501
 IR Inten    --      7.6592                35.8019                 5.3880

                     19                     20                     21
                      A                      A                      A
 Frequencies --    970.0483               980.6753              1002.4421
 Red. masses --      2.9375                 1.4234                 2.3072
 Frc consts  --      1.6286                 0.8065                 1.3660
 IR Inten    --     37.4986                 7.6161                19.4185

                     22                     23                     24
                      A                      A                      A
 Frequencies --   1058.6094              1060.0179              1101.8250
 Red. masses --      1.8214                 1.8545                 2.2934
 Frc consts  --      1.2026                 1.2277                 1.6404
 IR Inten    --     24.6623                10.2148                77.8502

                     25                     26                     27
                      A                      A                      A
 Frequencies --   1119.9721              1130.4626              1151.7949
 Red. masses --      1.7928                 1.4404                 1.5465
 Frc consts  --      1.3250                 1.0846                 1.2088
 IR Inten    --      1.3775                 2.5514                 8.8196

                     28                     29                     30
                      A                      A                      A
 Frequencies --   1166.7618              1235.5948              1235.8609
 Red. masses --      1.3561                 1.4039                 1.8198
 Frc consts  --      1.0877                 1.2628                 1.6376
 IR Inten    --      1.5578                 7.1789                 1.8545

                     31                     32                     33
                      A                      A                      A
 Frequencies --   1289.8072              1310.8416              1337.6942
 Red. masses --      1.3725                 1.6113                 1.9346
 Frc consts  --      1.3452                 1.6312                 2.0396
 IR Inten    --      6.6200                 3.1852                 1.2288

                     34                     35                     36
                      A                      A                      A
 Frequencies --   1366.9283              1409.1606              1424.7304
 Red. masses --      1.7353                 1.2953                 1.7842
 Frc consts  --      1.9104                 1.5154                 2.1338
 IR Inten    --      1.8968                 5.6260                63.2530

                     37                     38                     39
                      A                      A                      A
 Frequencies --   1427.8596              1492.6038              1495.6860
 Red. masses --      1.4317                 1.0547                 1.0478
 Frc consts  --      1.7198                 1.3844                 1.3810
 IR Inten    --     18.5685                 6.7070                 6.7003

                     40                     41                     42
                      A                      A                      A
 Frequencies --   1528.6902              1674.7651              3009.1963
 Red. masses --      1.3584                 6.8774                 1.0823
 Frc consts  --      1.8703                11.3654                 5.7743
 IR Inten    --      3.1158                 0.5146                14.9504

                     43                     44                     45
                      A                      A                      A
 Frequencies --   3028.6630              3042.0938              3068.5137
 Red. masses --      1.0836                 1.0355                 1.0502
 Frc consts  --      5.8564                 5.6459                 5.8259
 IR Inten    --     29.5766                22.3627                31.8187

                     46                     47                     48
                      A                      A                      A
 Frequencies --   3109.2299              3119.2206              3152.4258
 Red. masses --      1.1015                 1.1019                 1.1189
 Frc consts  --      6.2738                 6.3166                 6.5515
 IR Inten    --     20.7786                19.1110                23.4093

                     49                     50                     51
                      A                      A                      A
 Frequencies --   3188.2277              3212.4058              3792.4888
 Red. masses --      1.0852                 1.1051                 1.0659
 Frc consts  --      6.4995                 6.7192                 9.0330
 IR Inten    --      3.7965                14.0603                12.7046

 - Thermochemistry -
 -------------------
 Temperature   298.150 Kelvin.  Pressure   1.00000 Atm.
 Atom     1 has atomic number  6 and mass  12.00000

 Molecular mass:   126.06808 amu.
 Principal axes and moments of inertia in atomic units:
                           1         2         3
     Eigenvalues --   650.379651264.684221683.67096
           X            0.99982   0.00630   0.01802
           Y           -0.00616   0.99995  -0.00762
           Z           -0.01807   0.00750   0.99981
 This molecule is an asymmetric top.
 Rotational symmetry number  1.
 Warning -- assumption of classical behavior for rotation
           may cause significant error
 Rotational temperatures (Kelvin)      0.13317     0.06849     0.05144
 Rotational constants (GHZ):           2.77490     1.42703     1.07191
 Zero-point vibrational energy     416317.4 (Joules/Mol)
                                   99.50224 (Kcal/Mol)
 Warning -- explicit consideration of  12 degrees of freedom as
           vibrations may cause significant error
 Vibrational temperatures:     69.12   268.06   310.02   346.71   372.33
          (Kelvin)            434.46   482.41   517.96   632.66   694.52
                              802.12   872.98   993.40  1096.58  1146.44
                             1218.96  1253.05  1304.17  1395.68  1410.97
                             1442.29  1523.10  1525.13  1585.28  1611.39
                             1626.48  1657.17  1678.71  1777.74  1778.13
                             1855.74  1886.01  1924.64  1966.70  2027.47
                             2049.87  2054.37  2147.52  2151.96  2199.44
                             2409.61  4329.56  4357.57  4376.89  4414.90
                             4473.48  4487.86  4535.63  4587.14  4621.93
                             5456.54

 Zero-point correction=                           0.158567 (Hartree/Particle)
 Thermal correction to Energy=                    0.167185
 Thermal correction to Enthalpy=                  0.168130
 Thermal correction to Gibbs Free Energy=         0.125263
 Sum of electronic and zero-point Energies=           -423.014718
 Sum of electronic and thermal Energies=              -423.006100
 Sum of electronic and thermal Enthalpies=            -423.005155
 Sum of electronic and thermal Free Energies=         -423.048022

                     E (Thermal)             CV                S
                      KCal/Mol        Cal/Mol-Kelvin    Cal/Mol-Kelvin
 Total                  104.910             33.160             90.220
 Electronic               0.000              0.000              0.000
 Translational            0.889              2.981             40.409
 Rotational               0.889              2.981             28.717
 Vibrational            103.133             27.198             21.094
 Vibration     1          0.595              1.978              4.896
 Vibration     2          0.632              1.859              2.264
 Vibration     3          0.645              1.817              1.997
 Vibration     4          0.658              1.778              1.796
 Vibration     5          0.668              1.748              1.670
 Vibration     6          0.694              1.670              1.406
 Vibration     7          0.716              1.605              1.234
 Vibration     8          0.735              1.555              1.122
 Vibration     9          0.800              1.384              0.827
 Vibration    10          0.839              1.288              0.703
 Vibration    11          0.913              1.123              0.529
 Vibration    12          0.965              1.017              0.438

 Optimization completed.
    -- Stationary point found.
 Normal termination of Gaussian 09 at Tue Jan 28 00:54:57 2020.
