 Gaussian 09, Revision D.01,
 Gaussian 09:  ES64L-G09RevD.01 24-Apr-2013

 -----------------------------
 # b3lyp 6-31G(2df,p) opt Freq
 -----------------------------

 -----
 titel
 -----
 Symbolic Z-matrix:
 Charge =  0 Multiplicity = 1

 SCF Done:  E(RB3LYP) =  -423.185887369     A.U. after   13 cycles
 Optimization completed.
    -- Stationary point found.
 Normal termination of Gaussian 09 at Mon Jan 27 18:39:02 2020.

 ----------------------------------------------------------------------
 #N Geom=AllCheck Guess=TCheck SCRF=Check GenChk RB3LYP/6-31G(2df,p) Fr
 eq
 ----------------------------------------------------------------------

 Structure from the checkpoint file:  "/scratch/puck/g09_bff14051-80cf-4f83-bc6b-5743dc480121/Gau-18711.chk"
 -----
 titel
 -----
 Charge =  0 Multiplicity = 1

                         Standard orientation:
 ---------------------------------------------------------------------
 Center     Atomic      Atomic             Coordinates (Angstroms)
 Number     Number       Type             X           Y           Z
 ---------------------------------------------------------------------
      1          6           0       -1.886334   -1.342307    0.152434
      2          6           0       -0.755203   -0.367310   -0.057395
      3          6           0       -1.107618    1.010716   -0.683261
      4          8           0       -0.064127    1.860827   -0.179065
      5          6           0        0.723864    0.992037    0.639746
      6          8           0       -0.211938    0.094338    1.200408
      7          6           0        1.560407    0.117679   -0.293097
      8          6           0        1.645770   -1.346256    0.053168
      9          6           0        0.503863   -0.849424   -0.794205
     10          1           0       -1.525811   -2.247248    0.648898
     11          1           0       -2.672816   -0.895359    0.767349
     12          1           0       -2.321319   -1.631373   -0.809431
     13          1           0       -1.093913    0.995064   -1.778741
     14          1           0       -2.080055    1.379920   -0.336000
     15          1           0        1.226240    1.574592    1.411498
     16          1           0        2.280136    0.591567   -0.947856
     17          1           0        2.409415   -1.915861   -0.465109
     18          1           0        1.453146   -1.657813    1.073149
     19          1           0        0.425001   -1.125617   -1.838832
 ---------------------------------------------------------------------

 SCF Done:  E(RB3LYP) =  -423.185887369     A.U. after    1 cycles

 The electronic state is 1-A.
 Alpha  occ. eigenvalues --  -19.14617 -19.13531 -10.27474 -10.24552 -10.22586
 Alpha  occ. eigenvalues --  -10.19328 -10.18945 -10.18827 -10.18387  -1.09322
 Alpha  occ. eigenvalues --   -0.98667  -0.85985  -0.78844  -0.69888  -0.65304
 Alpha  occ. eigenvalues --   -0.62335  -0.57321  -0.55513  -0.52609  -0.50226
 Alpha  occ. eigenvalues --   -0.47827  -0.44005  -0.42836  -0.41172  -0.40882
 Alpha  occ. eigenvalues --   -0.38837  -0.37736  -0.36947  -0.33890  -0.33300
 Alpha  occ. eigenvalues --   -0.30009  -0.28399  -0.27095  -0.24781
 Alpha virt. eigenvalues --    0.08430   0.10241   0.12312   0.12471   0.13451
 Alpha virt. eigenvalues --    0.14138   0.14563   0.15697   0.16203   0.16654
 Alpha virt. eigenvalues --    0.17194   0.18600   0.19813   0.20149   0.21965

 Mulliken charges:
               1
     1  C   -0.486902
     2  C    0.334658
     3  C   -0.102643
     4  O   -0.274933
     5  C    0.172411
     6  O   -0.278947
     7  C   -0.067895
     8  C   -0.321408
     9  C   -0.073988
    10  H    0.132987
    11  H    0.130109
    12  H    0.122118
    13  H    0.098659
    14  H    0.100249
    15  H    0.090622
    16  H    0.098219
    17  H    0.111491
    18  H    0.125117
    19  H    0.090078
 Sum of Mulliken charges =   0.00000

 Dipole moment (field-independent basis, Debye):
    X=             -0.0294    Y=             -1.4120    Z=             -1.2074  Tot=              1.8580
 Quadrupole moment (field-independent basis, Debye-Ang):
   XX=            -49.3991   YY=            -56.1251   ZZ=            -52.9475
   XY=              0.7474   XZ=              1.0389   YZ=              1.3240

  Exact polarizability:  80.677  -1.127  73.273   2.499   0.660  65.149
 Approx polarizability: 110.489   0.723 108.004   5.200   0.904 103.543

                      1                      2                      3
                      A                      A                      A
 Frequencies --    209.1712               217.9440               277.2007
 Red. masses --      1.1895                 2.0097                 2.3031
 Frc consts  --      0.0307                 0.0562                 0.1043
 IR Inten    --      0.1441                 0.9343                 0.5421

                      4                      5                      6
                      A                      A                      A
 Frequencies --    313.5574               348.1984               402.4479
 Red. masses --      3.0406                 2.5682                 3.2312
 Frc consts  --      0.1761                 0.1835                 0.3083
 IR Inten    --      2.4702                 0.9901                 1.0129

                      7                      8                      9
                      A                      A                      A
 Frequencies --    496.9655               615.7354               632.1850
 Red. masses --      3.7567                 3.9807                 3.7859
 Frc consts  --      0.5466                 0.8892                 0.8915
 IR Inten    --      3.9305                 2.7746                 3.9399

                     10                     11                     12
                      A                      A                      A
 Frequencies --    656.1748               757.8902               796.1531
 Red. masses --      6.0127                 2.3979                 2.6632
 Frc consts  --      1.5253                 0.8115                 0.9946
 IR Inten    --      4.4193                 6.2524                 3.9809

                     13                     14                     15
                      A                      A                      A
 Frequencies --    831.7796               851.3114               895.4624
 Red. masses --      1.6189                 2.9166                 2.4563
 Frc consts  --      0.6599                 1.2454                 1.1605
 IR Inten    --      8.3599                 9.9815                 6.9028

                     16                     17                     18
                      A                      A                      A
 Frequencies --    902.2751               916.2047               948.0495
 Red. masses --      2.2860                 3.7804                 3.0349
 Frc consts  --      1.0965                 1.8697                 1.6072
 IR Inten    --      4.9666                77.5390                31.7070

                     19                     20                     21
                      A                      A                      A
 Frequencies --    991.2133               999.7369              1012.3387
 Red. masses --      2.2846                 4.1197                 1.5153
 Frc consts  --      1.3225                 2.4260                 0.9149
 IR Inten    --     24.3318                42.8305                 3.2136

                     22                     23                     24
                      A                      A                      A
 Frequencies --   1039.6221              1051.3369              1090.6711
 Red. masses --      1.6750                 1.5414                 1.3217
 Frc consts  --      1.0666                 1.0038                 0.9263
 IR Inten    --      7.2070                17.7220                 3.6169

                     25                     26                     27
                      A                      A                      A
 Frequencies --   1102.0224              1108.6617              1166.8139
 Red. masses --      2.5082                 1.5771                 1.6756
 Frc consts  --      1.7947                 1.1421                 1.3441
 IR Inten    --     66.9853                 8.6461                 5.2703

                     28                     29                     30
                      A                      A                      A
 Frequencies --   1180.0223              1188.0824              1231.0809
 Red. masses --      1.8471                 1.7951                 1.6068
 Frc consts  --      1.5153                 1.4929                 1.4348
 IR Inten    --      8.8193                 1.5969                 9.9036

                     31                     32                     33
                      A                      A                      A
 Frequencies --   1249.4566              1293.7753              1324.9376
 Red. masses --      2.2263                 1.2964                 1.6982
 Frc consts  --      2.0477                 1.2785                 1.7565
 IR Inten    --      6.3512                 4.8905                17.3991

                     34                     35                     36
                      A                      A                      A
 Frequencies --   1336.1072              1350.1577              1396.8976
 Red. masses --      1.7362                 1.6161                 1.7022
 Frc consts  --      1.8261                 1.7357                 1.9570
 IR Inten    --     12.8700                 0.3239                 4.5086

                     37                     38                     39
                      A                      A                      A
 Frequencies --   1417.4084              1469.9831              1484.1967
 Red. masses --      1.5241                 1.2795                 1.0565
 Frc consts  --      1.8041                 1.6289                 1.3712
 IR Inten    --     11.6837                 1.8197                 2.9812

                     40                     41                     42
                      A                      A                      A
 Frequencies --   1494.9724              1518.0655              3023.1711
 Red. masses --      1.0521                 1.0927                 1.0563
 Frc consts  --      1.3854                 1.4837                 5.6878
 IR Inten    --      4.2894                 0.6118                53.5020

                     43                     44                     45
                      A                      A                      A
 Frequencies --   3043.6892              3070.2781              3114.6312
 Red. masses --      1.0354                 1.1096                 1.1008
 Frc consts  --      5.6512                 6.1626                 6.2918
 IR Inten    --     19.2408                32.4042                14.1220

                     46                     47                     48
                      A                      A                      A
 Frequencies --   3122.3161              3131.6290              3138.5503
 Red. masses --      1.1023                 1.0913                 1.0536
 Frc consts  --      6.3313                 6.3059                 6.1150
 IR Inten    --     15.6372                37.3278                14.1098

                     49                     50                     51
                      A                      A                      A
 Frequencies --   3183.5758              3201.5623              3227.2834
 Red. masses --      1.0903                 1.0948                 1.1150
 Frc consts  --      6.5107                 6.6115                 6.8422
 IR Inten    --      9.4959                 7.1965                 6.1717

 - Thermochemistry -
 -------------------
 Temperature   298.150 Kelvin.  Pressure   1.00000 Atm.
 Atom     1 has atomic number  6 and mass  12.00000

 Molecular mass:   126.06808 amu.
 Principal axes and moments of inertia in atomic units:
                           1         2         3
     Eigenvalues --   752.92892 811.838641167.22040
           X            0.99587   0.09059   0.00634
           Y           -0.09059   0.99589  -0.00118
           Z           -0.00642   0.00060   0.99998
 This molecule is an asymmetric top.
 Rotational symmetry number  1.
 Warning -- assumption of classical behavior for rotation
           may cause significant error
 Rotational temperatures (Kelvin)      0.11504     0.10669     0.07421
 Rotational constants (GHZ):           2.39696     2.22303     1.54619
 Zero-point vibrational energy     423615.3 (Joules/Mol)
                                  101.24649 (Kcal/Mol)
 Warning -- explicit consideration of   8 degrees of freedom as
           vibrations may cause significant error
 Vibrational temperatures:    300.95   313.57   398.83   451.14   500.98
          (Kelvin)            579.03   715.02   885.90   909.57   944.09
                             1090.43  1145.49  1196.74  1224.85  1288.37
                             1298.17  1318.21  1364.03  1426.13  1438.40
                             1456.53  1495.78  1512.64  1569.23  1585.56
                             1595.11  1678.78  1697.79  1709.38  1771.25
                             1797.69  1861.45  1906.29  1922.36  1942.57
                             2009.82  2039.33  2114.98  2135.43  2150.93
                             2184.15  4349.66  4379.18  4417.44  4481.25
                             4492.31  4505.71  4515.67  4580.45  4606.33
                             4643.34

 Zero-point correction=                           0.161347 (Hartree/Particle)
 Thermal correction to Energy=                    0.168349
 Thermal correction to Enthalpy=                  0.169294
 Thermal correction to Gibbs Free Energy=         0.130471
 Sum of electronic and zero-point Energies=           -423.024541
 Sum of electronic and thermal Energies=              -423.017538
 Sum of electronic and thermal Enthalpies=            -423.016594
 Sum of electronic and thermal Free Energies=         -423.055416

                     E (Thermal)             CV                S
                      KCal/Mol        Cal/Mol-Kelvin    Cal/Mol-Kelvin
 Total                  105.641             29.320             81.709
 Electronic               0.000              0.000              0.000
 Translational            0.889              2.981             40.409
 Rotational               0.889              2.981             28.058
 Vibrational            103.863             23.358             13.242
 Vibration     1          0.642              1.827              2.051
 Vibration     2          0.646              1.814              1.976
 Vibration     3          0.678              1.716              1.551
 Vibration     4          0.701              1.648              1.343
 Vibration     5          0.726              1.579              1.174
 Vibration     6          0.768              1.465              0.954
 Vibration     7          0.852              1.257              0.666
 Vibration     8          0.975              0.999              0.423

 Optimization completed.
    -- Stationary point found.
 Normal termination of Gaussian 09 at Mon Jan 27 20:28:30 2020.
