 Gaussian 09, Revision D.01,
 Gaussian 09:  ES64L-G09RevD.01 24-Apr-2013

 -----------------------------
 # b3lyp 6-31G(2df,p) opt Freq
 -----------------------------

 -----
 titel
 -----
 Symbolic Z-matrix:
 Charge =  0 Multiplicity = 1

 SCF Done:  E(RB3LYP) =  -423.154232529     A.U. after   13 cycles
 Optimization completed.
    -- Stationary point found.
 Normal termination of Gaussian 09 at Tue Jan 28 08:10:37 2020.

 ----------------------------------------------------------------------
 #N Geom=AllCheck Guess=TCheck SCRF=Check GenChk RB3LYP/6-31G(2df,p) Fr
 eq
 ----------------------------------------------------------------------

 Structure from the checkpoint file:  "/scratch/puck/g09_056dbcd8-1109-4cd3-81b4-2414198030df/Gau-127683.chk"
 -----
 titel
 -----
 Charge =  0 Multiplicity = 1

                         Standard orientation:
 ---------------------------------------------------------------------
 Center     Atomic      Atomic             Coordinates (Angstroms)
 Number     Number       Type             X           Y           Z
 ---------------------------------------------------------------------
      1          8           0       -2.377489   -0.517137    0.312711
      2          6           0       -1.274082   -0.312166   -0.568791
      3          6           0       -0.871379    1.167544   -0.598719
      4          8           0       -0.061624    1.541677    0.509903
      5          6           0        1.087213    0.725564    0.658916
      6          6           0        1.847391    0.298646   -0.646534
      7          6           0        1.346134   -1.128541   -0.434024
      8          6           0        0.797606   -0.760417    0.949660
      9          6           0       -0.134641   -1.224453   -0.133187
     10          1           0       -2.080746   -0.246399    1.189820
     11          1           0       -1.648281   -0.594941   -1.559140
     12          1           0       -0.368422    1.410034   -1.544659
     13          1           0       -1.777989    1.774151   -0.532919
     14          1           0        1.716290    1.227571    1.394607
     15          1           0        1.612624    0.808472   -1.583982
     16          1           0        2.926057    0.365343   -0.483176
     17          1           0        1.892832   -2.022209   -0.710970
     18          1           0        0.917120   -1.262382    1.901701
     19          1           0       -0.466041   -2.253021   -0.016124
 ---------------------------------------------------------------------

 SCF Done:  E(RB3LYP) =  -423.154232529     A.U. after    1 cycles

 The electronic state is 1-A.
 Alpha  occ. eigenvalues --  -19.14115 -19.12963 -10.23748 -10.23133 -10.22282
 Alpha  occ. eigenvalues --  -10.20018 -10.19551 -10.19046 -10.18775  -1.03842
 Alpha  occ. eigenvalues --   -1.00911  -0.89410  -0.76255  -0.70872  -0.66533
 Alpha  occ. eigenvalues --   -0.62837  -0.55873  -0.53546  -0.52924  -0.48962
 Alpha  occ. eigenvalues --   -0.48440  -0.45929  -0.43460  -0.41198  -0.39814
 Alpha  occ. eigenvalues --   -0.39497  -0.37979  -0.34537  -0.33657  -0.30197
 Alpha  occ. eigenvalues --   -0.29467  -0.28507  -0.25918  -0.23794
 Alpha virt. eigenvalues --    0.08169   0.08737   0.09254   0.11475   0.13239
 Alpha virt. eigenvalues --    0.14013   0.14246   0.14727   0.15957   0.17181
 Alpha virt. eigenvalues --    0.18546   0.19562   0.19868   0.21189   0.22768

 Mulliken charges:
               1
     1  O   -0.434766
     2  C    0.088328
     3  C   -0.117733
     4  O   -0.272781
     5  C    0.106081
     6  C   -0.280352
     7  C   -0.087130
     8  C   -0.103815
     9  C   -0.043680
    10  H    0.282906
    11  H    0.087073
    12  H    0.093750
    13  H    0.114575
    14  H    0.088230
    15  H    0.102313
    16  H    0.106310
    17  H    0.088796
    18  H    0.085018
    19  H    0.096879
 Sum of Mulliken charges =   0.00000

 Dipole moment (field-independent basis, Debye):
    X=              1.7732    Y=             -0.6406    Z=             -0.1688  Tot=              1.8929
 Quadrupole moment (field-independent basis, Debye-Ang):
   XX=            -56.1216   YY=            -54.6541   ZZ=            -50.1284
   XY=             -1.8940   XZ=              0.4659   YZ=             -1.5479

  Exact polarizability:  80.650  -0.443  70.340   0.508  -1.021  68.677
 Approx polarizability: 112.975   0.269 102.067  -0.860   2.080 110.019

                      1                      2                      3
                      A                      A                      A
 Frequencies --    112.3042               236.0909               270.7159
 Red. masses --      3.6872                 2.9728                 3.3779
 Frc consts  --      0.0274                 0.0976                 0.1459
 IR Inten    --      2.5094                 6.5097                 4.0710

                      4                      5                      6
                      A                      A                      A
 Frequencies --    361.3900               407.0664               432.0462
 Red. masses --      1.2430                 3.4743                 3.0873
 Frc consts  --      0.0956                 0.3392                 0.3395
 IR Inten    --     75.2068                 2.4629                 9.6668

                      7                      8                      9
                      A                      A                      A
 Frequencies --    486.2898               530.6377               564.0839
 Red. masses --      2.5844                 3.4994                 3.9324
 Frc consts  --      0.3601                 0.5805                 0.7372
 IR Inten    --      1.0081                 6.9475                 1.4635

                     10                     11                     12
                      A                      A                      A
 Frequencies --    721.5366               761.3157               789.7780
 Red. masses --      4.5003                 2.3045                 2.1013
 Frc consts  --      1.3804                 0.7870                 0.7722
 IR Inten    --      7.3660                 9.6587                 9.0724

                     13                     14                     15
                      A                      A                      A
 Frequencies --    816.0455               838.8527               873.0074
 Red. masses --      2.7698                 2.3861                 2.7921
 Frc consts  --      1.0868                 0.9893                 1.2538
 IR Inten    --      7.4622                16.5063                 7.4230

                     16                     17                     18
                      A                      A                      A
 Frequencies --    922.6839               937.8269               964.6797
 Red. masses --      2.2523                 2.1742                 1.9697
 Frc consts  --      1.1298                 1.1267                 1.0800
 IR Inten    --      5.6861                11.6044                 7.4331

                     19                     20                     21
                      A                      A                      A
 Frequencies --    974.9237              1013.4978              1020.3927
 Red. masses --      1.3543                 2.4391                 3.0725
 Frc consts  --      0.7584                 1.4761                 1.8848
 IR Inten    --      9.5366                10.4526                37.5510

                     22                     23                     24
                      A                      A                      A
 Frequencies --   1048.6598              1068.5225              1086.6000
 Red. masses --      1.8764                 1.9086                 1.6546
 Frc consts  --      1.2158                 1.2839                 1.1510
 IR Inten    --     25.2196                18.7196                13.7933

                     25                     26                     27
                      A                      A                      A
 Frequencies --   1096.7671              1137.4054              1158.7061
 Red. masses --      1.9604                 2.5661                 1.3564
 Frc consts  --      1.3894                 1.9559                 1.0730
 IR Inten    --     44.8411                33.3878                 9.9590

                     28                     29                     30
                      A                      A                      A
 Frequencies --   1180.9969              1224.3726              1257.1194
 Red. masses --      1.8163                 1.6837                 1.2530
 Frc consts  --      1.4926                 1.4871                 1.1667
 IR Inten    --     50.2157                 4.2449                16.5873

                     31                     32                     33
                      A                      A                      A
 Frequencies --   1260.3776              1298.8403              1300.5890
 Red. masses --      1.3081                 1.3577                 1.7460
 Frc consts  --      1.2243                 1.3495                 1.7401
 IR Inten    --      6.3686                 3.3912                11.4057

                     34                     35                     36
                      A                      A                      A
 Frequencies --   1335.8232              1339.2963              1370.6629
 Red. masses --      1.4462                 1.8053                 1.2978
 Frc consts  --      1.5205                 1.9078                 1.4365
 IR Inten    --      3.1784                 7.6238                10.3789

                     37                     38                     39
                      A                      A                      A
 Frequencies --   1405.6279              1420.6961              1437.9854
 Red. masses --      1.3118                 1.4675                 1.7851
 Frc consts  --      1.5271                 1.7451                 2.1749
 IR Inten    --      7.9270                32.7201                27.2697

                     40                     41                     42
                      A                      A                      A
 Frequencies --   1482.0445              1511.7102              3009.4737
 Red. masses --      1.1238                 1.0894                 1.0682
 Frc consts  --      1.4543                 1.4668                 5.7002
 IR Inten    --      4.9359                 3.3201                27.7800

                     43                     44                     45
                      A                      A                      A
 Frequencies --   3052.8822              3063.2642              3099.3957
 Red. masses --      1.0843                 1.0589                 1.0963
 Frc consts  --      5.9540                 5.8544                 6.2049
 IR Inten    --     37.2308                49.5780                32.1269

                     46                     47                     48
                      A                      A                      A
 Frequencies --   3102.0770              3111.8855              3146.2083
 Red. masses --      1.0977                 1.0970                 1.0870
 Frc consts  --      6.2234                 6.2589                 6.3393
 IR Inten    --     13.7870                40.3931                 8.9057

                     49                     50                     51
                      A                      A                      A
 Frequencies --   3177.5767              3190.7651              3790.6496
 Red. masses --      1.0887                 1.0972                 1.0656
 Frc consts  --      6.4765                 6.5817                 9.0211
 IR Inten    --     20.6291                18.8575                13.6365

 - Thermochemistry -
 -------------------
 Temperature   298.150 Kelvin.  Pressure   1.00000 Atm.
 Atom     1 has atomic number  8 and mass  15.99491

 Molecular mass:   126.06808 amu.
 Principal axes and moments of inertia in atomic units:
                           1         2         3
     Eigenvalues --   639.169861020.600221283.29915
           X            0.99988  -0.01513   0.00257
           Y            0.01523   0.99898  -0.04251
           Z           -0.00192   0.04254   0.99909
 This molecule is an asymmetric top.
 Rotational symmetry number  1.
 Warning -- assumption of classical behavior for rotation
           may cause significant error
 Rotational temperatures (Kelvin)      0.13551     0.08487     0.06749
 Rotational constants (GHZ):           2.82357     1.76831     1.40633
 Zero-point vibrational energy     425883.4 (Joules/Mol)
                                  101.78858 (Kcal/Mol)
 Warning -- explicit consideration of   9 degrees of freedom as
           vibrations may cause significant error
 Vibrational temperatures:    161.58   339.68   389.50   519.96   585.68
          (Kelvin)            621.62   699.66   763.47   811.59  1038.13
                             1095.36  1136.31  1174.11  1206.92  1256.06
                             1327.53  1349.32  1387.96  1402.70  1458.20
                             1468.12  1508.79  1537.36  1563.37  1578.00
                             1636.47  1667.12  1699.19  1761.60  1808.71
                             1813.40  1868.74  1871.26  1921.95  1926.95
                             1972.08  2022.38  2044.06  2068.94  2132.33
                             2175.01  4329.96  4392.41  4407.35  4459.33
                             4463.19  4477.30  4526.69  4571.82  4590.79
                             5453.89

 Zero-point correction=                           0.162210 (Hartree/Particle)
 Thermal correction to Energy=                    0.169285
 Thermal correction to Enthalpy=                  0.170229
 Thermal correction to Gibbs Free Energy=         0.130983
 Sum of electronic and zero-point Energies=           -422.992022
 Sum of electronic and thermal Energies=              -422.984948
 Sum of electronic and thermal Enthalpies=            -422.984004
 Sum of electronic and thermal Free Energies=         -423.023249

                     E (Thermal)             CV                S
                      KCal/Mol        Cal/Mol-Kelvin    Cal/Mol-Kelvin
 Total                  106.228             29.339             82.599
 Electronic               0.000              0.000              0.000
 Translational            0.889              2.981             40.409
 Rotational               0.889              2.981             28.217
 Vibrational            104.450             23.377             13.974
 Vibration     1          0.607              1.939              3.229
 Vibration     2          0.655              1.786              1.832
 Vibration     3          0.674              1.727              1.592
 Vibration     4          0.736              1.552              1.116
 Vibration     5          0.772              1.455              0.937
 Vibration     6          0.793              1.400              0.852
 Vibration     7          0.842              1.280              0.693
 Vibration     8          0.886              1.182              0.586
 Vibration     9          0.920              1.109              0.516

 Optimization completed.
    -- Stationary point found.
 Normal termination of Gaussian 09 at Tue Jan 28 08:55:15 2020.
