 Gaussian 09, Revision D.01,
 Gaussian 09:  ES64L-G09RevD.01 24-Apr-2013

 -----------------------------
 # b3lyp 6-31G(2df,p) opt Freq
 -----------------------------

 -----
 titel
 -----
 Symbolic Z-matrix:
 Charge =  0 Multiplicity = 1

 SCF Done:  E(RB3LYP) =  -423.158564940     A.U. after   14 cycles
 Optimization completed.
    -- Stationary point found.
 Normal termination of Gaussian 09 at Mon Jan 27 16:09:20 2020.

 ----------------------------------------------------------------------
 #N Geom=AllCheck Guess=TCheck SCRF=Check GenChk RB3LYP/6-31G(2df,p) Fr
 eq
 ----------------------------------------------------------------------

 Structure from the checkpoint file:  "/scratch/puck/g09_f36423b4-3ed2-47fc-b8c7-a53ad80253a3/Gau-165064.chk"
 -----
 titel
 -----
 Charge =  0 Multiplicity = 1

                         Standard orientation:
 ---------------------------------------------------------------------
 Center     Atomic      Atomic             Coordinates (Angstroms)
 Number     Number       Type             X           Y           Z
 ---------------------------------------------------------------------
      1          6           0        1.718830    0.166028    1.216637
      2          6           0        0.911804    0.057527   -0.077151
      3          8           0        1.777010   -0.004626   -1.214130
      4          6           0       -0.121289    1.185408   -0.282500
      5          6           0       -1.290434    1.369576    0.649872
      6          6           0       -1.466367    0.578456   -0.625520
      7          6           0       -1.299084   -0.920382   -0.503374
      8          8           0       -0.928321   -1.369108    0.814511
      9          6           0        0.096113   -1.236876   -0.172689
     10          1           0        1.065977    0.095137    2.089841
     11          1           0        2.461868   -0.635556    1.267562
     12          1           0        2.244851    1.126931    1.265151
     13          1           0        2.372038    0.751357   -1.172712
     14          1           0        0.246279    2.057841   -0.813727
     15          1           0       -1.321145    0.820495    1.582157
     16          1           0       -1.732342    2.359766    0.683253
     17          1           0       -2.089764    0.958726   -1.425428
     18          1           0       -1.949627   -1.594082   -1.053074
     19          1           0        0.614906   -2.149169   -0.457723
 ---------------------------------------------------------------------

 SCF Done:  E(RB3LYP) =  -423.158564940     A.U. after    1 cycles

 The electronic state is 1-A.
 Alpha  occ. eigenvalues --  -19.14982 -19.13762 -10.24214 -10.23485 -10.22774
 Alpha  occ. eigenvalues --  -10.19166 -10.18848 -10.18457 -10.17565  -1.07214
 Alpha  occ. eigenvalues --   -1.02041  -0.86513  -0.75610  -0.69455  -0.66054
 Alpha  occ. eigenvalues --   -0.60896  -0.56562  -0.55828  -0.53556  -0.48301
 Alpha  occ. eigenvalues --   -0.46743  -0.44986  -0.43181  -0.41239  -0.38723
 Alpha  occ. eigenvalues --   -0.38484  -0.37608  -0.35889  -0.33374  -0.32926
 Alpha  occ. eigenvalues --   -0.29404  -0.27448  -0.26053  -0.25653
 Alpha virt. eigenvalues --    0.07282   0.07986   0.08630   0.10760   0.13705
 Alpha virt. eigenvalues --    0.14698   0.15595   0.16524   0.16981   0.17226
 Alpha virt. eigenvalues --    0.17751   0.19018   0.19529   0.21245   0.22726

 Mulliken charges:
               1
     1  C   -0.436113
     2  C    0.336383
     3  O   -0.475888
     4  C   -0.086740
     5  C   -0.305081
     6  C   -0.064600
     7  C    0.028142
     8  O   -0.264387
     9  C    0.022246
    10  H    0.137059
    11  H    0.121444
    12  H    0.104873
    13  H    0.278304
    14  H    0.077107
    15  H    0.135933
    16  H    0.106771
    17  H    0.086919
    18  H    0.097535
    19  H    0.100092
 Sum of Mulliken charges =   0.00000

 Dipole moment (field-independent basis, Debye):
    X=              0.5525    Y=              1.6280    Z=             -0.6089  Tot=              1.8239
 Quadrupole moment (field-independent basis, Debye-Ang):
   XX=            -50.3029   YY=            -51.0182   ZZ=            -55.4148
   XY=              1.2688   XZ=              3.1509   YZ=              0.5051

  Exact polarizability:  80.711  -1.267  73.455   2.182   1.864  65.515
 Approx polarizability: 114.445   0.046 105.612  -1.397   0.766 103.904

                      1                      2                      3
                      A                      A                      A
 Frequencies --    151.7969               196.0820               226.4224
 Red. masses --      3.3584                 2.9967                 1.0567
 Frc consts  --      0.0456                 0.0679                 0.0319
 IR Inten    --      1.5065                 5.7817                20.1669

                      4                      5                      6
                      A                      A                      A
 Frequencies --    237.3506               330.7236               350.5238
 Red. masses --      1.0797                 3.9698                 3.5691
 Frc consts  --      0.0358                 0.2558                 0.2584
 IR Inten    --     74.4800                 4.3543                 7.9210

                      7                      8                      9
                      A                      A                      A
 Frequencies --    377.2560               391.1036               529.0421
 Red. masses --      4.7913                 2.4856                 3.4283
 Frc consts  --      0.4018                 0.2240                 0.5653
 IR Inten    --      5.4991                 2.3496                 4.0715

                     10                     11                     12
                      A                      A                      A
 Frequencies --    542.0279               599.3570               704.1641
 Red. masses --      4.8975                 3.8617                 3.7240
 Frc consts  --      0.8477                 0.8173                 1.0879
 IR Inten    --      3.5031                 3.5465                 3.1301

                     13                     14                     15
                      A                      A                      A
 Frequencies --    746.9675               798.1461               823.3913
 Red. masses --      2.4827                 1.4903                 3.3256
 Frc consts  --      0.8162                 0.5593                 1.3284
 IR Inten    --      3.7859                 5.2084                 7.6486

                     16                     17                     18
                      A                      A                      A
 Frequencies --    857.4204               893.7653               905.8759
 Red. masses --      2.4269                 2.5435                 2.3656
 Frc consts  --      1.0512                 1.1971                 1.1438
 IR Inten    --     14.3567                17.7365                 6.6937

                     19                     20                     21
                      A                      A                      A
 Frequencies --    943.7842               971.3885              1005.3616
 Red. masses --      2.1173                 2.7001                 2.2813
 Frc consts  --      1.1112                 1.5011                 1.3586
 IR Inten    --     33.6503                 2.1855                13.9523

                     22                     23                     24
                      A                      A                      A
 Frequencies --   1030.5686              1046.1592              1077.8560
 Red. masses --      1.6728                 1.8487                 1.3860
 Frc consts  --      1.0467                 1.1921                 0.9487
 IR Inten    --     19.0964                 7.8808                 0.9444

                     25                     26                     27
                      A                      A                      A
 Frequencies --   1085.2313              1098.6673              1105.0935
 Red. masses --      1.2768                 1.2792                 1.4263
 Frc consts  --      0.8859                 0.9097                 1.0263
 IR Inten    --      3.4380                 1.2182                17.1447

                     28                     29                     30
                      A                      A                      A
 Frequencies --   1118.3552              1170.4590              1193.5483
 Red. masses --      1.3891                 3.2480                 1.8272
 Frc consts  --      1.0236                 2.6217                 1.5336
 IR Inten    --     49.4143                35.1016                 2.5059

                     31                     32                     33
                      A                      A                      A
 Frequencies --   1203.5175              1250.2019              1295.3464
 Red. masses --      2.2070                 1.3853                 1.3565
 Frc consts  --      1.8835                 1.2757                 1.3411
 IR Inten    --     18.1434                12.3843                 0.2776

                     34                     35                     36
                      A                      A                      A
 Frequencies --   1341.7704              1352.2786              1399.6070
 Red. masses --      1.7444                 2.1272                 1.4718
 Frc consts  --      1.8503                 2.2918                 1.6986
 IR Inten    --     27.8580                 6.1318                12.9505

                     37                     38                     39
                      A                      A                      A
 Frequencies --   1403.9429              1428.7780              1476.1186
 Red. masses --      1.5557                 2.8724                 1.2765
 Frc consts  --      1.8066                 3.4548                 1.6387
 IR Inten    --      2.9472                10.0440                 2.6386

                     40                     41                     42
                      A                      A                      A
 Frequencies --   1488.2396              1498.0407              3030.7830
 Red. masses --      1.0578                 1.1021                 1.0385
 Frc consts  --      1.3804                 1.4571                 5.6206
 IR Inten    --      2.8525                 9.2052                22.0698

                     43                     44                     45
                      A                      A                      A
 Frequencies --   3098.6495              3128.6987              3139.7819
 Red. masses --      1.0983                 1.1003                 1.0567
 Frc consts  --      6.2131                 6.3459                 6.1374
 IR Inten    --     20.5733                11.1518                14.7467

                     46                     47                     48
                      A                      A                      A
 Frequencies --   3142.8373              3154.1043              3160.5453
 Red. masses --      1.0881                 1.0893                 1.0934
 Frc consts  --      6.3321                 6.3849                 6.4352
 IR Inten    --     21.2162                19.1060                24.9313

                     49                     50                     51
                      A                      A                      A
 Frequencies --   3188.4670              3235.1130              3810.9557
 Red. masses --      1.0932                 1.1143                 1.0662
 Frc consts  --      6.5481                 6.8712                 9.1233
 IR Inten    --     17.4918                 3.7580                17.6105

 - Thermochemistry -
 -------------------
 Temperature   298.150 Kelvin.  Pressure   1.00000 Atm.
 Atom     1 has atomic number  6 and mass  12.00000

 Molecular mass:   126.06808 amu.
 Principal axes and moments of inertia in atomic units:
                           1         2         3
     Eigenvalues --   731.655151034.039071182.32385
           X            0.99828  -0.02759   0.05177
           Y            0.02459   0.99803   0.05777
           Z           -0.05326  -0.05640   0.99699
 This molecule is an asymmetric top.
 Rotational symmetry number  1.
 Warning -- assumption of classical behavior for rotation
           may cause significant error
 Rotational temperatures (Kelvin)      0.11838     0.08376     0.07326
 Rotational constants (GHZ):           2.46666     1.74533     1.52644
 Zero-point vibrational energy     417111.9 (Joules/Mol)
                                   99.69214 (Kcal/Mol)
 Warning -- explicit consideration of  11 degrees of freedom as
           vibrations may cause significant error
 Vibrational temperatures:    218.40   282.12   325.77   341.49   475.84
          (Kelvin)            504.32   542.79   562.71   761.17   779.86
                              862.34  1013.13  1074.72  1148.35  1184.67
                             1233.64  1285.93  1303.35  1357.89  1397.61
                             1446.49  1482.76  1505.19  1550.79  1561.40
                             1580.74  1589.98  1609.06  1684.03  1717.25
                             1731.59  1798.76  1863.71  1930.51  1945.62
                             2013.72  2019.96  2055.69  2123.80  2141.24
                             2155.34  4360.62  4458.26  4501.49  4517.44
                             4521.84  4538.05  4547.31  4587.49  4654.60
                             5483.11

 Zero-point correction=                           0.158870 (Hartree/Particle)
 Thermal correction to Energy=                    0.166861
 Thermal correction to Enthalpy=                  0.167805
 Thermal correction to Gibbs Free Energy=         0.127029
 Sum of electronic and zero-point Energies=           -422.999695
 Sum of electronic and thermal Energies=              -422.991704
 Sum of electronic and thermal Enthalpies=            -422.990759
 Sum of electronic and thermal Free Energies=         -423.031536

                     E (Thermal)             CV                S
                      KCal/Mol        Cal/Mol-Kelvin    Cal/Mol-Kelvin
 Total                  104.707             32.324             85.822
 Electronic               0.000              0.000              0.000
 Translational            0.889              2.981             40.409
 Rotational               0.889              2.981             28.283
 Vibrational            102.930             26.363             17.131
 Vibration     1          0.619              1.901              2.650
 Vibration     2          0.636              1.845              2.170
 Vibration     3          0.650              1.801              1.907
 Vibration     4          0.656              1.783              1.823
 Vibration     5          0.713              1.614              1.257
 Vibration     6          0.727              1.574              1.164
 Vibration     7          0.748              1.519              1.050
 Vibration     8          0.759              1.489              0.996
 Vibration     9          0.884              1.186              0.589
 Vibration    10          0.897              1.157              0.561
 Vibration    11          0.957              1.033              0.451

 Normal termination of Gaussian 09 at Mon Jan 27 16:55:01 2020.
 Normal termination of Gaussian 09 at Mon Jan 27 16:05:01 2020.
