 Gaussian 09, Revision D.01,
 Gaussian 09:  ES64L-G09RevD.01 24-Apr-2013

 -----------------------------
 # b3lyp 6-31G(2df,p) opt Freq
 -----------------------------

 -----
 titel
 -----
 Symbolic Z-matrix:
 Charge =  0 Multiplicity = 1

 SCF Done:  E(RB3LYP) =  -423.176806504     A.U. after   14 cycles
 Optimization completed.
    -- Stationary point found.
 Normal termination of Gaussian 09 at Mon Jan 27 16:36:54 2020.

 ----------------------------------------------------------------------
 #N Geom=AllCheck Guess=TCheck SCRF=Check GenChk RB3LYP/6-31G(2df,p) Fr
 eq
 ----------------------------------------------------------------------

 Structure from the checkpoint file:  "/scratch/puck/g09_0bd60e04-402a-4a6b-9cce-4a2e7a944a60/Gau-12430.chk"
 -----
 titel
 -----
 Charge =  0 Multiplicity = 1

                         Standard orientation:
 ---------------------------------------------------------------------
 Center     Atomic      Atomic             Coordinates (Angstroms)
 Number     Number       Type             X           Y           Z
 ---------------------------------------------------------------------
      1          8           0       -0.941343    0.543761    1.394248
      2          6           0       -1.066989   -0.005974    0.107685
      3          6           0       -2.300193   -0.833893   -0.097540
      4          6           0       -2.177402    0.519775   -0.769150
      5          6           0        0.248570   -0.424347   -0.497111
      6          6           0        1.160717   -1.467367    0.234817
      7          6           0        2.405717   -0.556613    0.003501
      8          6           0        1.415916    0.568345   -0.317900
      9          8           0        1.451260    1.763738   -0.219874
     10          1           0       -0.503167    1.398564    1.291472
     11          1           0       -2.229981   -1.727136   -0.708420
     12          1           0       -2.970853   -0.910047    0.750231
     13          1           0       -2.026615    0.558842   -1.842550
     14          1           0       -2.770628    1.329859   -0.361024
     15          1           0        0.130578   -0.685732   -1.554653
     16          1           0        0.898396   -1.534619    1.291899
     17          1           0        1.198225   -2.465635   -0.201175
     18          1           0        3.092600   -0.375900    0.833055
     19          1           0        2.984080   -0.847741   -0.879646
 ---------------------------------------------------------------------

 SCF Done:  E(RB3LYP) =  -423.176806504     A.U. after    1 cycles

 The electronic state is 1-A.
 Alpha  occ. eigenvalues --  -19.14258 -19.14066 -10.27314 -10.24332 -10.19897
 Alpha  occ. eigenvalues --  -10.19610 -10.19578 -10.18661 -10.18558  -1.05152
 Alpha  occ. eigenvalues --   -1.02684  -0.85833  -0.83696  -0.69601  -0.63249
 Alpha  occ. eigenvalues --   -0.60813  -0.58354  -0.54557  -0.50446  -0.48903
 Alpha  occ. eigenvalues --   -0.46748  -0.45507  -0.44001  -0.41827  -0.39651
 Alpha  occ. eigenvalues --   -0.39012  -0.37068  -0.35257  -0.34570  -0.34395
 Alpha  occ. eigenvalues --   -0.32485  -0.29200  -0.25732  -0.24161
 Alpha virt. eigenvalues --   -0.02372   0.08231   0.10486   0.10965   0.11774
 Alpha virt. eigenvalues --    0.11954   0.12832   0.14574   0.15455   0.17280
 Alpha virt. eigenvalues --    0.17585   0.19057   0.20425   0.21445   0.22646

 Mulliken charges:
               1
     1  O   -0.475770
     2  C    0.417546
     3  C   -0.305641
     4  C   -0.320531
     5  C   -0.163217
     6  C   -0.253957
     7  C   -0.334253
     8  C    0.386105
     9  O   -0.314932
    10  H    0.294439
    11  H    0.111701
    12  H    0.127181
    13  H    0.112340
    14  H    0.120515
    15  H    0.097477
    16  H    0.133163
    17  H    0.107905
    18  H    0.130013
    19  H    0.129916
 Sum of Mulliken charges =   0.00000

 Dipole moment (field-independent basis, Debye):
    X=              0.2246    Y=             -1.9773    Z=             -1.1638  Tot=              2.3054
 Quadrupole moment (field-independent basis, Debye-Ang):
   XX=            -52.2965   YY=            -55.1925   ZZ=            -53.0064
   XY=             -4.1688   XZ=              1.0311   YZ=              2.1292

  Exact polarizability:  87.508  -0.813  76.638   2.749   0.217  64.276
 Approx polarizability: 110.109   1.531 121.411   2.776   1.166  99.980

                      1                      2                      3
                      A                      A                      A
 Frequencies --     60.0944               100.3216               131.1266
 Red. masses --      4.9428                 2.6850                 4.4188
 Frc consts  --      0.0105                 0.0159                 0.0448
 IR Inten    --      3.7122                 3.0711                 3.1906

                      4                      5                      6
                      A                      A                      A
 Frequencies --    205.5159               282.3966               325.4290
 Red. masses --      2.8714                 3.3715                 2.5870
 Frc consts  --      0.0715                 0.1584                 0.1614
 IR Inten    --      0.7083                 0.0220                 1.0148

                      7                      8                      9
                      A                      A                      A
 Frequencies --    404.4741               436.1563               465.6594
 Red. masses --      3.1623                 2.7274                 1.3583
 Frc consts  --      0.3048                 0.3057                 0.1735
 IR Inten    --      7.5043                 4.7655                74.8849

                     10                     11                     12
                      A                      A                      A
 Frequencies --    511.6744               578.7006               662.6351
 Red. masses --      2.3146                 3.3125                 2.3413
 Frc consts  --      0.3570                 0.6536                 0.6057
 IR Inten    --     63.5287                 3.6049                 0.9540

                     13                     14                     15
                      A                      A                      A
 Frequencies --    709.7534               763.5478               772.6401
 Red. masses --      2.1590                 1.5456                 1.2020
 Frc consts  --      0.6408                 0.5309                 0.4228
 IR Inten    --      3.1783                 1.7690                 1.0295

                     16                     17                     18
                      A                      A                      A
 Frequencies --    851.8857               885.2747               922.7599
 Red. masses --      2.6289                 2.2069                 2.2507
 Frc consts  --      1.1241                 1.0190                 1.1291
 IR Inten    --     11.1813                 0.6533                 6.0538

                     19                     20                     21
                      A                      A                      A
 Frequencies --    926.8248               934.6746               984.2979
 Red. masses --      1.4647                 2.4574                 2.4716
 Frc consts  --      0.7413                 1.2649                 1.4108
 IR Inten    --      1.9096                19.1254                 8.9410

                     22                     23                     24
                      A                      A                      A
 Frequencies --   1006.3408              1017.8455              1051.7427
 Red. masses --      1.9049                 2.0396                 1.4717
 Frc consts  --      1.1366                 1.2450                 0.9592
 IR Inten    --     16.4978                 7.2464                19.0764

                     25                     26                     27
                      A                      A                      A
 Frequencies --   1057.3083              1078.3916              1090.8985
 Red. masses --      2.1746                 1.4588                 2.9127
 Frc consts  --      1.4323                 0.9995                 2.0423
 IR Inten    --      2.2196                 0.4528                53.0693

                     28                     29                     30
                      A                      A                      A
 Frequencies --   1183.1880              1188.2822              1210.9182
 Red. masses --      1.3696                 1.2976                 1.6380
 Frc consts  --      1.1297                 1.0795                 1.4151
 IR Inten    --      1.2534                 0.3244                 7.0474

                     31                     32                     33
                      A                      A                      A
 Frequencies --   1230.9261              1239.1653              1264.5739
 Red. masses --      1.2880                 1.3706                 1.6706
 Frc consts  --      1.1498                 1.2400                 1.5740
 IR Inten    --      7.2760                23.6336                14.5194

                     34                     35                     36
                      A                      A                      A
 Frequencies --   1301.5473              1332.5614              1405.1527
 Red. masses --      2.2199                 1.9562                 1.6601
 Frc consts  --      2.2156                 2.0466                 1.9312
 IR Inten    --     62.1297                17.7656                22.4270

                     37                     38                     39
                      A                      A                      A
 Frequencies --   1444.4695              1453.3690              1486.2096
 Red. masses --      1.1033                 1.0915                 1.1079
 Frc consts  --      1.3563                 1.3583                 1.4418
 IR Inten    --      4.8971                 2.1733                 2.3817

                     40                     41                     42
                      A                      A                      A
 Frequencies --   1499.1093              1869.1090              3053.0356
 Red. masses --      1.5484                12.4669                 1.0791
 Frc consts  --      2.0502                25.6612                 5.9260
 IR Inten    --      7.2620               232.3367                 5.8043

                     43                     44                     45
                      A                      A                      A
 Frequencies --   3058.7247              3087.1891              3119.8781
 Red. masses --      1.0650                 1.0580                 1.1036
 Frc consts  --      5.8705                 5.9413                 6.3288
 IR Inten    --     11.1285                17.4495                 7.3732

                     46                     47                     48
                      A                      A                      A
 Frequencies --   3134.6993              3139.5191              3149.0421
 Red. masses --      1.0515                 1.0578                 1.1094
 Frc consts  --      6.0879                 6.1431                 6.4818
 IR Inten    --     13.2776                 6.0839                15.0068

                     49                     50                     51
                      A                      A                      A
 Frequencies --   3220.7138              3234.8117              3768.4132
 Red. masses --      1.1184                 1.1159                 1.0657
 Frc consts  --      6.8350                 6.8795                 8.9169
 IR Inten    --      0.5283                10.4361                27.3860

 - Thermochemistry -
 -------------------
 Temperature   298.150 Kelvin.  Pressure   1.00000 Atm.
 Atom     1 has atomic number  8 and mass  15.99491

 Molecular mass:   126.06808 amu.
 Principal axes and moments of inertia in atomic units:
                           1         2         3
     Eigenvalues --   624.623231412.037501637.27562
           X            0.99940  -0.03165   0.01411
           Y            0.03148   0.99942   0.01269
           Z           -0.01451  -0.01224   0.99982
 This molecule is an asymmetric top.
 Rotational symmetry number  1.
 Warning -- assumption of classical behavior for rotation
           may cause significant error
 Rotational temperatures (Kelvin)      0.13867     0.06134     0.05290
 Rotational constants (GHZ):           2.88933     1.27811     1.10228
 Zero-point vibrational energy     414464.0 (Joules/Mol)
                                   99.05928 (Kcal/Mol)
 Warning -- explicit consideration of  11 degrees of freedom as
           vibrations may cause significant error
 Vibrational temperatures:     86.46   144.34   188.66   295.69   406.31
          (Kelvin)            468.22   581.95   627.53   669.98   736.18
                              832.62   953.38  1021.18  1098.57  1111.66
                             1225.67  1273.71  1327.64  1333.49  1344.79
                             1416.18  1447.90  1464.45  1513.22  1521.23
                             1551.56  1569.56  1702.34  1709.67  1742.24
                             1771.03  1782.88  1819.44  1872.63  1917.26
                             2021.70  2078.27  2091.07  2138.32  2156.88
                             2689.23  4392.63  4400.82  4441.77  4488.80
                             4510.13  4517.06  4530.76  4633.88  4654.17
                             5421.90

 Zero-point correction=                           0.157861 (Hartree/Particle)
 Thermal correction to Energy=                    0.166570
 Thermal correction to Enthalpy=                  0.167514
 Thermal correction to Gibbs Free Energy=         0.124153
 Sum of electronic and zero-point Energies=           -423.018945
 Sum of electronic and thermal Energies=              -423.010237
 Sum of electronic and thermal Enthalpies=            -423.009292
 Sum of electronic and thermal Free Energies=         -423.052654

                     E (Thermal)             CV                S
                      KCal/Mol        Cal/Mol-Kelvin    Cal/Mol-Kelvin
 Total                  104.524             33.298             91.262
 Electronic               0.000              0.000              0.000
 Translational            0.889              2.981             40.409
 Rotational               0.889              2.981             28.759
 Vibrational            102.747             27.337             22.094
 Vibration     1          0.597              1.973              4.454
 Vibration     2          0.604              1.949              3.448
 Vibration     3          0.612              1.922              2.929
 Vibration     4          0.640              1.832              2.083
 Vibration     5          0.681              1.706              1.519
 Vibration     6          0.710              1.625              1.283
 Vibration     7          0.770              1.460              0.946
 Vibration     8          0.797              1.391              0.839
 Vibration     9          0.823              1.326              0.750
 Vibration    10          0.867              1.224              0.630
 Vibration    11          0.935              1.077              0.488

 Normal termination of Gaussian 09 at Mon Jan 27 18:28:36 2020.
