 Gaussian 09, Revision D.01,
 Gaussian 09:  ES64L-G09RevD.01 24-Apr-2013

 -----------------------------
 # b3lyp 6-31G(2df,p) opt Freq
 -----------------------------

 -----
 titel
 -----
 Symbolic Z-matrix:
 Charge =  0 Multiplicity = 1

 SCF Done:  E(RB3LYP) =  -423.181747118     A.U. after   14 cycles
 SCF Done:  E(RB3LYP) =  -423.181747106     A.U. after    6 cycles
 SCF Done:  E(RB3LYP) =  -423.181746967     A.U. after    7 cycles
 SCF Done:  E(RB3LYP) =  -423.181747202     A.U. after    7 cycles
 Optimization completed.
    -- Stationary point found.
 Normal termination of Gaussian 09 at Tue Jan 28 14:20:16 2020.

 ----------------------------------------------------------------------
 #N Geom=AllCheck Guess=TCheck SCRF=Check GenChk RB3LYP/6-31G(2df,p) Fr
 eq
 ----------------------------------------------------------------------

 Structure from the checkpoint file:  "/scratch/puck/g09_1c4b731a-e60b-45a1-9518-55fbb216a6c1/Gau-122786.chk"
 -----
 titel
 -----
 Charge =  0 Multiplicity = 1

                         Standard orientation:
 ---------------------------------------------------------------------
 Center     Atomic      Atomic             Coordinates (Angstroms)
 Number     Number       Type             X           Y           Z
 ---------------------------------------------------------------------
      1          6           0       -2.961651    0.886767   -0.158065
      2          6           0       -2.110891   -0.386899   -0.123132
      3          6           0       -0.650161   -0.136702   -0.480544
      4          6           0        0.332222   -1.302864   -0.189151
      5          6           0        1.696443   -0.797948   -0.690334
      6          6           0        1.588910    0.604376   -0.041462
      7          8           0        2.345838    1.532288   -0.080833
      8          6           0        0.227358    0.465250    0.658975
      9          8           0        0.371767   -0.880645    1.217467
     10          1           0       -4.004634    0.668269    0.089004
     11          1           0       -2.599720    1.629343    0.560950
     12          1           0       -2.944094    1.350823   -1.150337
     13          1           0       -2.158592   -0.848917    0.868164
     14          1           0       -2.519301   -1.119575   -0.831539
     15          1           0       -0.557467    0.338424   -1.464743
     16          1           0        0.064819   -2.350241   -0.329758
     17          1           0        2.529091   -1.371066   -0.275549
     18          1           0        1.808204   -0.736225   -1.776421
     19          1           0       -0.092526    1.234143    1.359442
 ---------------------------------------------------------------------

 SCF Done:  E(RB3LYP) =  -423.181747202     A.U. after    1 cycles

 The electronic state is 1-A.
 Alpha  occ. eigenvalues --  -19.15127 -19.13860 -10.27330 -10.25190 -10.24638
 Alpha  occ. eigenvalues --  -10.20963 -10.19726 -10.19270 -10.18330  -1.06818
 Alpha  occ. eigenvalues --   -1.04336  -0.81152  -0.77869  -0.71714  -0.69509
 Alpha  occ. eigenvalues --   -0.61737  -0.55996  -0.55017  -0.51134  -0.47949
 Alpha  occ. eigenvalues --   -0.46425  -0.44603  -0.42809  -0.41955  -0.41303
 Alpha  occ. eigenvalues --   -0.40077  -0.38045  -0.36728  -0.35929  -0.34802
 Alpha  occ. eigenvalues --   -0.32947  -0.31936  -0.28458  -0.23141
 Alpha virt. eigenvalues --   -0.01744   0.08425   0.08764   0.10417   0.11428
 Alpha virt. eigenvalues --    0.12726   0.13167   0.13994   0.15029   0.15766
 Alpha virt. eigenvalues --    0.16963   0.18024   0.19410   0.19810   0.21423

 Mulliken charges:
               1
     1  C   -0.385922
     2  C   -0.212420
     3  C    0.016360
     4  C    0.053668
     5  C   -0.349923
     6  C    0.447183
     7  O   -0.322852
     8  C   -0.051294
     9  O   -0.301955
    10  H    0.119482
    11  H    0.121121
    12  H    0.117481
    13  H    0.120519
    14  H    0.098184
    15  H    0.078648
    16  H    0.088831
    17  H    0.138625
    18  H    0.126438
    19  H    0.097827
 Sum of Mulliken charges =   0.00000

 Dipole moment (field-independent basis, Debye):
    X=             -2.2466    Y=             -1.5267    Z=             -1.4790  Tot=              3.0929
 Quadrupole moment (field-independent basis, Debye-Ang):
   XX=            -57.0627   YY=            -55.1570   ZZ=            -53.6447
   XY=             -5.6105   XZ=             -0.6509   YZ=              2.9512

  Exact polarizability:  87.798   0.977  74.520  -2.281   3.139  63.821
 Approx polarizability: 112.354   8.324 116.461  -2.316   1.815 103.754

                      1                      2                      3
                      A                      A                      A
 Frequencies --    102.6803               113.6672               172.7068
 Red. masses --      2.2873                 5.1986                 2.3022
 Frc consts  --      0.0142                 0.0396                 0.0405
 IR Inten    --      1.1243                 1.3717                 1.5151

                      4                      5                      6
                      A                      A                      A
 Frequencies --    199.8422               281.3310               357.9867
 Red. masses --      1.5975                 1.7662                 3.5986
 Frc consts  --      0.0376                 0.0824                 0.2717
 IR Inten    --      2.8806                 1.1953                 1.2388

                      7                      8                      9
                      A                      A                      A
 Frequencies --    413.1413               455.4462               547.3325
 Red. masses --      2.9015                 3.2084                 4.2309
 Frc consts  --      0.2918                 0.3921                 0.7468
 IR Inten    --      4.4601                 0.7739                11.0848

                     10                     11                     12
                      A                      A                      A
 Frequencies --    615.6172               639.1210               760.9041
 Red. masses --      3.2466                 4.0558                 1.4322
 Frc consts  --      0.7249                 0.9761                 0.4886
 IR Inten    --      0.3893                11.1194                 3.8706

                     13                     14                     15
                      A                      A                      A
 Frequencies --    781.1939               850.4276               851.3516
 Red. masses --      2.9765                 3.0884                 3.1275
 Frc consts  --      1.0702                 1.3160                 1.3356
 IR Inten    --      1.7625                11.5491                16.5882

                     16                     17                     18
                      A                      A                      A
 Frequencies --    881.9469               917.7295               933.1399
 Red. masses --      2.1653                 3.0449                 2.8854
 Frc consts  --      0.9923                 1.5110                 1.4803
 IR Inten    --     14.4826                 4.2812                 8.7775

                     19                     20                     21
                      A                      A                      A
 Frequencies --    951.6570               975.5910              1011.5577
 Red. masses --      2.0928                 1.8476                 3.5457
 Frc consts  --      1.1167                 1.0361                 2.1376
 IR Inten    --     13.9387                11.5836                 8.4217

                     22                     23                     24
                      A                      A                      A
 Frequencies --   1068.1473              1080.5861              1087.2606
 Red. masses --      2.0346                 1.4514                 1.5768
 Frc consts  --      1.3677                 0.9985                 1.0982
 IR Inten    --      0.8181                 5.9830                 3.7475

                     25                     26                     27
                      A                      A                      A
 Frequencies --   1134.8842              1156.8931              1188.6067
 Red. masses --      1.7052                 1.8562                 1.6530
 Frc consts  --      1.2940                 1.4637                 1.3759
 IR Inten    --     15.2187                 4.1725                 4.6314

                     28                     29                     30
                      A                      A                      A
 Frequencies --   1207.9266              1230.3320              1238.2104
 Red. masses --      1.8148                 1.5651                 1.6879
 Frc consts  --      1.5601                 1.3959                 1.5247
 IR Inten    --      0.7198                 6.0128                 6.0305

                     31                     32                     33
                      A                      A                      A
 Frequencies --   1279.0481              1296.8722              1304.1384
 Red. masses --      1.4098                 1.4243                 1.3460
 Frc consts  --      1.3589                 1.4114                 1.3488
 IR Inten    --      7.7159                 1.3305                11.0196

                     34                     35                     36
                      A                      A                      A
 Frequencies --   1351.5423              1404.6224              1416.4632
 Red. masses --      1.4210                 1.5813                 1.2383
 Frc consts  --      1.5294                 1.8382                 1.4638
 IR Inten    --      3.3186                 2.1693                 1.1313

                     37                     38                     39
                      A                      A                      A
 Frequencies --   1450.3374              1489.3264              1500.4885
 Red. masses --      1.1060                 1.0622                 1.0394
 Frc consts  --      1.3707                 1.3882                 1.3787
 IR Inten    --      5.7134                 0.6640                 5.8953

                     40                     41                     42
                      A                      A                      A
 Frequencies --   1505.4658              1883.8177              3023.6938
 Red. masses --      1.0714                12.5772                 1.0673
 Frc consts  --      1.4306                26.2974                 5.7492
 IR Inten    --      3.0968               266.4251                22.9062

                     43                     44                     45
                      A                      A                      A
 Frequencies --   3032.8687              3035.9105              3069.2237
 Red. masses --      1.0489                 1.0697                 1.0593
 Frc consts  --      5.6843                 5.8090                 5.8794
 IR Inten    --     15.6204                30.3611                 9.4236

                     46                     47                     48
                      A                      A                      A
 Frequencies --   3077.6172              3103.3169              3108.7431
 Red. masses --      1.0948                 1.1016                 1.1007
 Frc consts  --      6.1099                 6.2508                 6.2672
 IR Inten    --      2.8561                40.5744                30.0466

                     49                     50                     51
                      A                      A                      A
 Frequencies --   3120.2163              3122.9945              3151.5944
 Red. masses --      1.0942                 1.1024                 1.0919
 Frc consts  --      6.2762                 6.3348                 6.3898
 IR Inten    --     30.3635                12.3307                17.5966

 - Thermochemistry -
 -------------------
 Temperature   298.150 Kelvin.  Pressure   1.00000 Atm.
 Atom     1 has atomic number  6 and mass  12.00000

 Molecular mass:   126.06808 amu.
 Principal axes and moments of inertia in atomic units:
                           1         2         3
     Eigenvalues --   576.366301507.069251735.54458
           X            0.99906  -0.04305  -0.00547
           Y            0.04327   0.99774   0.05147
           Z            0.00324  -0.05166   0.99866
 This molecule is an asymmetric top.
 Rotational symmetry number  1.
 Warning -- assumption of classical behavior for rotation
           may cause significant error
 Rotational temperatures (Kelvin)      0.15028     0.05747     0.04991
 Rotational constants (GHZ):           3.13124     1.19752     1.03987
 Zero-point vibrational energy     418307.3 (Joules/Mol)
                                   99.97784 (Kcal/Mol)
 Warning -- explicit consideration of  10 degrees of freedom as
           vibrations may cause significant error
 Vibrational temperatures:    147.73   163.54   248.49   287.53   404.77
          (Kelvin)            515.06   594.42   655.28   787.49   885.73
                              919.55  1094.77  1123.96  1223.57  1224.90
                             1268.92  1320.41  1342.58  1369.22  1403.66
                             1455.40  1536.82  1554.72  1564.32  1632.84
                             1664.51  1710.14  1737.93  1770.17  1781.51
                             1840.26  1865.91  1876.36  1944.57  2020.94
                             2037.97  2086.71  2142.81  2158.87  2166.03
                             2710.39  4350.42  4363.62  4367.99  4415.92
                             4428.00  4464.98  4472.78  4489.29  4493.29
                             4534.44

 Zero-point correction=                           0.159325 (Hartree/Particle)
 Thermal correction to Energy=                    0.167443
 Thermal correction to Enthalpy=                  0.168387
 Thermal correction to Gibbs Free Energy=         0.126462
 Sum of electronic and zero-point Energies=           -423.022422
 Sum of electronic and thermal Energies=              -423.014305
 Sum of electronic and thermal Enthalpies=            -423.013360
 Sum of electronic and thermal Free Energies=         -423.055285

                     E (Thermal)             CV                S
                      KCal/Mol        Cal/Mol-Kelvin    Cal/Mol-Kelvin
 Total                  105.072             31.196             88.239
 Electronic               0.000              0.000              0.000
 Translational            0.889              2.981             40.409
 Rotational               0.889              2.981             28.801
 Vibrational            103.294             25.235             19.029
 Vibration     1          0.605              1.947              3.403
 Vibration     2          0.607              1.938              3.205
 Vibration     3          0.626              1.876              2.406
 Vibration     4          0.638              1.840              2.135
 Vibration     5          0.681              1.708              1.526
 Vibration     6          0.733              1.559              1.131
 Vibration     7          0.777              1.442              0.916
 Vibration     8          0.814              1.349              0.779
 Vibration     9          0.903              1.146              0.550
 Vibration    10          0.975              0.999              0.424

 Optimization completed.
    -- Stationary point found.
 Normal termination of Gaussian 09 at Tue Jan 28 15:04:24 2020.
