 Gaussian 09, Revision D.01,
 Gaussian 09:  ES64L-G09RevD.01 24-Apr-2013

 -----------------------------
 # b3lyp 6-31G(2df,p) opt Freq
 -----------------------------

 -----
 titel
 -----
 Symbolic Z-matrix:
 Charge =  0 Multiplicity = 1

 SCF Done:  E(RB3LYP) =  -423.115760233     A.U. after   14 cycles
 Optimization completed.
    -- Stationary point found.
 Normal termination of Gaussian 09 at Mon Jan 27 14:10:45 2020.

 ----------------------------------------------------------------------
 #N Geom=AllCheck Guess=TCheck SCRF=Check GenChk RB3LYP/6-31G(2df,p) Fr
 eq
 ----------------------------------------------------------------------

 Structure from the checkpoint file:  "/scratch/puck/g09_d06b0529-6c83-4b88-946f-799aafbf550f/Gau-70756.chk"
 -----
 titel
 -----
 Charge =  0 Multiplicity = 1

                         Standard orientation:
 ---------------------------------------------------------------------
 Center     Atomic      Atomic             Coordinates (Angstroms)
 Number     Number       Type             X           Y           Z
 ---------------------------------------------------------------------
      1          6           0       -0.479548   -2.202915    0.033246
      2          6           0       -0.221899   -0.707744   -0.198130
      3          6           0        1.180470   -0.318568    0.344145
      4          8           0        2.202484   -1.147075   -0.209433
      5          6           0        1.492464    1.097384    0.144031
      6          6           0        1.780667    2.244959   -0.066184
      7          6           0       -1.314948    0.121619    0.444441
      8          6           0       -2.594229    0.372869   -0.231360
      9          8           0       -1.609889    1.400491   -0.115046
     10          1           0       -0.555011   -2.426365    1.104225
     11          1           0       -1.415500   -2.513685   -0.439552
     12          1           0        0.339179   -2.797760   -0.374910
     13          1           0       -0.232439   -0.490832   -1.273962
     14          1           0        1.195896   -0.539027    1.420352
     15          1           0        2.425178   -0.786759   -1.074918
     16          1           0        2.017779    3.265667   -0.239360
     17          1           0       -1.320973    0.106545    1.537416
     18          1           0       -2.752316   -0.010472   -1.239243
     19          1           0       -3.500417    0.519741    0.354660
 ---------------------------------------------------------------------

 SCF Done:  E(RB3LYP) =  -423.115760233     A.U. after    1 cycles

 The electronic state is 1-A.
 Alpha  occ. eigenvalues --  -19.14897 -19.14585 -10.25911 -10.23890 -10.23324
 Alpha  occ. eigenvalues --  -10.19941 -10.18188 -10.17885 -10.17812  -1.07015
 Alpha  occ. eigenvalues --   -1.02891  -0.80902  -0.75362  -0.68801  -0.67017
 Alpha  occ. eigenvalues --   -0.64172  -0.58513  -0.55314  -0.50848  -0.49976
 Alpha  occ. eigenvalues --   -0.48795  -0.45660  -0.43403  -0.42077  -0.39303
 Alpha  occ. eigenvalues --   -0.37690  -0.37231  -0.34833  -0.34566  -0.31430
 Alpha  occ. eigenvalues --   -0.28831  -0.27132  -0.26743  -0.25898
 Alpha virt. eigenvalues --    0.03068   0.05141   0.09312   0.09565   0.10451
 Alpha virt. eigenvalues --    0.11430   0.12189   0.12787   0.14183   0.15879
 Alpha virt. eigenvalues --    0.16602   0.17696   0.18206   0.19413   0.22926

 Mulliken charges:
               1
     1  C   -0.405386
     2  C   -0.026679
     3  C   -0.053759
     4  O   -0.422653
     5  C    0.303328
     6  C   -0.438575
     7  C    0.090878
     8  C   -0.183476
     9  O   -0.228677
    10  H    0.114766
    11  H    0.113160
    12  H    0.138090
    13  H    0.081455
    14  H    0.114613
    15  H    0.285966
    16  H    0.201045
    17  H    0.090590
    18  H    0.111640
    19  H    0.113674
 Sum of Mulliken charges =   0.00000

 Dipole moment (field-independent basis, Debye):
    X=             -0.9285    Y=             -0.7229    Z=             -0.5572  Tot=              1.3020
 Quadrupole moment (field-independent basis, Debye-Ang):
   XX=            -52.3340   YY=            -54.5545   ZZ=            -50.0505
   XY=              5.6156   XZ=             -2.9236   YZ=              0.2090

  Exact polarizability:  81.022   5.481  88.822  -0.328  -2.108  61.491
 Approx polarizability: 104.968   8.221 138.010  -0.319  -7.910  96.373

                      1                      2                      3
                      A                      A                      A
 Frequencies --     51.6364                86.3901               123.0418
 Red. masses --      4.4369                 4.0417                 3.7920
 Frc consts  --      0.0070                 0.0178                 0.0338
 IR Inten    --      2.7868                 2.3097                 0.4371

                      4                      5                      6
                      A                      A                      A
 Frequencies --    189.4589               202.7063               213.3051
 Red. masses --      2.6878                 1.3475                 2.3787
 Frc consts  --      0.0568                 0.0326                 0.0638
 IR Inten    --      0.3285                 0.7022                 5.5119

                      7                      8                      9
                      A                      A                      A
 Frequencies --    261.6671               284.4253               306.7589
 Red. masses --      1.3651                 3.0800                 2.3129
 Frc consts  --      0.0551                 0.1468                 0.1282
 IR Inten    --     46.5247                10.9131                44.3862

                     10                     11                     12
                      A                      A                      A
 Frequencies --    390.3966               412.6895               501.9527
 Red. masses --      4.6619                 3.9491                 3.7215
 Frc consts  --      0.4186                 0.3963                 0.5525
 IR Inten    --      2.5117                 3.3738                10.2359

                     13                     14                     15
                      A                      A                      A
 Frequencies --    547.6826               589.3337               628.8581
 Red. masses --      3.9987                 5.4501                 1.2259
 Frc consts  --      0.7067                 1.1153                 0.2856
 IR Inten    --      5.3471                 8.7012                43.3554

                     16                     17                     18
                      A                      A                      A
 Frequencies --    675.3370               819.4249               854.2529
 Red. masses --      1.2524                 1.9230                 2.6684
 Frc consts  --      0.3365                 0.7607                 1.1473
 IR Inten    --     32.8464                 7.4592                12.1880

                     19                     20                     21
                      A                      A                      A
 Frequencies --    876.6477               940.1689               965.3566
 Red. masses --      3.3409                 2.5610                 1.7765
 Frc consts  --      1.5127                 1.3338                 0.9754
 IR Inten    --     20.0387                10.5282                16.1999

                     22                     23                     24
                      A                      A                      A
 Frequencies --    994.3945              1051.4911              1076.3303
 Red. masses --      2.1524                 5.1106                 1.4400
 Frc consts  --      1.2540                 3.3291                 0.9829
 IR Inten    --     55.2673                92.7984                 0.8498

                     25                     26                     27
                      A                      A                      A
 Frequencies --   1111.4232              1126.7817              1155.3989
 Red. masses --      1.8966                 2.1649                 1.4251
 Frc consts  --      1.3804                 1.6194                 1.1209
 IR Inten    --      5.8408                 3.3052                 0.5620

                     28                     29                     30
                      A                      A                      A
 Frequencies --   1163.1897              1188.1143              1241.2171
 Red. masses --      1.4296                 1.8379                 1.2820
 Frc consts  --      1.1396                 1.5286                 1.1637
 IR Inten    --      6.7518                 0.6713                 6.9727

                     31                     32                     33
                      A                      A                      A
 Frequencies --   1283.4071              1293.8798              1306.2234
 Red. masses --      1.3136                 1.7506                 1.3646
 Frc consts  --      1.2748                 1.7268                 1.3718
 IR Inten    --     15.6854                 6.0283                 3.5883

                     34                     35                     36
                      A                      A                      A
 Frequencies --   1365.9717              1400.9900              1417.1269
 Red. masses --      1.2876                 1.2343                 1.2548
 Frc consts  --      1.4155                 1.4274                 1.4847
 IR Inten    --      0.8690                 5.2938                62.5756

                     37                     38                     39
                      A                      A                      A
 Frequencies --   1446.4073              1492.1286              1504.2908
 Red. masses --      1.6128                 1.0589                 1.0498
 Frc consts  --      1.9880                 1.3891                 1.3997
 IR Inten    --      4.8125                 6.2394                 5.9179

                     40                     41                     42
                      A                      A                      A
 Frequencies --   1530.6963              2235.7356              3014.7992
 Red. masses --      1.3755                 5.9052                 1.0814
 Frc consts  --      1.8988                17.3911                 5.7910
 IR Inten    --      4.1307                 2.2217                 5.7310

                     43                     44                     45
                      A                      A                      A
 Frequencies --   3031.8788              3037.3776              3076.8059
 Red. masses --      1.0635                 1.0604                 1.0657
 Frc consts  --      5.7599                 5.7638                 5.9438
 IR Inten    --      5.1891                32.5968                31.7537

                     46                     47                     48
                      A                      A                      A
 Frequencies --   3080.8525              3101.7209              3140.1002
 Red. masses --      1.0709                 1.0973                 1.0997
 Frc consts  --      5.9888                 6.2199                 6.3888
 IR Inten    --     22.5141                31.1351                10.8223

                     49                     50                     51
                      A                      A                      A
 Frequencies --   3164.5040              3503.5901              3809.1688
 Red. masses --      1.1193                 1.1627                 1.0663
 Frc consts  --      6.6039                 8.4091                 9.1153
 IR Inten    --     28.7114                61.3716                27.6865

 - Thermochemistry -
 -------------------
 Temperature   298.150 Kelvin.  Pressure   1.00000 Atm.
 Atom     1 has atomic number  6 and mass  12.00000

 Molecular mass:   126.06808 amu.
 Principal axes and moments of inertia in atomic units:
                           1         2         3
     Eigenvalues --   868.070851278.426582027.63940
           X            0.99850   0.05464  -0.00329
           Y           -0.05465   0.99851  -0.00118
           Z            0.00322   0.00136   0.99999
 This molecule is an asymmetric top.
 Rotational symmetry number  1.
 Warning -- assumption of classical behavior for rotation
           may cause significant error
 Rotational temperatures (Kelvin)      0.09978     0.06775     0.04272
 Rotational constants (GHZ):           2.07903     1.41169     0.89007
 Zero-point vibrational energy     408330.3 (Joules/Mol)
                                   97.59327 (Kcal/Mol)
 Warning -- explicit consideration of  14 degrees of freedom as
           vibrations may cause significant error
 Vibrational temperatures:     74.29   124.30   177.03   272.59   291.65
          (Kelvin)            306.90   376.48   409.22   441.36   561.69
                              593.77   722.20   787.99   847.92   904.79
                              971.66  1178.97  1229.08  1261.30  1352.69
                             1388.93  1430.71  1512.86  1548.60  1599.09
                             1621.19  1662.36  1673.57  1709.43  1785.83
                             1846.53  1861.60  1879.36  1965.33  2015.71
                             2038.93  2081.05  2146.84  2164.34  2202.33
                             3216.72  4337.62  4362.19  4370.10  4426.83
                             4432.65  4462.68  4517.90  4553.01  5040.88
                             5480.54

 Zero-point correction=                           0.155525 (Hartree/Particle)
 Thermal correction to Energy=                    0.165676
 Thermal correction to Enthalpy=                  0.166620
 Thermal correction to Gibbs Free Energy=         0.120136
 Sum of electronic and zero-point Energies=           -422.960235
 Sum of electronic and thermal Energies=              -422.950084
 Sum of electronic and thermal Enthalpies=            -422.949140
 Sum of electronic and thermal Free Energies=         -422.995624

                     E (Thermal)             CV                S
                      KCal/Mol        Cal/Mol-Kelvin    Cal/Mol-Kelvin
 Total                  103.963             36.739             97.833
 Electronic               0.000              0.000              0.000
 Translational            0.889              2.981             40.409
 Rotational               0.889              2.981             29.199
 Vibrational            102.186             30.777             28.225
 Vibration     1          0.596              1.977              4.754
 Vibration     2          0.601              1.959              3.740
 Vibration     3          0.610              1.930              3.052
 Vibration     4          0.633              1.854              2.233
 Vibration     5          0.639              1.836              2.108
 Vibration     6          0.644              1.821              2.015
 Vibration     7          0.669              1.743              1.651
 Vibration     8          0.683              1.703              1.507
 Vibration     9          0.697              1.661              1.380
 Vibration    10          0.758              1.491              0.999
 Vibration    11          0.776              1.443              0.917
 Vibration    12          0.857              1.246              0.653
 Vibration    13          0.903              1.145              0.549
 Vibration    14          0.947              1.055              0.468

 Optimization completed.
    -- Stationary point found.
 Normal termination of Gaussian 09 at Mon Jan 27 14:58:37 2020.
