 Gaussian 09, Revision D.01,
 Gaussian 09:  ES64L-G09RevD.01 24-Apr-2013

 -----------------------------
 # b3lyp 6-31G(2df,p) opt Freq
 -----------------------------

 -----
 titel
 -----
 Symbolic Z-matrix:
 Charge =  0 Multiplicity = 1

 SCF Done:  E(RB3LYP) =  -423.159594495     A.U. after   14 cycles
 Optimization completed.
    -- Stationary point found.
 Normal termination of Gaussian 09 at Mon Jan 27 14:01:37 2020.

 ----------------------------------------------------------------------
 #N Geom=AllCheck Guess=TCheck SCRF=Check GenChk RB3LYP/6-31G(2df,p) Fr
 eq
 ----------------------------------------------------------------------

 Structure from the checkpoint file:  "/scratch/puck/g09_a6ae141c-8a5a-4462-9572-bdbfc8d15539/Gau-40327.chk"
 -----
 titel
 -----
 Charge =  0 Multiplicity = 1

                         Standard orientation:
 ---------------------------------------------------------------------
 Center     Atomic      Atomic             Coordinates (Angstroms)
 Number     Number       Type             X           Y           Z
 ---------------------------------------------------------------------
      1          6           0        3.933489   -0.025034    0.237266
      2          6           0        2.501575   -0.091741   -0.018697
      3          6           0        1.318592   -0.157054   -0.239037
      4          6           0       -0.112195   -0.217521   -0.481095
      5          6           0       -0.809680   -1.535309   -0.097073
      6          8           0       -2.186668   -1.204881   -0.077189
      7          6           0       -2.318897    0.105101    0.469100
      8          6           0       -0.950584    0.809139    0.334474
      9          8           0       -1.119089    2.056122   -0.307221
     10          1           0        4.180310    0.797640    0.917615
     11          1           0        4.298527   -0.951439    0.694315
     12          1           0        4.497025    0.131087   -0.689216
     13          1           0       -0.329897   -0.019147   -1.538190
     14          1           0       -0.658618   -2.335404   -0.825175
     15          1           0       -0.457020   -1.884367    0.887208
     16          1           0       -3.080819    0.647935   -0.097792
     17          1           0       -2.632773    0.049874    1.520396
     18          1           0       -0.486956    0.943219    1.321124
     19          1           0       -0.257523    2.485192   -0.344639
 ---------------------------------------------------------------------

 SCF Done:  E(RB3LYP) =  -423.159594495     A.U. after    1 cycles

 The electronic state is 1-A.
 Alpha  occ. eigenvalues --  -19.14270 -19.13708 -10.23921 -10.23055 -10.22397
 Alpha  occ. eigenvalues --  -10.20754 -10.20654 -10.17850 -10.17259  -1.04050
 Alpha  occ. eigenvalues --   -1.02121  -0.80406  -0.76765  -0.73709  -0.69230
 Alpha  occ. eigenvalues --   -0.61534  -0.59082  -0.53645  -0.51437  -0.47056
 Alpha  occ. eigenvalues --   -0.46077  -0.44332  -0.43195  -0.43011  -0.42579
 Alpha  occ. eigenvalues --   -0.41631  -0.37469  -0.36481  -0.35695  -0.31587
 Alpha  occ. eigenvalues --   -0.28106  -0.25992  -0.25275  -0.23999
 Alpha virt. eigenvalues --    0.04583   0.05419   0.08128   0.09696   0.10688
 Alpha virt. eigenvalues --    0.11846   0.14062   0.15316   0.16197   0.16614
 Alpha virt. eigenvalues --    0.17572   0.18157   0.19165   0.20888   0.22057

 Mulliken charges:
               1
     1  C   -0.498776
     2  C    0.085264
     3  C    0.021260
     4  C   -0.194087
     5  C   -0.093307
     6  O   -0.249422
     7  C   -0.097528
     8  C    0.098673
     9  O   -0.434292
    10  H    0.147299
    11  H    0.150541
    12  H    0.149721
    13  H    0.112187
    14  H    0.119902
    15  H    0.094445
    16  H    0.122987
    17  H    0.096456
    18  H    0.079880
    19  H    0.288797
 Sum of Mulliken charges =   0.00000

 Dipole moment (field-independent basis, Debye):
    X=              2.6271    Y=              0.5331    Z=              0.7602  Tot=              2.7863
 Quadrupole moment (field-independent basis, Debye-Ang):
   XX=            -50.8456   YY=            -53.6636   ZZ=            -52.3400
   XY=              0.3388   XZ=             -0.7904   YZ=              0.6056

  Exact polarizability: 112.423  -0.356  68.973   2.258   0.287  60.822
 Approx polarizability: 154.043   0.878  96.670   8.966   0.264  92.311

                      1                      2                      3
                      A                      A                      A
 Frequencies --     19.3837                19.8767                86.7857
 Red. masses --      1.2237                 1.9196                 3.4818
 Frc consts  --      0.0003                 0.0004                 0.0155
 IR Inten    --      0.0311                 0.0496                 0.0554

                      4                      5                      6
                      A                      A                      A
 Frequencies --    104.5861               219.6806               253.6684
 Red. masses --      4.2931                 2.6614                 3.3792
 Frc consts  --      0.0277                 0.0757                 0.1281
 IR Inten    --      0.1229                 8.8740                16.4959

                      7                      8                      9
                      A                      A                      A
 Frequencies --    307.7017               328.3182               357.9551
 Red. masses --      2.9373                 1.4627                 2.5624
 Frc consts  --      0.1639                 0.0929                 0.1934
 IR Inten    --      0.5033                55.2276                51.4039

                     10                     11                     12
                      A                      A                      A
 Frequencies --    440.6186               459.6195               510.1734
 Red. masses --      4.2153                 5.0349                 5.6952
 Frc consts  --      0.4822                 0.6267                 0.8734
 IR Inten    --      8.4191                 1.9648                 1.8100

                     13                     14                     15
                      A                      A                      A
 Frequencies --    551.2241               680.4227               820.2681
 Red. masses --      3.6536                 4.6750                 2.8527
 Frc consts  --      0.6541                 1.2752                 1.1309
 IR Inten    --      5.0488                10.1947                 8.3713

                     16                     17                     18
                      A                      A                      A
 Frequencies --    875.9325               937.6534               963.9129
 Red. masses --      3.1243                 1.9544                 2.8468
 Frc consts  --      1.4124                 1.0124                 1.5584
 IR Inten    --      1.3798                14.8560                23.2502

                     19                     20                     21
                      A                      A                      A
 Frequencies --   1021.3365              1047.1622              1053.0680
 Red. masses --      2.1199                 2.2087                 1.4108
 Frc consts  --      1.3029                 1.4270                 0.9218
 IR Inten    --     59.2318                 1.6015                 1.5205

                     22                     23                     24
                      A                      A                      A
 Frequencies --   1058.2300              1088.6879              1102.1266
 Red. masses --      2.1234                 2.8049                 4.9835
 Frc consts  --      1.4010                 1.9587                 3.5666
 IR Inten    --      5.0522                33.4847                91.8443

                     25                     26                     27
                      A                      A                      A
 Frequencies --   1142.3636              1189.1737              1223.7434
 Red. masses --      3.2528                 2.5556                 1.2325
 Frc consts  --      2.5010                 2.1293                 1.0875
 IR Inten    --     17.2957                 2.8991                 5.7426

                     28                     29                     30
                      A                      A                      A
 Frequencies --   1234.0954              1263.1743              1278.4955
 Red. masses --      1.2838                 1.1257                 1.2348
 Frc consts  --      1.1520                 1.0583                 1.1892
 IR Inten    --      1.8241                60.5995                 4.9390

                     31                     32                     33
                      A                      A                      A
 Frequencies --   1305.7164              1335.7061              1368.7109
 Red. masses --      1.3094                 1.2524                 1.3731
 Frc consts  --      1.3153                 1.3165                 1.5155
 IR Inten    --     10.9364                20.1770                10.2704

                     34                     35                     36
                      A                      A                      A
 Frequencies --   1407.5841              1415.9736              1436.5229
 Red. masses --      1.4526                 1.2898                 1.4182
 Frc consts  --      1.6957                 1.5237                 1.7242
 IR Inten    --     13.4564                 3.6792                 1.9114

                     37                     38                     39
                      A                      A                      A
 Frequencies --   1478.4454              1478.5789              1508.7619
 Red. masses --      1.0396                 1.0397                 1.0802
 Frc consts  --      1.3388                 1.3392                 1.4487
 IR Inten    --      5.2961                 5.6923                 0.6356

                     40                     41                     42
                      A                      A                      A
 Frequencies --   1521.5784              2367.3188              2974.1486
 Red. masses --      1.0977                11.8512                 1.0707
 Frc consts  --      1.4974                39.1314                 5.5802
 IR Inten    --      1.3274                 0.1094                46.2461

                     43                     44                     45
                      A                      A                      A
 Frequencies --   2998.6529              3015.9296              3026.8888
 Red. masses --      1.0780                 1.0735                 1.0348
 Frc consts  --      5.7109                 5.7529                 5.5862
 IR Inten    --     20.6710                67.5652                32.5172

                     46                     47                     48
                      A                      A                      A
 Frequencies --   3034.8132              3086.8151              3088.2511
 Red. masses --      1.0823                 1.1001                 1.0978
 Frc consts  --      5.8728                 6.1760                 6.1686
 IR Inten    --     30.0944                10.1726                20.6954

                     49                     50                     51
                      A                      A                      A
 Frequencies --   3088.4221              3104.3710              3809.3328
 Red. masses --      1.1002                 1.0939                 1.0660
 Frc consts  --      6.1827                 6.2109                 9.1143
 IR Inten    --     13.6703                27.3021                20.2199

 - Thermochemistry -
 -------------------
 Temperature   298.150 Kelvin.  Pressure   1.00000 Atm.
 Atom     1 has atomic number  6 and mass  12.00000

 Molecular mass:   126.06808 amu.
 Principal axes and moments of inertia in atomic units:
                           1         2         3
     Eigenvalues --   592.768391982.901662434.90349
           X            1.00000  -0.00253   0.00035
           Y            0.00253   0.99998   0.00520
           Z           -0.00036  -0.00519   0.99999
 This molecule is an asymmetric top.
 Rotational symmetry number  1.
 Warning -- assumption of classical behavior for rotation
           may cause significant error
 Rotational temperatures (Kelvin)      0.14612     0.04368     0.03557
 Rotational constants (GHZ):           3.04460     0.91015     0.74120
 Zero-point vibrational energy     415654.2 (Joules/Mol)
                                   99.34374 (Kcal/Mol)
 Warning -- explicit consideration of  13 degrees of freedom as
           vibrations may cause significant error
 Vibrational temperatures:     27.89    28.60   124.87   150.48   316.07
          (Kelvin)            364.97   442.71   472.38   515.02   633.95
                              661.29   734.02   793.09   978.98  1180.18
                             1260.27  1349.07  1386.85  1469.47  1506.63
                             1515.13  1522.55  1566.38  1585.71  1643.60
                             1710.95  1760.69  1775.59  1817.42  1839.47
                             1878.63  1921.78  1969.27  2025.20  2037.27
                             2066.83  2127.15  2127.34  2170.77  2189.21
                             3406.04  4279.13  4314.39  4339.24  4355.01
                             4366.41  4441.23  4443.30  4443.55  4466.49
                             5480.77

 Zero-point correction=                           0.158314 (Hartree/Particle)
 Thermal correction to Energy=                    0.168208
 Thermal correction to Enthalpy=                  0.169152
 Thermal correction to Gibbs Free Energy=         0.120575
 Sum of electronic and zero-point Energies=           -423.001280
 Sum of electronic and thermal Energies=              -422.991387
 Sum of electronic and thermal Enthalpies=            -422.990443
 Sum of electronic and thermal Free Energies=         -423.039019

                     E (Thermal)             CV                S
                      KCal/Mol        Cal/Mol-Kelvin    Cal/Mol-Kelvin
 Total                  105.552             34.263            102.238
 Electronic               0.000              0.000              0.000
 Translational            0.889              2.981             40.409
 Rotational               0.889              2.981             29.438
 Vibrational            103.774             28.301             32.391
 Vibration     1          0.593              1.986              6.696
 Vibration     2          0.593              1.986              6.646
 Vibration     3          0.601              1.958              3.731
 Vibration     4          0.605              1.946              3.367
 Vibration     5          0.647              1.811              1.962
 Vibration     6          0.665              1.757              1.705
 Vibration     7          0.698              1.659              1.375
 Vibration     8          0.712              1.619              1.268
 Vibration     9          0.733              1.559              1.131
 Vibration    10          0.801              1.382              0.825
 Vibration    11          0.818              1.340              0.767
 Vibration    12          0.865              1.227              0.633
 Vibration    13          0.907              1.137              0.542

 Normal termination of Gaussian 09 at Mon Jan 27 14:37:39 2020.
