 Gaussian 09, Revision D.01,
 Gaussian 09:  ES64L-G09RevD.01 24-Apr-2013

 -----------------------------
 # b3lyp 6-31G(2df,p) opt Freq
 -----------------------------

 -----
 titel
 -----
 Symbolic Z-matrix:
 Charge =  0 Multiplicity = 1

 SCF Done:  E(RB3LYP) =  -423.200323146     A.U. after   14 cycles
 Optimization completed.
    -- Stationary point found.
 Normal termination of Gaussian 09 at Tue Jan 28 00:07:13 2020.

 ----------------------------------------------------------------------
 #N Geom=AllCheck Guess=TCheck SCRF=Check GenChk RB3LYP/6-31G(2df,p) Fr
 eq
 ----------------------------------------------------------------------

 Structure from the checkpoint file:  "/scratch/puck/g09_b87869ed-5e29-478b-a6c5-e8840d124c76/Gau-195148.chk"
 -----
 titel
 -----
 Charge =  0 Multiplicity = 1

                         Standard orientation:
 ---------------------------------------------------------------------
 Center     Atomic      Atomic             Coordinates (Angstroms)
 Number     Number       Type             X           Y           Z
 ---------------------------------------------------------------------
      1          6           0        2.559662   -0.305013    0.316290
      2          6           0        1.267542   -0.204723   -0.511493
      3          6           0        0.792179    1.229393   -0.629018
      4          6           0       -0.354320    1.625158   -0.078716
      5          6           0       -1.206743    0.606525    0.657204
      6          8           0       -2.017514   -0.117858   -0.260690
      7          6           0       -1.137849   -1.099017   -0.817597
      8          6           0        0.124069   -1.043869    0.091480
      9          8           0       -0.379860   -0.371869    1.251055
     10          1           0        2.945415   -1.330038    0.321119
     11          1           0        3.339360    0.345918   -0.091819
     12          1           0        2.369401   -0.002647    1.349731
     13          1           0        1.473331   -0.589993   -1.520642
     14          1           0        1.431768    1.928353   -1.162619
     15          1           0       -0.727161    2.639875   -0.172194
     16          1           0       -1.851595    1.043761    1.421990
     17          1           0       -1.638628   -2.070744   -0.774637
     18          1           0       -0.900277   -0.864157   -1.861853
     19          1           0        0.470127   -2.033233    0.399102
 ---------------------------------------------------------------------

 SCF Done:  E(RB3LYP) =  -423.200323146     A.U. after    1 cycles

 The electronic state is 1-A.
 Alpha  occ. eigenvalues --  -19.14460 -19.13948 -10.27580 -10.23667 -10.22852
 Alpha  occ. eigenvalues --  -10.19746 -10.18892 -10.18164 -10.17807  -1.08797
 Alpha  occ. eigenvalues --   -0.98855  -0.81699  -0.78001  -0.71908  -0.63879
 Alpha  occ. eigenvalues --   -0.63555  -0.60430  -0.53790  -0.52581  -0.47888
 Alpha  occ. eigenvalues --   -0.46389  -0.45403  -0.42749  -0.42177  -0.40235
 Alpha  occ. eigenvalues --   -0.39533  -0.37770  -0.37445  -0.33977  -0.32917
 Alpha  occ. eigenvalues --   -0.32244  -0.27938  -0.25740  -0.24253
 Alpha virt. eigenvalues --    0.00591   0.08518   0.11324   0.12001   0.12234
 Alpha virt. eigenvalues --    0.12560   0.15533   0.15993   0.16946   0.17300
 Alpha virt. eigenvalues --    0.17892   0.18364   0.19396   0.22095   0.22140

 Mulliken charges:
               1
     1  C   -0.406194
     2  C   -0.025069
     3  C   -0.084934
     4  C   -0.063217
     5  C    0.135147
     6  O   -0.259653
     7  C   -0.108252
     8  C    0.034385
     9  O   -0.247817
    10  H    0.111760
    11  H    0.113594
    12  H    0.137693
    13  H    0.081073
    14  H    0.094211
    15  H    0.096649
    16  H    0.092786
    17  H    0.111685
    18  H    0.102821
    19  H    0.083333
 Sum of Mulliken charges =   0.00000

 Dipole moment (field-independent basis, Debye):
    X=              1.4898    Y=             -0.0794    Z=             -1.0818  Tot=              1.8429
 Quadrupole moment (field-independent basis, Debye-Ang):
   XX=            -55.5850   YY=            -48.9257   ZZ=            -54.6190
   XY=             -1.1038   XZ=             -2.0577   YZ=              1.7684

  Exact polarizability:  84.596  -3.899  76.549  -5.355   2.102  62.749
 Approx polarizability: 123.026  -9.772 109.326 -12.668   4.812 100.589

                      1                      2                      3
                      A                      A                      A
 Frequencies --    128.5948               206.7334               226.0381
 Red. masses --      3.0718                 2.7813                 1.3728
 Frc consts  --      0.0299                 0.0700                 0.0413
 IR Inten    --      0.9791                 2.6976                 0.1954

                      4                      5                      6
                      A                      A                      A
 Frequencies --    259.6113               348.4256               395.5437
 Red. masses --      1.7279                 3.2701                 2.5620
 Frc consts  --      0.0686                 0.2339                 0.2362
 IR Inten    --      0.0132                 2.1686                 0.3524

                      7                      8                      9
                      A                      A                      A
 Frequencies --    491.9135               530.4553               604.0613
 Red. masses --      6.5921                 3.8837                 4.0108
 Frc consts  --      0.9398                 0.6439                 0.8623
 IR Inten    --      9.4497                 1.7149                 1.9609

                     10                     11                     12
                      A                      A                      A
 Frequencies --    717.3043               739.8954               775.5045
 Red. masses --      6.2637                 1.7312                 2.2435
 Frc consts  --      1.8989                 0.5584                 0.7950
 IR Inten    --      3.6723                15.0966                 5.7973

                     13                     14                     15
                      A                      A                      A
 Frequencies --    805.6449               863.7290               900.1399
 Red. masses --      4.4899                 3.2060                 2.3591
 Frc consts  --      1.7170                 1.4092                 1.1262
 IR Inten    --      0.7804                 6.1802                17.3327

                     16                     17                     18
                      A                      A                      A
 Frequencies --    925.8827               954.2699               975.8106
 Red. masses --      3.4707                 2.4594                 2.4793
 Frc consts  --      1.7530                 1.3196                 1.3909
 IR Inten    --     85.4048                15.6057                25.9634

                     19                     20                     21
                      A                      A                      A
 Frequencies --    986.0687               992.4937              1019.9643
 Red. masses --      2.1146                 1.5086                 4.0072
 Frc consts  --      1.2114                 0.8756                 2.4562
 IR Inten    --     14.7144                11.8799                27.1823

                     22                     23                     24
                      A                      A                      A
 Frequencies --   1033.6978              1064.0256              1102.2791
 Red. masses --      1.7923                 2.7919                 2.2191
 Frc consts  --      1.1283                 1.8623                 1.5886
 IR Inten    --     14.3577                34.8071                20.7059

                     25                     26                     27
                      A                      A                      A
 Frequencies --   1129.5776              1141.6527              1192.2593
 Red. masses --      3.0397                 1.5203                 1.2922
 Frc consts  --      2.2851                 1.1675                 1.0823
 IR Inten    --     31.3138                 1.1041                17.3676

                     28                     29                     30
                      A                      A                      A
 Frequencies --   1213.8477              1282.4461              1305.0982
 Red. masses --      1.1023                 1.2667                 1.3205
 Frc consts  --      0.9569                 1.2274                 1.3251
 IR Inten    --      1.9634                 0.2430                 5.5264

                     31                     32                     33
                      A                      A                      A
 Frequencies --   1323.0656              1337.1489              1342.2156
 Red. masses --      1.4361                 1.2910                 1.6115
 Frc consts  --      1.4812                 1.3600                 1.7105
 IR Inten    --      2.5006                 1.2276                 1.7032

                     34                     35                     36
                      A                      A                      A
 Frequencies --   1368.9621              1390.3347              1395.4921
 Red. masses --      1.3518                 1.4344                 1.3919
 Frc consts  --      1.4926                 1.6337                 1.5970
 IR Inten    --      9.6644                 7.5845                 6.3147

                     37                     38                     39
                      A                      A                      A
 Frequencies --   1414.3123              1493.2042              1504.2528
 Red. masses --      1.4019                 1.0447                 1.0568
 Frc consts  --      1.6522                 1.3725                 1.4090
 IR Inten    --      1.4773                 4.3802                 3.6586

                     40                     41                     42
                      A                      A                      A
 Frequencies --   1517.5212              1705.1340              3001.1709
 Red. masses --      1.0905                 6.6982                 1.0817
 Frc consts  --      1.4796                11.4742                 5.7406
 IR Inten    --      1.2186                 5.3501                15.1132

                     43                     44                     45
                      A                      A                      A
 Frequencies --   3031.4557              3034.5091              3078.1904
 Red. masses --      1.0600                 1.0354                 1.1012
 Frc consts  --      5.7395                 5.6171                 6.1477
 IR Inten    --     51.2199                27.5710                15.2985

                     46                     47                     48
                      A                      A                      A
 Frequencies --   3091.8576              3101.2189              3105.1282
 Red. masses --      1.0926                 1.1010                 1.0909
 Frc consts  --      6.1540                 6.2386                 6.1971
 IR Inten    --     42.3776                37.7174                32.1794

                     49                     50                     51
                      A                      A                      A
 Frequencies --   3120.1602              3152.4366              3188.2590
 Red. masses --      1.1015                 1.0863                 1.0971
 Frc consts  --      6.3183                 6.3604                 6.5708
 IR Inten    --     16.8686                13.1445                18.7920

 - Thermochemistry -
 -------------------
 Temperature   298.150 Kelvin.  Pressure   1.00000 Atm.
 Atom     1 has atomic number  6 and mass  12.00000

 Molecular mass:   126.06808 amu.
 Principal axes and moments of inertia in atomic units:
                           1         2         3
     Eigenvalues --   606.113131090.212211264.45895
           X            0.99993  -0.01154   0.00211
           Y            0.01146   0.99938   0.03323
           Z           -0.00249  -0.03320   0.99945
 This molecule is an asymmetric top.
 Rotational symmetry number  1.
 Warning -- assumption of classical behavior for rotation
           may cause significant error
 Rotational temperatures (Kelvin)      0.14290     0.07945     0.06850
 Rotational constants (GHZ):           2.97756     1.65540     1.42728
 Zero-point vibrational energy     424728.1 (Joules/Mol)
                                  101.51246 (Kcal/Mol)
 Warning -- explicit consideration of   9 degrees of freedom as
           vibrations may cause significant error
 Vibrational temperatures:    185.02   297.44   325.22   373.52   501.31
          (Kelvin)            569.10   707.75   763.21   869.11  1032.04
                             1064.54  1115.78  1159.14  1242.71  1295.10
                             1332.14  1372.98  1403.97  1418.73  1427.98
                             1467.50  1487.26  1530.89  1585.93  1625.21
                             1642.58  1715.39  1746.45  1845.15  1877.74
                             1903.59  1923.86  1931.15  1969.63  2000.38
                             2007.80  2034.88  2148.39  2164.28  2183.37
                             2453.30  4318.01  4361.58  4365.98  4428.82
                             4448.49  4461.96  4467.58  4489.21  4535.65
                             4587.19

 Zero-point correction=                           0.161770 (Hartree/Particle)
 Thermal correction to Energy=                    0.169084
 Thermal correction to Enthalpy=                  0.170028
 Thermal correction to Gibbs Free Energy=         0.130285
 Sum of electronic and zero-point Energies=           -423.038553
 Sum of electronic and thermal Energies=              -423.031239
 Sum of electronic and thermal Enthalpies=            -423.030295
 Sum of electronic and thermal Free Energies=         -423.070039

                     E (Thermal)             CV                S
                      KCal/Mol        Cal/Mol-Kelvin    Cal/Mol-Kelvin
 Total                  106.102             29.399             83.647
 Electronic               0.000              0.000              0.000
 Translational            0.889              2.981             40.409
 Rotational               0.889              2.981             28.215
 Vibrational            104.324             23.437             15.024
 Vibration     1          0.611              1.925              2.967
 Vibration     2          0.641              1.830              2.072
 Vibration     3          0.650              1.801              1.910
 Vibration     4          0.668              1.746              1.664
 Vibration     5          0.726              1.578              1.173
 Vibration     6          0.762              1.480              0.979
 Vibration     7          0.848              1.268              0.679
 Vibration     8          0.885              1.183              0.586
 Vibration     9          0.963              1.023              0.443

 Optimization completed.
    -- Stationary point found.
 Normal termination of Gaussian 09 at Tue Jan 28 00:52:48 2020.
