 Gaussian 09, Revision D.01,
 Gaussian 09:  ES64L-G09RevD.01 24-Apr-2013

 -----------------------------
 # b3lyp 6-31G(2df,p) opt Freq
 -----------------------------

 -----
 titel
 -----
 Symbolic Z-matrix:
 Charge =  0 Multiplicity = 1

 SCF Done:  E(RB3LYP) =  -423.159448866     A.U. after   13 cycles
 Optimization completed.
    -- Stationary point found.
 Normal termination of Gaussian 09 at Mon Jan 27 22:01:55 2020.

 ----------------------------------------------------------------------
 #N Geom=AllCheck Guess=TCheck SCRF=Check GenChk RB3LYP/6-31G(2df,p) Fr
 eq
 ----------------------------------------------------------------------

 Structure from the checkpoint file:  "/scratch/puck/g09_5be65f67-ed33-4487-81cf-d066b463c0ec/Gau-182171.chk"
 -----
 titel
 -----
 Charge =  0 Multiplicity = 1

                         Standard orientation:
 ---------------------------------------------------------------------
 Center     Atomic      Atomic             Coordinates (Angstroms)
 Number     Number       Type             X           Y           Z
 ---------------------------------------------------------------------
      1          6           0       -2.685849   -0.611867   -0.421202
      2          6           0       -1.295160   -0.395685    0.104335
      3          6           0       -0.339211   -1.327953    0.043509
      4          6           0        1.042756   -1.076183    0.539797
      5          8           0        2.098590   -1.005668   -0.433225
      6          6           0        1.706170    0.202179    0.226958
      7          6           0        0.976189    1.204139   -0.653839
      8          8           0       -0.149234    1.817698   -0.043197
      9          6           0       -0.992206    0.962312    0.728475
     10          1           0       -2.807443   -1.607102   -0.856558
     11          1           0       -3.433336   -0.491214    0.373325
     12          1           0       -2.926903    0.133429   -1.189832
     13          1           0       -0.543208   -2.307941   -0.382986
     14          1           0        1.342297   -1.606839    1.445718
     15          1           0        2.441516    0.593621    0.929246
     16          1           0        1.636812    2.030547   -0.933701
     17          1           0        0.690795    0.672794   -1.570435
     18          1           0       -0.555101    0.813108    1.726134
     19          1           0       -1.916417    1.531714    0.862268
 ---------------------------------------------------------------------

 SCF Done:  E(RB3LYP) =  -423.159448866     A.U. after    1 cycles

 The electronic state is 1-A.
 Alpha  occ. eigenvalues --  -19.15145 -19.14056 -10.24082 -10.23662 -10.23228
 Alpha  occ. eigenvalues --  -10.22777 -10.20009 -10.18833 -10.18674  -1.07131
 Alpha  occ. eigenvalues --   -1.02716  -0.81729  -0.74340  -0.71853  -0.67656
 Alpha  occ. eigenvalues --   -0.63913  -0.57680  -0.54111  -0.52198  -0.48374
 Alpha  occ. eigenvalues --   -0.46621  -0.45221  -0.43290  -0.42696  -0.41802
 Alpha  occ. eigenvalues --   -0.39420  -0.38988  -0.37240  -0.35836  -0.31492
 Alpha  occ. eigenvalues --   -0.29867  -0.27125  -0.26049  -0.24570
 Alpha virt. eigenvalues --   -0.00388   0.08105   0.09301   0.10995   0.12544
 Alpha virt. eigenvalues --    0.12987   0.14697   0.15145   0.15308   0.16199
 Alpha virt. eigenvalues --    0.16816   0.18798   0.19117   0.20910   0.21788

 Mulliken charges:
               1
     1  C   -0.486236
     2  C    0.298069
     3  C   -0.186196
     4  C    0.015700
     5  O   -0.253379
     6  C    0.005916
     7  C   -0.086678
     8  O   -0.259846
     9  C   -0.154959
    10  H    0.124733
    11  H    0.128436
    12  H    0.137599
    13  H    0.094114
    14  H    0.098539
    15  H    0.095327
    16  H    0.110308
    17  H    0.109039
    18  H    0.101495
    19  H    0.108018
 Sum of Mulliken charges =   0.00000

 Dipole moment (field-independent basis, Debye):
    X=             -1.3729    Y=             -0.3245    Z=              1.1033  Tot=              1.7909
 Quadrupole moment (field-independent basis, Debye-Ang):
   XX=            -52.4630   YY=            -55.7283   ZZ=            -52.3008
   XY=              3.7390   XZ=              2.1306   YZ=             -0.9587

  Exact polarizability:  90.914  -1.434  77.709   1.499  -0.013  61.129
 Approx polarizability: 125.526 -11.293 122.171  -2.688   1.495  94.246

                      1                      2                      3
                      A                      A                      A
 Frequencies --    128.1011               160.5086               201.5436
 Red. masses --      2.9227                 2.7604                 1.6787
 Frc consts  --      0.0283                 0.0419                 0.0402
 IR Inten    --      1.5385                 0.8336                 4.0795

                      4                      5                      6
                      A                      A                      A
 Frequencies --    220.7909               303.8529               339.3318
 Red. masses --      1.6332                 3.0197                 3.9267
 Frc consts  --      0.0469                 0.1643                 0.2664
 IR Inten    --      4.2344                 3.0445                 2.7034

                      7                      8                      9
                      A                      A                      A
 Frequencies --    353.0929               414.0278               459.9734
 Red. masses --      2.4832                 3.9901                 3.1317
 Frc consts  --      0.1824                 0.4030                 0.3904
 IR Inten    --      1.6252                 0.8884                 8.4920

                     10                     11                     12
                      A                      A                      A
 Frequencies --    511.8999               619.4199               695.3126
 Red. masses --      3.9737                 3.5630                 2.6713
 Frc consts  --      0.6135                 0.8054                 0.7609
 IR Inten    --      1.7025                 5.8636                 0.1249

                     13                     14                     15
                      A                      A                      A
 Frequencies --    816.4648               829.8469               855.4426
 Red. masses --      2.8367                 3.9878                 3.3902
 Frc consts  --      1.1141                 1.6180                 1.4617
 IR Inten    --     13.9868                11.7011                 8.9512

                     16                     17                     18
                      A                      A                      A
 Frequencies --    882.6687               914.7060               969.2631
 Red. masses --      1.7466                 3.3386                 1.8731
 Frc consts  --      0.8018                 1.6458                 1.0368
 IR Inten    --      5.0323                17.7248                 7.9394

                     19                     20                     21
                      A                      A                      A
 Frequencies --    990.9419              1022.7098              1048.8569
 Red. masses --      1.8873                 1.5942                 3.2776
 Frc consts  --      1.0919                 0.9824                 2.1244
 IR Inten    --     20.4684                 9.7973                13.7379

                     22                     23                     24
                      A                      A                      A
 Frequencies --   1063.1412              1078.9676              1112.4127
 Red. masses --      1.6758                 1.6705                 2.5490
 Frc consts  --      1.1160                 1.1458                 1.8584
 IR Inten    --     16.3782                 9.6753                36.1553

                     25                     26                     27
                      A                      A                      A
 Frequencies --   1142.9524              1158.0451              1198.6966
 Red. masses --      2.7529                 1.5091                 2.4597
 Frc consts  --      2.1188                 1.1924                 2.0823
 IR Inten    --     58.0393                 2.1901                 2.7322

                     28                     29                     30
                      A                      A                      A
 Frequencies --   1271.3483              1279.2623              1303.3974
 Red. masses --      1.1972                 1.2810                 1.1413
 Frc consts  --      1.1402                 1.2352                 1.1424
 IR Inten    --      5.7413                 5.7104                 0.2481

                     31                     32                     33
                      A                      A                      A
 Frequencies --   1339.5146              1364.7500              1399.0778
 Red. masses --      1.4296                 1.4273                 1.2959
 Frc consts  --      1.5113                 1.5662                 1.4946
 IR Inten    --      4.1599                 6.3926                 4.4480

                     34                     35                     36
                      A                      A                      A
 Frequencies --   1411.0493              1412.7509              1456.0780
 Red. masses --      1.3579                 1.2762                 3.2937
 Frc consts  --      1.5930                 1.5007                 4.1144
 IR Inten    --      6.4560                 5.4021                11.4688

                     37                     38                     39
                      A                      A                      A
 Frequencies --   1479.2546              1487.1264              1500.5459
 Red. masses --      1.0475                 1.0606                 1.0805
 Frc consts  --      1.3505                 1.3820                 1.4334
 IR Inten    --      7.4915                 8.8915                 3.1029

                     40                     41                     42
                      A                      A                      A
 Frequencies --   1509.0711              1723.8462              2994.3861
 Red. masses --      1.0842                 7.3244                 1.0700
 Frc consts  --      1.4547                12.8240                 5.6525
 IR Inten    --      2.0546                 6.3318                54.0326

                     43                     44                     45
                      A                      A                      A
 Frequencies --   3017.3645              3026.2669              3065.8257
 Red. masses --      1.0380                 1.0630                 1.0984
 Frc consts  --      5.5683                 5.7361                 6.0829
 IR Inten    --     20.2534                26.4172                15.4113

                     46                     47                     48
                      A                      A                      A
 Frequencies --   3081.3089              3083.4497              3083.9845
 Red. masses --      1.0958                 1.0915                 1.0895
 Frc consts  --      6.1301                 6.1144                 6.1053
 IR Inten    --     22.3993                15.0371                40.4398

                     49                     50                     51
                      A                      A                      A
 Frequencies --   3114.3099              3118.0349              3148.9999
 Red. masses --      1.0997                 1.0914                 1.0895
 Frc consts  --      6.2844                 6.2519                 6.3653
 IR Inten    --     17.7631                45.8591                17.3492

 - Thermochemistry -
 -------------------
 Temperature   298.150 Kelvin.  Pressure   1.00000 Atm.
 Atom     1 has atomic number  6 and mass  12.00000

 Molecular mass:   126.06808 amu.
 Principal axes and moments of inertia in atomic units:
                           1         2         3
     Eigenvalues --   683.422081169.139731613.87638
           X            0.99868   0.04933   0.01440
           Y           -0.04934   0.99878   0.00014
           Z           -0.01438  -0.00085   0.99990
 This molecule is an asymmetric top.
 Rotational symmetry number  1.
 Warning -- assumption of classical behavior for rotation
           may cause significant error
 Rotational temperatures (Kelvin)      0.12674     0.07408     0.05367
 Rotational constants (GHZ):           2.64074     1.54365     1.11826
 Zero-point vibrational energy     419673.8 (Joules/Mol)
                                  100.30444 (Kcal/Mol)
 Warning -- explicit consideration of  11 degrees of freedom as
           vibrations may cause significant error
 Vibrational temperatures:    184.31   230.94   289.98   317.67   437.18
          (Kelvin)            488.22   508.02   595.69   661.80   736.51
                              891.21  1000.40  1174.71  1193.96  1230.79
                             1269.96  1316.06  1394.55  1425.74  1471.45
                             1509.07  1529.62  1552.39  1600.51  1644.45
                             1666.17  1724.65  1829.18  1840.57  1875.30
                             1927.26  1963.57  2012.96  2030.18  2032.63
                             2094.97  2128.31  2139.64  2158.95  2171.21
                             2480.23  4308.25  4341.31  4354.12  4411.03
                             4433.31  4436.39  4437.16  4480.79  4486.15
                             4530.70

 Zero-point correction=                           0.159845 (Hartree/Particle)
 Thermal correction to Energy=                    0.167951
 Thermal correction to Enthalpy=                  0.168895
 Thermal correction to Gibbs Free Energy=         0.127450
 Sum of electronic and zero-point Energies=           -422.999604
 Sum of electronic and thermal Energies=              -422.991498
 Sum of electronic and thermal Enthalpies=            -422.990553
 Sum of electronic and thermal Free Energies=         -423.031999

                     E (Thermal)             CV                S
                      KCal/Mol        Cal/Mol-Kelvin    Cal/Mol-Kelvin
 Total                  105.391             31.383             87.230
 Electronic               0.000              0.000              0.000
 Translational            0.889              2.981             40.409
 Rotational               0.889              2.981             28.646
 Vibrational            103.614             25.421             18.175
 Vibration     1          0.611              1.925              2.974
 Vibration     2          0.622              1.891              2.544
 Vibration     3          0.638              1.838              2.119
 Vibration     4          0.648              1.809              1.953
 Vibration     5          0.695              1.666              1.396
 Vibration     6          0.719              1.597              1.215
 Vibration     7          0.729              1.569              1.152
 Vibration     8          0.778              1.440              0.912
 Vibration     9          0.818              1.339              0.766
 Vibration    10          0.867              1.224              0.629
 Vibration    11          0.979              0.991              0.417

 Optimization completed.
    -- Stationary point found.
 Normal termination of Gaussian 09 at Mon Jan 27 22:49:10 2020.
