 Gaussian 09, Revision D.01,
 Gaussian 09:  ES64L-G09RevD.01 24-Apr-2013

 -----------------------------
 # b3lyp 6-31G(2df,p) opt Freq
 -----------------------------

 -----
 titel
 -----
 Symbolic Z-matrix:
 Charge =  0 Multiplicity = 1

 SCF Done:  E(RB3LYP) =  -423.143210617     A.U. after   14 cycles
 Optimization completed.
    -- Stationary point found.
 Normal termination of Gaussian 09 at Tue Jan 28 08:55:54 2020.

 ----------------------------------------------------------------------
 #N Geom=AllCheck Guess=TCheck SCRF=Check GenChk RB3LYP/6-31G(2df,p) Fr
 eq
 ----------------------------------------------------------------------

 Structure from the checkpoint file:  "/scratch/puck/g09_bde0ccbf-a957-452b-91cf-72b16b2852e1/Gau-129685.chk"
 -----
 titel
 -----
 Charge =  0 Multiplicity = 1

                         Standard orientation:
 ---------------------------------------------------------------------
 Center     Atomic      Atomic             Coordinates (Angstroms)
 Number     Number       Type             X           Y           Z
 ---------------------------------------------------------------------
      1          6           0       -2.314151   -1.050729    0.364821
      2          8           0       -1.314578   -0.811724   -0.620207
      3          6           0       -0.227925   -0.057642   -0.193207
      4          6           0       -0.497460    1.375236    0.098408
      5          8           0       -1.589344    1.888421    0.026318
      6          6           0        1.034992   -0.524848   -0.901619
      7          6           0        2.278947    0.297430   -0.545310
      8          6           0        2.061109   -0.070463    0.963058
      9          6           0        0.822917   -0.881749    0.559323
     10          1           0       -2.818700   -0.124507    0.652372
     11          1           0       -3.035120   -1.732570   -0.091526
     12          1           0       -1.890225   -1.529009    1.258891
     13          1           0        0.388243    1.972315    0.397915
     14          1           0        0.891294   -1.138301   -1.782336
     15          1           0        3.188309   -0.156760   -0.943890
     16          1           0        2.279128    1.355564   -0.819115
     17          1           0        2.860315   -0.710278    1.343194
     18          1           0        1.915504    0.748640    1.672006
     19          1           0        0.502054   -1.822077    0.990769
 ---------------------------------------------------------------------

 SCF Done:  E(RB3LYP) =  -423.143210617     A.U. after    1 cycles

 The electronic state is 1-A.
 Alpha  occ. eigenvalues --  -19.14965 -19.13417 -10.26624 -10.25168 -10.22023
 Alpha  occ. eigenvalues --  -10.20957 -10.20848 -10.20096 -10.20043  -1.05562
 Alpha  occ. eigenvalues --   -1.03068  -0.90314  -0.75226  -0.68128  -0.66774
 Alpha  occ. eigenvalues --   -0.66241  -0.55147  -0.54746  -0.51947  -0.50474
 Alpha  occ. eigenvalues --   -0.46562  -0.44734  -0.44269  -0.43184  -0.42213
 Alpha  occ. eigenvalues --   -0.39660  -0.37296  -0.35998  -0.34665  -0.33944
 Alpha  occ. eigenvalues --   -0.29612  -0.29339  -0.26325  -0.23460
 Alpha virt. eigenvalues --   -0.02358   0.08105   0.09234   0.09266   0.10981
 Alpha virt. eigenvalues --    0.12676   0.14674   0.15123   0.16125   0.17092
 Alpha virt. eigenvalues --    0.17994   0.18575   0.18931   0.19705   0.21490

 Mulliken charges:
               1
     1  C   -0.256760
     2  O   -0.287292
     3  C    0.328343
     4  C    0.090161
     5  O   -0.274734
     6  C   -0.095666
     7  C   -0.256713
     8  C   -0.251364
     9  C   -0.113169
    10  H    0.143984
    11  H    0.127421
    12  H    0.100472
    13  H    0.080118
    14  H    0.110340
    15  H    0.116670
    16  H    0.110175
    17  H    0.115614
    18  H    0.108491
    19  H    0.103908
 Sum of Mulliken charges =   0.00000

 Dipole moment (field-independent basis, Debye):
    X=              2.5737    Y=             -1.6327    Z=              1.0452  Tot=              3.2221
 Quadrupole moment (field-independent basis, Debye-Ang):
   XX=            -52.5997   YY=            -55.6565   ZZ=            -52.8412
   XY=              4.7977   XZ=             -1.9851   YZ=             -0.8171

  Exact polarizability:  93.687  -0.661  73.341  -0.416  -0.112  63.883
 Approx polarizability: 128.969  -9.014 110.405   0.404  -0.289 100.747

                      1                      2                      3
                      A                      A                      A
 Frequencies --    115.2867               118.4069               169.0909
 Red. masses --      1.4715                 3.5351                 1.7967
 Frc consts  --      0.0115                 0.0292                 0.0303
 IR Inten    --      1.3474                 3.3900                 0.9298

                      4                      5                      6
                      A                      A                      A
 Frequencies --    201.2632               216.4948               270.9902
 Red. masses --      2.7315                 4.3566                 2.3700
 Frc consts  --      0.0652                 0.1203                 0.1025
 IR Inten    --      3.7186                 5.4235                 4.5111

                      7                      8                      9
                      A                      A                      A
 Frequencies --    311.7497               329.5899               432.9100
 Red. masses --      2.6764                 3.0008                 4.1651
 Frc consts  --      0.1533                 0.1921                 0.4599
 IR Inten    --      0.6736                 0.1687                 8.5421

                     10                     11                     12
                      A                      A                      A
 Frequencies --    507.6730               524.8750               686.8439
 Red. masses --      3.8035                 3.8448                 3.8402
 Frc consts  --      0.5776                 0.6241                 1.0674
 IR Inten    --      6.6881                 0.2766                 3.5866

                     13                     14                     15
                      A                      A                      A
 Frequencies --    781.9890               797.2921               856.6060
 Red. masses --      1.3577                 3.0181                 1.5248
 Frc consts  --      0.4892                 1.1304                 0.6592
 IR Inten    --     13.4037                25.6477                18.0105

                     16                     17                     18
                      A                      A                      A
 Frequencies --    874.7336               907.5717               954.9626
 Red. masses --      3.5178                 1.9035                 2.6294
 Frc consts  --      1.5859                 0.9238                 1.4128
 IR Inten    --      3.6663                 8.2024                 5.8190

                     19                     20                     21
                      A                      A                      A
 Frequencies --    960.5923              1006.5608              1025.6671
 Red. masses --      2.2980                 1.2739                 2.5905
 Frc consts  --      1.2493                 0.7605                 1.6056
 IR Inten    --      5.1506                 1.2206                 9.3150

                     22                     23                     24
                      A                      A                      A
 Frequencies --   1046.5258              1059.8674              1088.6053
 Red. masses --      2.7873                 2.0292                 1.9692
 Frc consts  --      1.7986                 1.3430                 1.3749
 IR Inten    --     32.6817                 4.3560                 1.1156

                     25                     26                     27
                      A                      A                      A
 Frequencies --   1127.8066              1174.6363              1187.0514
 Red. masses --      1.6058                 1.4398                 1.9290
 Frc consts  --      1.2034                 1.1704                 1.6015
 IR Inten    --     13.1215                15.3223                63.8848

                     28                     29                     30
                      A                      A                      A
 Frequencies --   1215.1968              1221.8357              1244.2862
 Red. masses --      1.2314                 1.4206                 1.6418
 Frc consts  --      1.0714                 1.2495                 1.4977
 IR Inten    --      1.0233                 5.4551                 0.8277

                     31                     32                     33
                      A                      A                      A
 Frequencies --   1248.6165              1288.2141              1319.2823
 Red. masses --      1.3495                 1.7089                 3.4247
 Frc consts  --      1.2396                 1.6709                 3.5120
 IR Inten    --      0.2975                 2.1911                58.9815

                     34                     35                     36
                      A                      A                      A
 Frequencies --   1362.1851              1449.7197              1477.4326
 Red. masses --      2.5825                 1.3169                 1.1942
 Frc consts  --      2.8233                 1.6307                 1.5358
 IR Inten    --      7.7090                 7.4755                 2.4141

                     37                     38                     39
                      A                      A                      A
 Frequencies --   1482.9005              1485.3621              1508.4324
 Red. masses --      1.0496                 1.0817                 1.1127
 Frc consts  --      1.3599                 1.4062                 1.4917
 IR Inten    --      4.8902                 0.7666                 0.2943

                     40                     41                     42
                      A                      A                      A
 Frequencies --   1516.3968              1803.9378              2917.5100
 Red. masses --      1.0479                10.2053                 1.0816
 Frc consts  --      1.4197                19.5667                 5.4241
 IR Inten    --      5.9409               210.9087                77.2899

                     43                     44                     45
                      A                      A                      A
 Frequencies --   3005.7509              3061.8330              3068.0634
 Red. masses --      1.0432                 1.0581                 1.0612
 Frc consts  --      5.5528                 5.8445                 5.8856
 IR Inten    --     49.1346                35.4292                46.2976

                     46                     47                     48
                      A                      A                      A
 Frequencies --   3093.8361              3103.8185              3121.5048
 Red. masses --      1.0883                 1.1077                 1.1060
 Frc consts  --      6.1377                 6.2876                 6.3496
 IR Inten    --     33.1748                 0.2718                32.9179

                     49                     50                     51
                      A                      A                      A
 Frequencies --   3131.9719              3186.4223              3198.9531
 Red. masses --      1.1054                 1.0886                 1.0959
 Frc consts  --      6.3886                 6.5124                 6.6072
 IR Inten    --     17.3908                11.0346                 7.0467

 - Thermochemistry -
 -------------------
 Temperature   298.150 Kelvin.  Pressure   1.00000 Atm.
 Atom     1 has atomic number  6 and mass  12.00000

 Molecular mass:   126.06808 amu.
 Principal axes and moments of inertia in atomic units:
                           1         2         3
     Eigenvalues --   652.648071317.902501620.48259
           X            0.99875   0.04885  -0.01024
           Y           -0.04904   0.99861  -0.01935
           Z            0.00928   0.01983   0.99976
 This molecule is an asymmetric top.
 Rotational symmetry number  1.
 Warning -- assumption of classical behavior for rotation
           may cause significant error
 Rotational temperatures (Kelvin)      0.13271     0.06572     0.05345
 Rotational constants (GHZ):           2.76526     1.36940     1.11371
 Zero-point vibrational energy     414201.6 (Joules/Mol)
                                   98.99656 (Kcal/Mol)
 Warning -- explicit consideration of  11 degrees of freedom as
           vibrations may cause significant error
 Vibrational temperatures:    165.87   170.36   243.28   289.57   311.49
          (Kelvin)            389.89   448.54   474.21   622.86   730.43
                              755.18   988.21  1125.11  1147.12  1232.46
                             1258.55  1305.79  1373.98  1382.08  1448.21
                             1475.70  1505.72  1524.91  1566.26  1622.66
                             1690.04  1707.90  1748.39  1757.95  1790.25
                             1796.48  1853.45  1898.15  1959.88  2085.82
                             2125.69  2133.56  2137.10  2170.30  2181.75
                             2595.46  4197.64  4324.60  4405.29  4414.25
                             4451.33  4465.70  4491.14  4506.20  4584.55
                             4602.57

 Zero-point correction=                           0.157761 (Hartree/Particle)
 Thermal correction to Energy=                    0.166535
 Thermal correction to Enthalpy=                  0.167479
 Thermal correction to Gibbs Free Energy=         0.124456
 Sum of electronic and zero-point Energies=           -422.985450
 Sum of electronic and thermal Energies=              -422.976676
 Sum of electronic and thermal Enthalpies=            -422.975732
 Sum of electronic and thermal Free Energies=         -423.018755

                     E (Thermal)             CV                S
                      KCal/Mol        Cal/Mol-Kelvin    Cal/Mol-Kelvin
 Total                  104.502             32.816             90.550
 Electronic               0.000              0.000              0.000
 Translational            0.889              2.981             40.409
 Rotational               0.889              2.981             28.724
 Vibrational            102.725             26.854             21.418
 Vibration     1          0.608              1.937              3.178
 Vibration     2          0.609              1.934              3.126
 Vibration     3          0.625              1.881              2.446
 Vibration     4          0.638              1.838              2.122
 Vibration     5          0.645              1.816              1.988
 Vibration     6          0.675              1.727              1.590
 Vibration     7          0.700              1.651              1.353
 Vibration     8          0.712              1.616              1.262
 Vibration     9          0.794              1.399              0.849
 Vibration    10          0.863              1.233              0.639
 Vibration    11          0.880              1.195              0.599

 Optimization completed.
    -- Stationary point found.
 Normal termination of Gaussian 09 at Tue Jan 28 09:39:04 2020.
