 Gaussian 09, Revision D.01,
 Gaussian 09:  ES64L-G09RevD.01 24-Apr-2013

 -----------------------------
 # b3lyp 6-31G(2df,p) opt Freq
 -----------------------------

 -----
 titel
 -----
 Symbolic Z-matrix:
 Charge =  0 Multiplicity = 1

 SCF Done:  E(RB3LYP) =  -423.229797527     A.U. after   14 cycles
 Optimization completed.
    -- Stationary point found.
 Normal termination of Gaussian 09 at Mon Jan 27 13:08:22 2020.

 ----------------------------------------------------------------------
 #N Geom=AllCheck Guess=TCheck SCRF=Check GenChk RB3LYP/6-31G(2df,p) Fr
 eq
 ----------------------------------------------------------------------

 Structure from the checkpoint file:  "/scratch/puck/g09_3b56db80-4562-41ef-b0b8-8b87f1db5732/Gau-28446.chk"
 -----
 titel
 -----
 Charge =  0 Multiplicity = 1

                         Standard orientation:
 ---------------------------------------------------------------------
 Center     Atomic      Atomic             Coordinates (Angstroms)
 Number     Number       Type             X           Y           Z
 ---------------------------------------------------------------------
      1          8           0       -2.311933    1.154260   -0.124502
      2          6           0       -1.456319    0.331090    0.064990
      3          6           0       -1.498779   -1.140445   -0.346625
      4          8           0       -0.160707   -1.583332   -0.310646
      5          6           0        0.571909   -0.834835    0.680324
      6          6           0        1.982190   -0.588099    0.145590
      7          6           0        1.807159    0.628423   -0.779451
      8          6           0        0.833624    1.534895   -0.002178
      9          6           0       -0.107426    0.552030    0.753127
     10          1           0       -2.145790   -1.693354    0.357461
     11          1           0       -1.903696   -1.269072   -1.354377
     12          1           0        0.553785   -1.381274    1.632636
     13          1           0        2.648449   -0.341732    0.981398
     14          1           0        2.380224   -1.474783   -0.354045
     15          1           0        2.749202    1.128395   -1.018016
     16          1           0        1.355189    0.305254   -1.723036
     17          1           0        1.383184    2.137554    0.728189
     18          1           0        0.272307    2.227142   -0.635103
     19          1           0       -0.305887    0.896086    1.771408
 ---------------------------------------------------------------------

 SCF Done:  E(RB3LYP) =  -423.229797527     A.U. after    1 cycles

 The electronic state is 1-A.
 Alpha  occ. eigenvalues --  -19.14757 -19.13795 -10.27233 -10.23755 -10.23629
 Alpha  occ. eigenvalues --  -10.19698 -10.19197 -10.18537 -10.18516  -1.05532
 Alpha  occ. eigenvalues --   -1.03791  -0.83953  -0.75646  -0.72226  -0.69265
 Alpha  occ. eigenvalues --   -0.59702  -0.57324  -0.54440  -0.51453  -0.48205
 Alpha  occ. eigenvalues --   -0.46462  -0.46190  -0.44745  -0.41542  -0.39393
 Alpha  occ. eigenvalues --   -0.38687  -0.36963  -0.35524  -0.34999  -0.33778
 Alpha  occ. eigenvalues --   -0.33626  -0.32429  -0.27107  -0.23850
 Alpha virt. eigenvalues --   -0.02411   0.07909   0.10123   0.11480   0.12240
 Alpha virt. eigenvalues --    0.13873   0.15109   0.16040   0.16451   0.16721
 Alpha virt. eigenvalues --    0.16948   0.18905   0.19220   0.20139   0.21217

 Mulliken charges:
               1
     1  O   -0.304978
     2  C    0.368371
     3  C   -0.185112
     4  O   -0.271540
     5  C    0.111838
     6  C   -0.217717
     7  C   -0.205407
     8  C   -0.221883
     9  C   -0.145138
    10  H    0.114119
    11  H    0.136786
    12  H    0.068135
    13  H    0.097586
    14  H    0.112506
    15  H    0.099258
    16  H    0.113742
    17  H    0.105554
    18  H    0.119348
    19  H    0.104535
 Sum of Mulliken charges =   0.00000

 Dipole moment (field-independent basis, Debye):
    X=              1.7863    Y=             -0.5043    Z=              1.0033  Tot=              2.1099
 Quadrupole moment (field-independent basis, Debye-Ang):
   XX=            -56.2072   YY=            -56.8119   ZZ=            -50.7498
   XY=              5.7655   XZ=              0.0731   YZ=             -0.3725

  Exact polarizability:  85.001   1.304  73.900   2.516  -0.193  64.796
 Approx polarizability: 116.593  -4.201 108.431   5.421   0.633  99.849

                      1                      2                      3
                      A                      A                      A
 Frequencies --     57.8859               133.0628               207.1751
 Red. masses --      3.9455                 2.5873                 3.2741
 Frc consts  --      0.0078                 0.0270                 0.0828
 IR Inten    --      2.4500                 5.0858                 5.4594

                      4                      5                      6
                      A                      A                      A
 Frequencies --    253.5461               359.9379               456.4116
 Red. masses --      2.4228                 2.3606                 3.3385
 Frc consts  --      0.0918                 0.1802                 0.4098
 IR Inten    --      0.4049                 0.7486                 8.4558

                      7                      8                      9
                      A                      A                      A
 Frequencies --    529.2071               534.3475               602.3522
 Red. masses --      4.7207                 2.7214                 2.0574
 Frc consts  --      0.7789                 0.4578                 0.4398
 IR Inten    --      3.0613                 4.4731                 3.0944

                     10                     11                     12
                      A                      A                      A
 Frequencies --    652.4687               750.0047               799.2230
 Red. masses --      6.4882                 2.6311                 4.1032
 Frc consts  --      1.6274                 0.8720                 1.5442
 IR Inten    --      2.4391                 4.5401                 7.9160

                     13                     14                     15
                      A                      A                      A
 Frequencies --    825.1052               869.2331               897.5923
 Red. masses --      2.6517                 2.2201                 1.8848
 Frc consts  --      1.0636                 0.9883                 0.8947
 IR Inten    --      6.4556                 0.9736                 1.3080

                     16                     17                     18
                      A                      A                      A
 Frequencies --    911.0660               924.3957               952.8469
 Red. masses --      2.3910                 2.2645                 2.4831
 Frc consts  --      1.1693                 1.1401                 1.3283
 IR Inten    --      1.4423                12.0247                 3.1538

                     19                     20                     21
                      A                      A                      A
 Frequencies --    974.9205              1028.3399              1044.7048
 Red. masses --      1.7202                 1.6469                 1.8202
 Frc consts  --      0.9633                 1.0261                 1.1704
 IR Inten    --      0.5452                 1.2662                 1.0526

                     22                     23                     24
                      A                      A                      A
 Frequencies --   1092.1982              1114.1112              1128.2467
 Red. masses --      3.4730                 2.3915                 1.8469
 Frc consts  --      2.4409                 1.7490                 1.3851
 IR Inten    --     13.0898                79.0174                11.4843

                     25                     26                     27
                      A                      A                      A
 Frequencies --   1176.7633              1189.9802              1219.2359
 Red. masses --      1.6762                 1.7585                 1.4981
 Frc consts  --      1.3676                 1.4671                 1.3121
 IR Inten    --     26.7008                24.7490                30.4548

                     28                     29                     30
                      A                      A                      A
 Frequencies --   1225.2329              1258.8379              1271.8656
 Red. masses --      1.4016                 1.4543                 1.4149
 Frc consts  --      1.2397                 1.3578                 1.3486
 IR Inten    --      2.6027                12.0103                 2.5561

                     31                     32                     33
                      A                      A                      A
 Frequencies --   1309.2343              1321.6398              1338.4741
 Red. masses --      1.3197                 1.3704                 1.3314
 Frc consts  --      1.3328                 1.4103                 1.4053
 IR Inten    --      0.3780                 2.9936                 5.1065

                     34                     35                     36
                      A                      A                      A
 Frequencies --   1346.8386              1361.5629              1371.8981
 Red. masses --      1.4705                 1.5330                 1.3297
 Frc consts  --      1.5717                 1.6745                 1.4745
 IR Inten    --      4.9076                 4.5065                13.0029

                     37                     38                     39
                      A                      A                      A
 Frequencies --   1478.0841              1481.4175              1492.1066
 Red. masses --      1.0932                 1.0871                 1.0852
 Frc consts  --      1.4072                 1.4056                 1.4236
 IR Inten    --      4.4743                 5.8369                 2.9087

                     40                     41                     42
                      A                      A                      A
 Frequencies --   1506.7604              1853.8589              2953.2756
 Red. masses --      1.0983                12.6885                 1.0705
 Frc consts  --      1.4691                25.6929                 5.5008
 IR Inten    --      2.9713               196.7631                46.1500

                     43                     44                     45
                      A                      A                      A
 Frequencies --   3009.9671              3040.9387              3049.5435
 Red. masses --      1.0841                 1.0686                 1.0663
 Frc consts  --      5.7871                 5.8223                 5.8427
 IR Inten    --     46.2319                38.1400                24.0088

                     46                     47                     48
                      A                      A                      A
 Frequencies --   3054.1293              3081.0995              3090.7749
 Red. masses --      1.0605                 1.0842                 1.0899
 Frc consts  --      5.8283                 6.0642                 6.1341
 IR Inten    --     22.9063                14.6702                12.7370

                     49                     50                     51
                      A                      A                      A
 Frequencies --   3097.7134              3104.6284              3111.2014
 Red. masses --      1.0979                 1.0982                 1.1048
 Frc consts  --      6.2074                 6.2368                 6.3007
 IR Inten    --     17.1501                16.4412                35.6097

 - Thermochemistry -
 -------------------
 Temperature   298.150 Kelvin.  Pressure   1.00000 Atm.
 Atom     1 has atomic number  8 and mass  15.99491

 Molecular mass:   126.06808 amu.
 Principal axes and moments of inertia in atomic units:
                           1         2         3
     Eigenvalues --   659.421981096.957401491.54118
           X            0.99805   0.06238  -0.00175
           Y           -0.06239   0.99802  -0.00814
           Z            0.00123   0.00823   0.99997
 This molecule is an asymmetric top.
 Rotational symmetry number  1.
 Warning -- assumption of classical behavior for rotation
           may cause significant error
 Rotational temperatures (Kelvin)      0.13135     0.07896     0.05807
 Rotational constants (GHZ):           2.73685     1.64522     1.20998
 Zero-point vibrational energy     424048.9 (Joules/Mol)
                                  101.35013 (Kcal/Mol)
 Warning -- explicit consideration of   9 degrees of freedom as
           vibrations may cause significant error
 Vibrational temperatures:     83.28   191.45   298.08   364.80   517.87
          (Kelvin)            656.67   761.41   768.81   866.65   938.76
                             1079.09  1149.90  1187.14  1250.63  1291.43
                             1310.82  1330.00  1370.93  1402.69  1479.55
                             1503.10  1571.43  1602.96  1623.29  1693.10
                             1712.11  1754.21  1762.83  1811.18  1829.93
                             1883.69  1901.54  1925.76  1937.80  1958.98
                             1973.85  2126.63  2131.43  2146.81  2167.89
                             2667.29  4249.10  4330.67  4375.23  4387.61
                             4394.21  4433.01  4446.93  4456.91  4466.86
                             4476.32

 Zero-point correction=                           0.161512 (Hartree/Particle)
 Thermal correction to Energy=                    0.169023
 Thermal correction to Enthalpy=                  0.169967
 Thermal correction to Gibbs Free Energy=         0.129038
 Sum of electronic and zero-point Energies=           -423.068286
 Sum of electronic and thermal Energies=              -423.060775
 Sum of electronic and thermal Enthalpies=            -423.059831
 Sum of electronic and thermal Free Energies=         -423.100759

                     E (Thermal)             CV                S
                      KCal/Mol        Cal/Mol-Kelvin    Cal/Mol-Kelvin
 Total                  106.063             29.233             86.141
 Electronic               0.000              0.000              0.000
 Translational            0.889              2.981             40.409
 Rotational               0.889              2.981             28.469
 Vibrational            104.286             23.271             17.263
 Vibration     1          0.596              1.974              4.528
 Vibration     2          0.613              1.920              2.901
 Vibration     3          0.641              1.830              2.068
 Vibration     4          0.665              1.757              1.706
 Vibration     5          0.734              1.555              1.122
 Vibration     6          0.815              1.347              0.777
 Vibration     7          0.884              1.185              0.589
 Vibration     8          0.889              1.174              0.578
 Vibration     9          0.961              1.027              0.446

 Normal termination of Gaussian 09 at Mon Jan 27 13:57:14 2020.
