 Gaussian 09, Revision D.01,
 Gaussian 09:  ES64L-G09RevD.01 24-Apr-2013

 -----------------------------
 # b3lyp 6-31G(2df,p) opt Freq
 -----------------------------

 -----
 titel
 -----
 Symbolic Z-matrix:
 Charge =  0 Multiplicity = 1

 SCF Done:  E(RB3LYP) =  -423.150679819     A.U. after   14 cycles
 Optimization completed.
    -- Stationary point found.
 Normal termination of Gaussian 09 at Tue Jan 28 09:15:29 2020.

 ----------------------------------------------------------------------
 #N Geom=AllCheck Guess=TCheck SCRF=Check GenChk RB3LYP/6-31G(2df,p) Fr
 eq
 ----------------------------------------------------------------------

 Structure from the checkpoint file:  "/scratch/puck/g09_db9c6def-ca2b-44d2-92e6-6b5c7d16d48c/Gau-57766.chk"
 -----
 titel
 -----
 Charge =  0 Multiplicity = 1

                         Standard orientation:
 ---------------------------------------------------------------------
 Center     Atomic      Atomic             Coordinates (Angstroms)
 Number     Number       Type             X           Y           Z
 ---------------------------------------------------------------------
      1          6           0       -0.884385    2.060950   -0.494382
      2          6           0       -0.377509    1.035608    0.506520
      3          6           0       -1.319033   -0.112036    1.022202
      4          6           0       -0.007764   -0.868560    1.423916
      5          6           0        0.344761   -0.282607    0.011508
      6          6           0        1.634480   -0.407904   -0.750782
      7          8           0        2.760404    0.059082   -0.018467
      8          6           0       -1.082068   -0.742121   -0.356517
      9          8           0       -1.666954   -1.293591   -1.237243
     10          1           0       -0.054966    2.631318   -0.927361
     11          1           0       -1.433226    1.593061   -1.317997
     12          1           0       -1.555128    2.777731   -0.009117
     13          1           0        0.165421    1.506194    1.333648
     14          1           0       -2.236371   -0.011381    1.598100
     15          1           0        0.546222   -0.413713    2.247611
     16          1           0       -0.060269   -1.954533    1.518745
     17          1           0        1.834261   -1.463186   -0.964639
     18          1           0        1.542474    0.104242   -1.721427
     19          1           0        2.653087    1.006360    0.113324
 ---------------------------------------------------------------------

 SCF Done:  E(RB3LYP) =  -423.150679819     A.U. after    1 cycles

 The electronic state is 1-A.
 Alpha  occ. eigenvalues --  -19.14265 -19.13711 -10.27465 -10.23609 -10.21791
 Alpha  occ. eigenvalues --  -10.21276 -10.21167 -10.20832 -10.18853  -1.05012
 Alpha  occ. eigenvalues --   -1.02294  -0.92565  -0.75049  -0.72332  -0.64934
 Alpha  occ. eigenvalues --   -0.61999  -0.61646  -0.52273  -0.48816  -0.48010
 Alpha  occ. eigenvalues --   -0.46674  -0.45153  -0.44630  -0.42509  -0.41739
 Alpha  occ. eigenvalues --   -0.38961  -0.36635  -0.35560  -0.34513  -0.34263
 Alpha  occ. eigenvalues --   -0.32955  -0.31044  -0.28063  -0.23881
 Alpha virt. eigenvalues --    0.01009   0.05416   0.10498   0.11591   0.11770
 Alpha virt. eigenvalues --    0.12159   0.13259   0.14155   0.14544   0.15582
 Alpha virt. eigenvalues --    0.15851   0.17523   0.18285   0.19826   0.21224

 Mulliken charges:
               1
     1  C   -0.442880
     2  C   -0.016024
     3  C   -0.184236
     4  C   -0.271108
     5  C    0.162442
     6  C   -0.206284
     7  O   -0.410605
     8  C    0.411782
     9  O   -0.336082
    10  H    0.117177
    11  H    0.140588
    12  H    0.126589
    13  H    0.077105
    14  H    0.093005
    15  H    0.112454
    16  H    0.113558
    17  H    0.126586
    18  H    0.101956
    19  H    0.283975
 Sum of Mulliken charges =   0.00000

 Dipole moment (field-independent basis, Debye):
    X=              0.3955    Y=              2.3869    Z=              1.6268  Tot=              2.9155
 Quadrupole moment (field-independent basis, Debye-Ang):
   XX=            -60.8919   YY=            -51.3274   ZZ=            -54.2678
   XY=             -0.5611   XZ=             -4.2524   YZ=             -2.3581

  Exact polarizability:  77.284   0.502  76.810   0.995   0.738  73.454
 Approx polarizability: 112.586   4.599 112.741   7.099   7.260 114.893

                      1                      2                      3
                      A                      A                      A
 Frequencies --     65.1834               134.3781               146.7027
 Red. masses --      3.2495                 4.3703                 5.0370
 Frc consts  --      0.0081                 0.0465                 0.0639
 IR Inten    --      2.6551                 1.7247                 1.6580

                      4                      5                      6
                      A                      A                      A
 Frequencies --    186.9241               203.9025               272.3691
 Red. masses --      2.0328                 1.0869                 1.2645
 Frc consts  --      0.0418                 0.0266                 0.0553
 IR Inten    --     10.4907                 1.1222                85.4548

                      7                      8                      9
                      A                      A                      A
 Frequencies --    303.5524               335.3935               379.0276
 Red. masses --      4.4036                 2.9602                 2.1549
 Frc consts  --      0.2391                 0.1962                 0.1824
 IR Inten    --     16.8354                 1.4749                 7.6722

                     10                     11                     12
                      A                      A                      A
 Frequencies --    538.2057               570.0107               645.7891
 Red. masses --      2.9430                 3.9663                 3.8389
 Frc consts  --      0.5023                 0.7593                 0.9433
 IR Inten    --      0.5353                 6.6560                 4.0583

                     13                     14                     15
                      A                      A                      A
 Frequencies --    715.1674               747.2553               789.8813
 Red. masses --      4.2578                 3.8395                 3.0681
 Frc consts  --      1.2831                 1.2632                 1.1278
 IR Inten    --      4.5829                 0.1865                 9.9207

                     16                     17                     18
                      A                      A                      A
 Frequencies --    819.4793               848.4768               900.4075
 Red. masses --      3.4705                 2.4294                 2.0875
 Frc consts  --      1.3731                 1.0305                 0.9971
 IR Inten    --      6.9601                 3.8972                 3.1782

                     19                     20                     21
                      A                      A                      A
 Frequencies --    987.4224              1009.4540              1017.3943
 Red. masses --      1.8512                 1.1978                 1.9166
 Frc consts  --      1.0635                 0.7192                 1.1689
 IR Inten    --     10.9698                 4.8614                41.2353

                     22                     23                     24
                      A                      A                      A
 Frequencies --   1027.4164              1062.7122              1076.2727
 Red. masses --      1.3696                 3.5967                 1.6530
 Frc consts  --      0.8518                 2.3933                 1.1281
 IR Inten    --      7.0369                54.4932                 2.0008

                     25                     26                     27
                      A                      A                      A
 Frequencies --   1101.9459              1135.2484              1151.5808
 Red. masses --      1.8276                 1.4030                 2.3321
 Frc consts  --      1.3075                 1.0654                 1.8222
 IR Inten    --      2.7613                13.8887                 1.8775

                     28                     29                     30
                      A                      A                      A
 Frequencies --   1173.4884              1198.2413              1234.7766
 Red. masses --      2.0019                 1.4836                 1.9133
 Frc consts  --      1.6242                 1.2551                 1.7188
 IR Inten    --      8.1812                 5.1818                 1.8001

                     31                     32                     33
                      A                      A                      A
 Frequencies --   1243.4401              1335.6682              1379.0973
 Red. masses --      1.4502                 2.6884                 1.2930
 Frc consts  --      1.3210                 2.8258                 1.4489
 IR Inten    --     11.3176                 0.3847                 5.9830

                     34                     35                     36
                      A                      A                      A
 Frequencies --   1391.7136              1417.3388              1422.1221
 Red. masses --      1.3682                 1.3645                 1.3366
 Frc consts  --      1.5614                 1.6151                 1.5926
 IR Inten    --      7.8990                37.3107                22.2547

                     37                     38                     39
                      A                      A                      A
 Frequencies --   1491.9318              1494.9225              1498.7856
 Red. masses --      1.0690                 1.0565                 1.0489
 Frc consts  --      1.4019                 1.3911                 1.3882
 IR Inten    --      4.8385                 1.9550                 4.0863

                     40                     41                     42
                      A                      A                      A
 Frequencies --   1518.8627              1906.9805              2984.4258
 Red. masses --      1.1303                12.4203                 1.0700
 Frc consts  --      1.5363                26.6118                 5.6151
 IR Inten    --      0.5445               344.2543                43.6476

                     43                     44                     45
                      A                      A                      A
 Frequencies --   3030.7541              3046.5181              3069.2611
 Red. masses --      1.0366                 1.0836                 1.0538
 Frc consts  --      5.6101                 5.9253                 5.8491
 IR Inten    --     22.5741                20.2660                24.2069

                     46                     47                     48
                      A                      A                      A
 Frequencies --   3074.6466              3093.5268              3107.0165
 Red. masses --      1.0921                 1.1003                 1.1014
 Frc consts  --      6.0826                 6.2042                 6.2645
 IR Inten    --     20.0237                19.2394                18.6248

                     49                     50                     51
                      A                      A                      A
 Frequencies --   3140.6511              3147.1806              3818.3018
 Red. masses --      1.1124                 1.0936                 1.0663
 Frc consts  --      6.4645                 6.3818                 9.1591
 IR Inten    --     19.6025                27.5977                14.1572

 - Thermochemistry -
 -------------------
 Temperature   298.150 Kelvin.  Pressure   1.00000 Atm.
 Atom     1 has atomic number  6 and mass  12.00000

 Molecular mass:   126.06808 amu.
 Principal axes and moments of inertia in atomic units:
                           1         2         3
     Eigenvalues --   819.676441293.853041447.07240
           X            0.99849  -0.05096  -0.02042
           Y            0.04833   0.99239  -0.11327
           Z            0.02603   0.11211   0.99335
 This molecule is an asymmetric top.
 Rotational symmetry number  1.
 Warning -- assumption of classical behavior for rotation
           may cause significant error
 Rotational temperatures (Kelvin)      0.10567     0.06694     0.05985
 Rotational constants (GHZ):           2.20177     1.39486     1.24717
 Zero-point vibrational energy     415051.6 (Joules/Mol)
                                   99.19971 (Kcal/Mol)
 Warning -- explicit consideration of  11 degrees of freedom as
           vibrations may cause significant error
 Vibrational temperatures:     93.78   193.34   211.07   268.94   293.37
          (Kelvin)            391.88   436.74   482.56   545.34   774.36
                              820.12   929.15  1028.97  1075.13  1136.46
                             1179.05  1220.77  1295.48  1420.68  1452.38
                             1463.80  1478.22  1529.00  1548.51  1585.45
                             1633.37  1656.87  1688.39  1724.00  1776.57
                             1789.03  1921.73  1984.21  2002.36  2039.23
                             2046.11  2146.55  2150.86  2156.42  2185.30
                             2743.72  4293.92  4360.57  4383.25  4415.98
                             4423.73  4450.89  4470.30  4518.69  4528.09
                             5493.68

 Zero-point correction=                           0.158085 (Hartree/Particle)
 Thermal correction to Energy=                    0.167132
 Thermal correction to Enthalpy=                  0.168076
 Thermal correction to Gibbs Free Energy=         0.124169
 Sum of electronic and zero-point Energies=           -422.992595
 Sum of electronic and thermal Energies=              -422.983548
 Sum of electronic and thermal Enthalpies=            -422.982604
 Sum of electronic and thermal Free Energies=         -423.026511

                     E (Thermal)             CV                S
                      KCal/Mol        Cal/Mol-Kelvin    Cal/Mol-Kelvin
 Total                  104.877             33.568             92.411
 Electronic               0.000              0.000              0.000
 Translational            0.889              2.981             40.409
 Rotational               0.889              2.981             28.819
 Vibrational            103.099             27.606             23.183
 Vibration     1          0.597              1.971              4.294
 Vibration     2          0.613              1.919              2.882
 Vibration     3          0.617              1.906              2.715
 Vibration     4          0.632              1.858              2.258
 Vibration     5          0.640              1.834              2.098
 Vibration     6          0.675              1.724              1.581
 Vibration     7          0.695              1.667              1.397
 Vibration     8          0.717              1.605              1.234
 Vibration     9          0.749              1.515              1.043
 Vibration    10          0.893              1.166              0.569
 Vibration    11          0.926              1.096              0.504

 Optimization completed.
    -- Stationary point found.
 Normal termination of Gaussian 09 at Tue Jan 28 10:02:39 2020.
