 Gaussian 09, Revision D.01,
 Gaussian 09:  ES64L-G09RevD.01 24-Apr-2013

 -----------------------------
 # b3lyp 6-31G(2df,p) opt Freq
 -----------------------------

 -----
 titel
 -----
 Symbolic Z-matrix:
 Charge =  0 Multiplicity = 1

 SCF Done:  E(RB3LYP) =  -423.182558827     A.U. after   14 cycles
 Optimization completed.
    -- Stationary point found.
 Normal termination of Gaussian 09 at Mon Jan 27 13:56:07 2020.

 ----------------------------------------------------------------------
 #N Geom=AllCheck Guess=TCheck SCRF=Check GenChk RB3LYP/6-31G(2df,p) Fr
 eq
 ----------------------------------------------------------------------

 Structure from the checkpoint file:  "/scratch/puck/g09_7919d5ab-633a-4be6-9aad-c1ba7a636577/Gau-3592.chk"
 -----
 titel
 -----
 Charge =  0 Multiplicity = 1

                         Standard orientation:
 ---------------------------------------------------------------------
 Center     Atomic      Atomic             Coordinates (Angstroms)
 Number     Number       Type             X           Y           Z
 ---------------------------------------------------------------------
      1          8           0       -3.602827   -0.242406    0.421962
      2          6           0       -2.536792   -0.418392   -0.111564
      3          6           0       -1.504483    0.669096   -0.331570
      4          6           0       -0.135251    0.300491    0.244745
      5          6           0        0.969959    1.365668    0.032607
      6          6           0        2.221673    0.536037   -0.198822
      7          6           0        2.508984   -0.586232    0.786721
      8          6           0        1.726644   -0.854404   -0.472330
      9          8           0        0.324358   -0.893959   -0.400063
     10          1           0       -2.235261   -1.419783   -0.485258
     11          1           0       -1.388072    0.816223   -1.413900
     12          1           0       -1.874537    1.596754    0.114372
     13          1           0       -0.246375    0.102463    1.320875
     14          1           0        0.758337    1.967698   -0.858417
     15          1           0        1.033794    2.044624    0.888023
     16          1           0        3.041215    0.973837   -0.755755
     17          1           0        3.527051   -0.958752    0.822584
     18          1           0        1.995850   -0.601617    1.742555
     19          1           0        2.111343   -1.504111   -1.248994
 ---------------------------------------------------------------------

 SCF Done:  E(RB3LYP) =  -423.182558827     A.U. after    1 cycles

 The electronic state is 1-A.
 Alpha  occ. eigenvalues --  -19.15029 -19.13551 -10.26672 -10.24827 -10.23975
 Alpha  occ. eigenvalues --  -10.19844 -10.19741 -10.19551 -10.19076  -1.05256
 Alpha  occ. eigenvalues --   -1.04141  -0.85452  -0.79894  -0.72764  -0.64181
 Alpha  occ. eigenvalues --   -0.59528  -0.57756  -0.55987  -0.52481  -0.50490
 Alpha  occ. eigenvalues --   -0.45780  -0.45175  -0.43605  -0.42687  -0.40787
 Alpha  occ. eigenvalues --   -0.40651  -0.38640  -0.36721  -0.35824  -0.34044
 Alpha  occ. eigenvalues --   -0.33068  -0.28826  -0.24553  -0.24089
 Alpha virt. eigenvalues --   -0.01957   0.08666   0.09118   0.10828   0.11802
 Alpha virt. eigenvalues --    0.13074   0.13851   0.14145   0.15402   0.16093
 Alpha virt. eigenvalues --    0.17421   0.18067   0.19053   0.21550   0.22385

 Mulliken charges:
               1
     1  O   -0.242415
     2  C    0.153758
     3  C   -0.299844
     4  C    0.114373
     5  C   -0.258588
     6  C   -0.072856
     7  C   -0.324422
     8  C    0.121209
     9  O   -0.274095
    10  H    0.098442
    11  H    0.123041
    12  H    0.120660
    13  H    0.087909
    14  H    0.107004
    15  H    0.111677
    16  H    0.094343
    17  H    0.116188
    18  H    0.119580
    19  H    0.104034
 Sum of Mulliken charges =   0.00000

 Dipole moment (field-independent basis, Debye):
    X=              3.3692    Y=              1.1088    Z=             -0.7289  Tot=              3.6211
 Quadrupole moment (field-independent basis, Debye-Ang):
   XX=            -63.0628   YY=            -52.8354   ZZ=            -51.7055
   XY=             -1.5137   XZ=              2.3607   YZ=              0.0207

  Exact polarizability:  92.926  -2.734  70.544  -2.157   0.406  63.711
 Approx polarizability: 120.647  -2.698 105.200  -6.537   2.219 101.026

                      1                      2                      3
                      A                      A                      A
 Frequencies --     45.4751                76.3603               111.7935
 Red. masses --      4.8468                 3.9933                 3.3768
 Frc consts  --      0.0059                 0.0137                 0.0249
 IR Inten    --      4.8973                 2.0961                 3.5790

                      4                      5                      6
                      A                      A                      A
 Frequencies --    188.5498               298.0115               338.7192
 Red. masses --      2.3856                 2.4365                 3.6146
 Frc consts  --      0.0500                 0.1275                 0.2443
 IR Inten    --      0.5514                 2.4305                 0.3085

                      7                      8                      9
                      A                      A                      A
 Frequencies --    401.8735               456.8971               508.3061
 Red. masses --      3.0093                 2.7420                 1.9173
 Frc consts  --      0.2864                 0.3373                 0.2919
 IR Inten    --      8.3120                 8.4769                 7.5704

                     10                     11                     12
                      A                      A                      A
 Frequencies --    651.2712               683.6698               769.8960
 Red. masses --      2.5504                 4.1364                 2.3530
 Frc consts  --      0.6373                 1.1391                 0.8217
 IR Inten    --      3.2012                 0.5748                13.8305

                     13                     14                     15
                      A                      A                      A
 Frequencies --    807.6608               827.7355               845.5571
 Red. masses --      1.4482                 1.7370                 3.5140
 Frc consts  --      0.5566                 0.7012                 1.4802
 IR Inten    --     10.9624                 2.1140                 6.1109

                     16                     17                     18
                      A                      A                      A
 Frequencies --    908.7770               937.0632               962.0361
 Red. masses --      2.1064                 1.9280                 2.4777
 Frc consts  --      1.0249                 0.9975                 1.3511
 IR Inten    --      6.2759                 9.3849                12.2017

                     19                     20                     21
                      A                      A                      A
 Frequencies --    985.8612              1005.1133              1043.3144
 Red. masses --      2.0128                 1.8345                 1.4677
 Frc consts  --      1.1526                 1.0919                 0.9413
 IR Inten    --      9.2201                 7.4504                 8.2594

                     22                     23                     24
                      A                      A                      A
 Frequencies --   1073.0881              1079.1128              1098.6870
 Red. masses --      1.8276                 1.7994                 1.8370
 Frc consts  --      1.2399                 1.2345                 1.3065
 IR Inten    --     19.6525                 7.2182                31.4704

                     25                     26                     27
                      A                      A                      A
 Frequencies --   1116.6834              1127.9651              1161.5511
 Red. masses --      1.8736                 2.2376                 2.7917
 Frc consts  --      1.3765                 1.6773                 2.2192
 IR Inten    --     16.8687                 5.3162                91.0972

                     28                     29                     30
                      A                      A                      A
 Frequencies --   1192.5232              1207.0348              1247.5244
 Red. masses --      1.4093                 1.5340                 1.3201
 Frc consts  --      1.1808                 1.3168                 1.2105
 IR Inten    --      9.0336                 6.1997                11.7004

                     31                     32                     33
                      A                      A                      A
 Frequencies --   1281.7035              1309.4794              1321.3609
 Red. masses --      1.5066                 1.4878                 1.3599
 Frc consts  --      1.4582                 1.5031                 1.3990
 IR Inten    --      3.1990                 2.8631                 1.0165

                     34                     35                     36
                      A                      A                      A
 Frequencies --   1371.7646              1389.5780              1401.9125
 Red. masses --      1.3899                 1.5238                 1.4754
 Frc consts  --      1.5410                 1.7336                 1.7085
 IR Inten    --      8.9492                36.8582                 1.6884

                     37                     38                     39
                      A                      A                      A
 Frequencies --   1423.9740              1449.7916              1479.4420
 Red. masses --      1.2123                 1.0991                 1.2681
 Frc consts  --      1.4484                 1.3611                 1.6353
 IR Inten    --      8.2774                 4.1360                12.7541

                     40                     41                     42
                      A                      A                      A
 Frequencies --   1496.5342              1830.0786              2915.0363
 Red. masses --      1.1135                 9.7895                 1.0838
 Frc consts  --      1.4694                19.3175                 5.4261
 IR Inten    --      3.3625               187.9626                69.9217

                     43                     44                     45
                      A                      A                      A
 Frequencies --   2987.3923              3026.7080              3041.0976
 Red. masses --      1.0829                 1.0631                 1.0613
 Frc consts  --      5.6940                 5.7382                 5.7827
 IR Inten    --     24.5893                 6.9607                30.9007

                     46                     47                     48
                      A                      A                      A
 Frequencies --   3089.4340              3104.7537              3132.4271
 Red. masses --      1.1029                 1.0991                 1.0544
 Frc consts  --      6.2020                 6.2425                 6.0955
 IR Inten    --     19.9393                15.0624                10.1409

                     49                     50                     51
                      A                      A                      A
 Frequencies --   3179.8835              3190.6237              3218.7811
 Red. masses --      1.0896                 1.0958                 1.1150
 Frc consts  --      6.4916                 6.5725                 6.8060
 IR Inten    --     10.3011                15.0930                12.8063

 - Thermochemistry -
 -------------------
 Temperature   298.150 Kelvin.  Pressure   1.00000 Atm.
 Atom     1 has atomic number  8 and mass  15.99491

 Molecular mass:   126.06808 amu.
 Principal axes and moments of inertia in atomic units:
                           1         2         3
     Eigenvalues --   387.249492027.043262202.93792
           X            0.99996  -0.00420   0.00828
           Y            0.00432   0.99988  -0.01465
           Z           -0.00822   0.01468   0.99986
 This molecule is an asymmetric top.
 Rotational symmetry number  1.
 Rotational temperatures (Kelvin)      0.22366     0.04273     0.03932
 Rotational constants (GHZ):           4.66041     0.89033     0.81924
 Zero-point vibrational energy     417495.9 (Joules/Mol)
                                   99.78392 (Kcal/Mol)
 Warning -- explicit consideration of   9 degrees of freedom as
           vibrations may cause significant error
 Vibrational temperatures:     65.43   109.87   160.85   271.28   428.77
          (Kelvin)            487.34   578.21   657.37   731.34   937.03
                              983.65  1107.71  1162.04  1190.93  1216.57
                             1307.53  1348.22  1384.15  1418.43  1446.13
                             1501.09  1543.93  1552.60  1580.76  1606.66
                             1622.89  1671.21  1715.77  1736.65  1794.91
                             1844.08  1884.05  1901.14  1973.66  1999.29
                             2017.04  2048.78  2085.92  2128.58  2153.18
                             2633.07  4194.08  4298.19  4354.75  4375.46
                             4445.00  4467.04  4506.86  4575.14  4590.59
                             4631.10

 Zero-point correction=                           0.159016 (Hartree/Particle)
 Thermal correction to Energy=                    0.167420
 Thermal correction to Enthalpy=                  0.168365
 Thermal correction to Gibbs Free Energy=         0.124830
 Sum of electronic and zero-point Energies=           -423.023543
 Sum of electronic and thermal Energies=              -423.015138
 Sum of electronic and thermal Enthalpies=            -423.014194
 Sum of electronic and thermal Free Energies=         -423.057729

                     E (Thermal)             CV                S
                      KCal/Mol        Cal/Mol-Kelvin    Cal/Mol-Kelvin
 Total                  105.058             31.148             91.626
 Electronic               0.000              0.000              0.000
 Translational            0.889              2.981             40.409
 Rotational               0.889              2.981             28.938
 Vibrational            103.280             25.186             22.280
 Vibration     1          0.595              1.979              5.005
 Vibration     2          0.599              1.965              3.982
 Vibration     3          0.607              1.940              3.238
 Vibration     4          0.633              1.856              2.242
 Vibration     5          0.691              1.677              1.428
 Vibration     6          0.719              1.598              1.218
 Vibration     7          0.767              1.466              0.956
 Vibration     8          0.815              1.346              0.775
 Vibration     9          0.863              1.232              0.638

 Optimization completed.
    -- Stationary point found.
 Normal termination of Gaussian 09 at Mon Jan 27 15:54:13 2020.
