 Gaussian 09, Revision D.01,
 Gaussian 09:  ES64L-G09RevD.01 24-Apr-2013

 -----------------------------
 # b3lyp 6-31G(2df,p) opt Freq
 -----------------------------

 -----
 titel
 -----
 Symbolic Z-matrix:
 Charge =  0 Multiplicity = 1

 SCF Done:  E(RB3LYP) =  -423.190403484     A.U. after   14 cycles
 Optimization completed.
    -- Stationary point found.
 Normal termination of Gaussian 09 at Mon Jan 27 13:55:26 2020.

 ----------------------------------------------------------------------
 #N Geom=AllCheck Guess=TCheck SCRF=Check GenChk RB3LYP/6-31G(2df,p) Fr
 eq
 ----------------------------------------------------------------------

 Structure from the checkpoint file:  "/scratch/puck/g09_c42d33c0-0d7b-4d21-beac-060843fb09bf/Gau-49711.chk"
 -----
 titel
 -----
 Charge =  0 Multiplicity = 1

                         Standard orientation:
 ---------------------------------------------------------------------
 Center     Atomic      Atomic             Coordinates (Angstroms)
 Number     Number       Type             X           Y           Z
 ---------------------------------------------------------------------
      1          8           0        3.905971    0.162554   -0.302344
      2          6           0        2.787028   -0.261296   -0.416785
      3          6           0        1.609434    0.235372    0.405369
      4          8           0        0.457438   -0.428145   -0.040941
      5          6           0       -0.723299   -0.149792    0.706419
      6          6           0       -1.776698   -1.207662    0.300724
      7          6           0       -2.715095   -0.457187   -0.610208
      8          6           0       -2.482110    0.853090   -0.600975
      9          6           0       -1.346482    1.222759    0.321201
     10          1           0        2.517981   -1.064210   -1.137915
     11          1           0        1.815451    0.029138    1.470608
     12          1           0        1.548616    1.330500    0.299986
     13          1           0       -0.479968   -0.199499    1.776921
     14          1           0       -1.278675   -2.054131   -0.183557
     15          1           0       -2.302458   -1.606778    1.177933
     16          1           0       -3.492947   -0.952835   -1.179842
     17          1           0       -3.037524    1.594220   -1.164620
     18          1           0       -0.605082    1.874917   -0.154538
     19          1           0       -1.709347    1.761702    1.206832
 ---------------------------------------------------------------------

 SCF Done:  E(RB3LYP) =  -423.190403484     A.U. after    1 cycles

 The electronic state is 1-A.
 Alpha  occ. eigenvalues --  -19.15237 -19.14327 -10.27419 -10.24257 -10.24244
 Alpha  occ. eigenvalues --  -10.18950 -10.18744 -10.18334 -10.18243  -1.05518
 Alpha  occ. eigenvalues --   -1.04332  -0.84319  -0.74791  -0.71425  -0.68636
 Alpha  occ. eigenvalues --   -0.58943  -0.57659  -0.53955  -0.51730  -0.50626
 Alpha  occ. eigenvalues --   -0.47447  -0.46140  -0.43979  -0.41576  -0.40113
 Alpha  occ. eigenvalues --   -0.38793  -0.38232  -0.37195  -0.35913  -0.35178
 Alpha  occ. eigenvalues --   -0.32339  -0.26618  -0.25575  -0.24661
 Alpha virt. eigenvalues --   -0.02683   0.02223   0.07931   0.10233   0.11601
 Alpha virt. eigenvalues --    0.13599   0.14266   0.14890   0.15670   0.16508
 Alpha virt. eigenvalues --    0.17203   0.17921   0.18587   0.19221   0.21152

 Mulliken charges:
               1
     1  O   -0.238631
     2  C    0.140330
     3  C   -0.154598
     4  O   -0.261916
     5  C    0.136192
     6  C   -0.275691
     7  C   -0.054836
     8  C   -0.054195
     9  C   -0.275253
    10  H    0.096630
    11  H    0.119595
    12  H    0.122076
    13  H    0.066061
    14  H    0.120743
    15  H    0.107574
    16  H    0.093784
    17  H    0.093828
    18  H    0.110500
    19  H    0.107808
 Sum of Mulliken charges =   0.00000

 Dipole moment (field-independent basis, Debye):
    X=             -2.7610    Y=              0.0409    Z=              0.9535  Tot=              2.9213
 Quadrupole moment (field-independent basis, Debye-Ang):
   XX=            -65.7530   YY=            -50.9576   ZZ=            -51.8454
   XY=             -1.2262   XZ=              1.3808   YZ=             -0.1333

  Exact polarizability:  91.539   4.138  78.510   4.390   1.803  63.444
 Approx polarizability: 116.718  10.513 125.760   5.173   3.456  95.483

                      1                      2                      3
                      A                      A                      A
 Frequencies --     47.6590                59.3799                68.7582
 Red. masses --      4.7028                 2.3716                 2.6394
 Frc consts  --      0.0063                 0.0049                 0.0074
 IR Inten    --      2.7915                 6.3210                 0.7266

                      4                      5                      6
                      A                      A                      A
 Frequencies --    127.5346               161.8761               310.5494
 Red. masses --      2.9459                 3.5914                 4.1696
 Frc consts  --      0.0282                 0.0554                 0.2369
 IR Inten    --      4.9314                 3.6201                 0.8920

                      7                      8                      9
                      A                      A                      A
 Frequencies --    346.9953               388.2730               457.8091
 Red. masses --      3.4718                 2.0049                 2.6988
 Frc consts  --      0.2463                 0.1781                 0.3333
 IR Inten    --      4.7210                 4.9084                 5.3428

                     10                     11                     12
                      A                      A                      A
 Frequencies --    555.3195               696.7544               736.2176
 Red. masses --      4.2092                 1.2218                 1.6562
 Frc consts  --      0.7648                 0.3495                 0.5289
 IR Inten    --      7.4386                24.7050                 0.5485

                     13                     14                     15
                      A                      A                      A
 Frequencies --    752.7785               791.1856               855.3970
 Red. masses --      2.3848                 5.7700                 2.7330
 Frc consts  --      0.7962                 2.1281                 1.1782
 IR Inten    --      0.9403                 1.9611                24.8559

                     16                     17                     18
                      A                      A                      A
 Frequencies --    887.8822               951.9874               957.2010
 Red. masses --      1.7738                 1.9207                 2.9109
 Frc consts  --      0.8239                 1.0256                 1.5714
 IR Inten    --      6.7332                 7.1678                22.0595

                     19                     20                     21
                      A                      A                      A
 Frequencies --    977.0406               984.8574              1033.4139
 Red. masses --      1.2761                 2.4823                 2.9035
 Frc consts  --      0.7177                 1.4186                 1.8269
 IR Inten    --      0.0680                 0.8954                31.7382

                     22                     23                     24
                      A                      A                      A
 Frequencies --   1053.8001              1086.2601              1115.1827
 Red. masses --      2.0687                 2.4567                 1.8156
 Frc consts  --      1.3535                 1.7080                 1.3303
 IR Inten    --      2.0203                 3.9169                 2.5912

                     25                     26                     27
                      A                      A                      A
 Frequencies --   1130.9469              1150.3500              1175.8334
 Red. masses --      1.1063                 4.5704                 1.1328
 Frc consts  --      0.8337                 3.5634                 0.9228
 IR Inten    --      0.9248               152.5835                 7.0134

                     28                     29                     30
                      A                      A                      A
 Frequencies --   1231.2244              1238.2181              1256.4866
 Red. masses --      1.4128                 1.1612                 1.6540
 Frc consts  --      1.2619                 1.0489                 1.5385
 IR Inten    --     44.0050                 3.4677                10.6226

                     31                     32                     33
                      A                      A                      A
 Frequencies --   1312.5712              1326.9853              1344.2199
 Red. masses --      1.3249                 1.5341                 1.3005
 Frc consts  --      1.3449                 1.5916                 1.3846
 IR Inten    --      1.6623                 1.0804                31.7963

                     34                     35                     36
                      A                      A                      A
 Frequencies --   1382.6481              1391.5700              1416.1179
 Red. masses --      1.6922                 1.2390                 1.3374
 Frc consts  --      1.9060                 1.4136                 1.5802
 IR Inten    --      0.8434                27.0683                 5.5909

                     37                     38                     39
                      A                      A                      A
 Frequencies --   1466.0486              1474.9148              1486.4188
 Red. masses --      1.0868                 1.1007                 1.1029
 Frc consts  --      1.3763                 1.4108                 1.4357
 IR Inten    --      3.5631                 4.0216                12.0712

                     40                     41                     42
                      A                      A                      A
 Frequencies --   1691.4595              1844.5173              2900.2202
 Red. masses --      6.0779                10.6738                 1.0845
 Frc consts  --     10.2453                21.3962                 5.3748
 IR Inten    --      2.1951               171.7553                77.7808

                     43                     44                     45
                      A                      A                      A
 Frequencies --   2957.3868              2993.8855              2998.8109
 Red. masses --      1.0603                 1.0915                 1.0859
 Frc consts  --      5.4641                 5.7642                 5.7537
 IR Inten    --     35.2425                38.9798                 7.5665

                     46                     47                     48
                      A                      A                      A
 Frequencies --   3019.7654              3028.1795              3060.1677
 Red. masses --      1.0665                 1.0693                 1.0955
 Frc consts  --      5.7302                 5.7769                 6.0444
 IR Inten    --     45.7963                44.5310                25.8660

                     49                     50                     51
                      A                      A                      A
 Frequencies --   3074.4275              3185.8257              3211.0597
 Red. masses --      1.0955                 1.0844                 1.1043
 Frc consts  --      6.1009                 6.4847                 6.7088
 IR Inten    --     14.6127                 5.1524                23.1289

 - Thermochemistry -
 -------------------
 Temperature   298.150 Kelvin.  Pressure   1.00000 Atm.
 Atom     1 has atomic number  8 and mass  15.99491

 Molecular mass:   126.06808 amu.
 Principal axes and moments of inertia in atomic units:
                           1         2         3
     Eigenvalues --   381.469322424.415522555.59462
           X            0.99999   0.00017   0.00409
           Y           -0.00027   0.99970   0.02429
           Z           -0.00408  -0.02429   0.99970
 This molecule is an asymmetric top.
 Rotational symmetry number  1.
 Rotational temperatures (Kelvin)      0.22705     0.03573     0.03389
 Rotational constants (GHZ):           4.73103     0.74440     0.70619
 Zero-point vibrational energy     413635.0 (Joules/Mol)
                                   98.86114 (Kcal/Mol)
 Warning -- explicit consideration of  10 degrees of freedom as
           vibrations may cause significant error
 Vibrational temperatures:     68.57    85.43    98.93   183.49   232.90
          (Kelvin)            446.81   499.25   558.64   658.68   798.98
                             1002.47  1059.25  1083.08  1138.34  1230.72
                             1277.46  1369.70  1377.20  1405.74  1416.99
                             1486.85  1516.18  1562.88  1604.50  1627.18
                             1655.10  1691.76  1771.46  1781.52  1807.80
                             1888.49  1909.23  1934.03  1989.32  2002.16
                             2037.48  2109.31  2122.07  2138.62  2433.63
                             2653.85  4172.76  4255.01  4307.53  4314.61
                             4344.76  4356.87  4402.89  4423.41  4583.69
                             4619.99

 Zero-point correction=                           0.157545 (Hartree/Particle)
 Thermal correction to Energy=                    0.166634
 Thermal correction to Enthalpy=                  0.167578
 Thermal correction to Gibbs Free Energy=         0.121923
 Sum of electronic and zero-point Energies=           -423.032858
 Sum of electronic and thermal Energies=              -423.023770
 Sum of electronic and thermal Enthalpies=            -423.022825
 Sum of electronic and thermal Free Energies=         -423.068481

                     E (Thermal)             CV                S
                      KCal/Mol        Cal/Mol-Kelvin    Cal/Mol-Kelvin
 Total                  104.564             32.139             96.090
 Electronic               0.000              0.000              0.000
 Translational            0.889              2.981             40.409
 Rotational               0.889              2.981             29.248
 Vibrational            102.787             26.177             26.433
 Vibration     1          0.595              1.978              4.912
 Vibration     2          0.597              1.974              4.478
 Vibration     3          0.598              1.969              4.189
 Vibration     4          0.611              1.926              2.983
 Vibration     5          0.622              1.889              2.528
 Vibration     6          0.699              1.654              1.359
 Vibration     7          0.725              1.581              1.180
 Vibration     8          0.756              1.495              1.007
 Vibration     9          0.816              1.344              0.773
 Vibration    10          0.911              1.128              0.533

 Optimization completed.
    -- Stationary point found.
 Normal termination of Gaussian 09 at Mon Jan 27 14:31:59 2020.
