 Gaussian 09, Revision D.01,
 Gaussian 09:  ES64L-G09RevD.01 24-Apr-2013

 -----------------------------
 # b3lyp 6-31G(2df,p) opt Freq
 -----------------------------

 -----
 titel
 -----
 Symbolic Z-matrix:
 Charge =  0 Multiplicity = 1

 SCF Done:  E(RB3LYP) =  -423.127023228     A.U. after   13 cycles
 Optimization completed.
    -- Stationary point found.
 Normal termination of Gaussian 09 at Tue Jan 28 02:17:00 2020.

 ----------------------------------------------------------------------
 #N Geom=AllCheck Guess=TCheck SCRF=Check GenChk RB3LYP/6-31G(2df,p) Fr
 eq
 ----------------------------------------------------------------------

 Structure from the checkpoint file:  "/scratch/puck/g09_3670d22c-611b-4c28-8439-ba49c783c223/Gau-86037.chk"
 -----
 titel
 -----
 Charge =  0 Multiplicity = 1

                         Standard orientation:
 ---------------------------------------------------------------------
 Center     Atomic      Atomic             Coordinates (Angstroms)
 Number     Number       Type             X           Y           Z
 ---------------------------------------------------------------------
      1          8           0        3.003097   -0.880050    0.074893
      2          6           0        1.914507   -0.067114    0.402749
      3          6           0        1.636060    1.174012   -0.404308
      4          6           0        0.778915   -0.064749   -0.581239
      5          6           0       -0.619549   -0.091067   -0.100159
      6          6           0       -1.571435   -1.299547    0.011051
      7          6           0       -2.777606   -0.309911   -0.158929
      8          6           0       -1.761925    0.834876   -0.252536
      9          8           0       -0.989127    0.807388    0.958689
     10          1           0        3.801751   -0.447234    0.394897
     11          1           0        1.649427   -0.040938    1.459013
     12          1           0        1.191688    2.020245    0.106433
     13          1           0        2.326787    1.408132   -1.206431
     14          1           0        0.963597   -0.648710   -1.477921
     15          1           0       -1.480973   -1.997300   -0.825048
     16          1           0       -1.507915   -1.848951    0.953050
     17          1           0       -3.328726   -0.474681   -1.087821
     18          1           0       -3.479888   -0.238399    0.674863
     19          1           0       -1.841322    1.790134   -0.759458
 ---------------------------------------------------------------------

 SCF Done:  E(RB3LYP) =  -423.127023228     A.U. after    1 cycles

 The electronic state is 1-A.
 Alpha  occ. eigenvalues --  -19.14564 -19.14138 -10.23735 -10.23377 -10.23004
 Alpha  occ. eigenvalues --  -10.19314 -10.18697 -10.18522 -10.18242  -1.07151
 Alpha  occ. eigenvalues --   -1.02634  -0.84866  -0.79625  -0.67911  -0.63782
 Alpha  occ. eigenvalues --   -0.60441  -0.58511  -0.54670  -0.52974  -0.49956
 Alpha  occ. eigenvalues --   -0.46049  -0.45185  -0.43344  -0.42345  -0.39050
 Alpha  occ. eigenvalues --   -0.37492  -0.35962  -0.34495  -0.33878  -0.31837
 Alpha  occ. eigenvalues --   -0.30856  -0.27615  -0.25762  -0.23999
 Alpha virt. eigenvalues --    0.07919   0.09485   0.10117   0.11821   0.12080
 Alpha virt. eigenvalues --    0.12893   0.13844   0.14209   0.14929   0.17443
 Alpha virt. eigenvalues --    0.17883   0.18634   0.18734   0.20413   0.23073

 Mulliken charges:
               1
     1  O   -0.426932
     2  C    0.102957
     3  C   -0.332298
     4  C   -0.169963
     5  C    0.438836
     6  C   -0.293857
     7  C   -0.237605
     8  C   -0.045620
     9  O   -0.291563
    10  H    0.287562
    11  H    0.101244
    12  H    0.127059
    13  H    0.110664
    14  H    0.098130
    15  H    0.107075
    16  H    0.109291
    17  H    0.105137
    18  H    0.110883
    19  H    0.098999
 Sum of Mulliken charges =   0.00000

 Dipole moment (field-independent basis, Debye):
    X=              0.2154    Y=              0.4976    Z=             -0.9490  Tot=              1.0930
 Quadrupole moment (field-independent basis, Debye-Ang):
   XX=            -46.4053   YY=            -54.3212   ZZ=            -53.2096
   XY=              3.6982   XZ=              3.6949   YZ=             -1.4042

  Exact polarizability:  94.611   0.792  72.138   1.722  -1.085  62.234
 Approx polarizability: 119.025  -2.955 109.063   4.140   2.167 100.246

                      1                      2                      3
                      A                      A                      A
 Frequencies --     63.7739               118.8797               164.8538
 Red. masses --      3.8361                 3.4406                 3.2827
 Frc consts  --      0.0092                 0.0286                 0.0526
 IR Inten    --      2.2542                 0.5718                 5.6498

                      4                      5                      6
                      A                      A                      A
 Frequencies --    250.0286               298.2443               329.7960
 Red. masses --      1.9675                 1.4217                 2.5318
 Frc consts  --      0.0725                 0.0745                 0.1622
 IR Inten    --      8.6266                69.1029                21.5787

                      7                      8                      9
                      A                      A                      A
 Frequencies --    364.1271               417.9961               472.8074
 Red. masses --      3.2813                 2.9099                 2.4054
 Frc consts  --      0.2563                 0.2996                 0.3168
 IR Inten    --      7.9814                12.9717                 0.2900

                     10                     11                     12
                      A                      A                      A
 Frequencies --    506.7500               686.4350               736.0166
 Red. masses --      3.4907                 2.6011                 4.7865
 Frc consts  --      0.5281                 0.7221                 1.5277
 IR Inten    --      7.6830                10.6150                 0.7634

                     13                     14                     15
                      A                      A                      A
 Frequencies --    772.8472               823.0643               872.9082
 Red. masses --      1.3704                 2.1172                 2.4256
 Frc consts  --      0.4823                 0.8451                 1.0889
 IR Inten    --      1.3906                 5.0400                12.0754

                     16                     17                     18
                      A                      A                      A
 Frequencies --    889.9343               918.9194               921.9678
 Red. masses --      2.5527                 2.2714                 2.7076
 Frc consts  --      1.1911                 1.1301                 1.3560
 IR Inten    --      7.6384                 1.2632                37.3277

                     19                     20                     21
                      A                      A                      A
 Frequencies --    937.7482               957.5807               985.4250
 Red. masses --      2.4408                 2.2914                 2.2690
 Frc consts  --      1.2646                 1.2379                 1.2982
 IR Inten    --      7.4907                 5.4316                 9.0536

                     22                     23                     24
                      A                      A                      A
 Frequencies --   1030.9982              1047.3427              1070.4628
 Red. masses --      1.7417                 1.6211                 1.6280
 Frc consts  --      1.0908                 1.0477                 1.0991
 IR Inten    --      7.2510                11.0070                 2.9320

                     25                     26                     27
                      A                      A                      A
 Frequencies --   1103.3783              1118.0673              1136.7884
 Red. masses --      1.1668                 1.5221                 1.7835
 Frc consts  --      0.8370                 1.1211                 1.3579
 IR Inten    --      0.6671                12.2173                11.0696

                     28                     29                     30
                      A                      A                      A
 Frequencies --   1164.5565              1182.6472              1211.3557
 Red. masses --      1.9731                 2.3104                 1.1767
 Frc consts  --      1.5766                 1.9039                 1.0173
 IR Inten    --     13.5803                23.1624                 0.1403

                     31                     32                     33
                      A                      A                      A
 Frequencies --   1215.5486              1220.8492              1253.4937
 Red. masses --      1.8094                 1.5152                 1.3437
 Frc consts  --      1.5751                 1.3306                 1.2440
 IR Inten    --     42.4735                17.5584                 9.3375

                     34                     35                     36
                      A                      A                      A
 Frequencies --   1272.7252              1294.1795              1356.4772
 Red. masses --      1.6622                 1.2095                 1.5649
 Frc consts  --      1.5864                 1.1936                 1.6965
 IR Inten    --      1.1864                56.4656                 2.5455

                     37                     38                     39
                      A                      A                      A
 Frequencies --   1416.6358              1457.5369              1464.5538
 Red. masses --      1.3906                 1.7619                 1.1073
 Frc consts  --      1.6442                 2.2053                 1.3993
 IR Inten    --      8.8252                 8.7267                 0.4446

                     40                     41                     42
                      A                      A                      A
 Frequencies --   1483.8873              1507.1005              3063.5337
 Red. masses --      1.3366                 2.5924                 1.0563
 Frc consts  --      1.7340                 3.4693                 5.8410
 IR Inten    --      7.8510                26.4117                33.5462

                     43                     44                     45
                      A                      A                      A
 Frequencies --   3070.8148              3112.9659              3114.6576
 Red. masses --      1.0594                 1.0881                 1.1084
 Frc consts  --      5.8858                 6.2127                 6.3354
 IR Inten    --     33.7081                19.4665                 0.6386

                     46                     47                     48
                      A                      A                      A
 Frequencies --   3130.7864              3139.9349              3160.6335
 Red. masses --      1.1081                 1.0535                 1.0876
 Frc consts  --      6.3992                 6.1194                 6.4014
 IR Inten    --     33.8320                 7.8480                 6.1823

                     49                     50                     51
                      A                      A                      A
 Frequencies --   3181.6943              3236.7272              3802.4673
 Red. masses --      1.0939                 1.1176                 1.0661
 Frc consts  --      6.5242                 6.8981                 9.0821
 IR Inten    --     19.2130                 4.3294                21.1798

 - Thermochemistry -
 -------------------
 Temperature   298.150 Kelvin.  Pressure   1.00000 Atm.
 Atom     1 has atomic number  8 and mass  15.99491

 Molecular mass:   126.06808 amu.
 Principal axes and moments of inertia in atomic units:
                           1         2         3
     Eigenvalues --   430.697101776.978221967.26119
           X            0.99976   0.02162   0.00462
           Y           -0.02145   0.99919  -0.03402
           Z           -0.00535   0.03391   0.99941
 This molecule is an asymmetric top.
 Rotational symmetry number  1.
 Rotational temperatures (Kelvin)      0.20110     0.04874     0.04403
 Rotational constants (GHZ):           4.19028     1.01562     0.91739
 Zero-point vibrational energy     415779.5 (Joules/Mol)
                                   99.37368 (Kcal/Mol)
 Warning -- explicit consideration of  10 degrees of freedom as
           vibrations may cause significant error
 Vibrational temperatures:     91.76   171.04   237.19   359.73   429.11
          (Kelvin)            474.50   523.90   601.40   680.26   729.10
                              987.63  1058.96  1111.95  1184.20  1255.92
                             1280.42  1322.12  1326.50  1349.21  1377.74
                             1417.80  1483.37  1506.89  1540.16  1587.51
                             1608.65  1635.58  1675.53  1701.56  1742.87
                             1748.90  1756.53  1803.50  1831.17  1862.03
                             1951.67  2038.22  2097.07  2107.16  2134.98
                             2168.38  4407.74  4418.21  4478.86  4481.29
                             4504.50  4517.66  4547.44  4577.74  4656.92
                             5470.90

 Zero-point correction=                           0.158362 (Hartree/Particle)
 Thermal correction to Energy=                    0.166754
 Thermal correction to Enthalpy=                  0.167698
 Thermal correction to Gibbs Free Energy=         0.125107
 Sum of electronic and zero-point Energies=           -422.968661
 Sum of electronic and thermal Energies=              -422.960269
 Sum of electronic and thermal Enthalpies=            -422.959325
 Sum of electronic and thermal Free Energies=         -423.001916

                     E (Thermal)             CV                S
                      KCal/Mol        Cal/Mol-Kelvin    Cal/Mol-Kelvin
 Total                  104.640             32.359             89.641
 Electronic               0.000              0.000              0.000
 Translational            0.889              2.981             40.409
 Rotational               0.889              2.981             28.800
 Vibrational            102.862             26.398             20.432
 Vibration     1          0.597              1.972              4.337
 Vibration     2          0.609              1.934              3.119
 Vibration     3          0.623              1.886              2.493
 Vibration     4          0.663              1.763              1.730
 Vibration     5          0.691              1.677              1.427
 Vibration     6          0.713              1.616              1.261
 Vibration     7          0.738              1.546              1.104
 Vibration     8          0.781              1.431              0.899
 Vibration     9          0.830              1.310              0.730
 Vibration    10          0.862              1.235              0.641

 Optimization completed.
    -- Stationary point found.
 Normal termination of Gaussian 09 at Tue Jan 28 02:57:02 2020.
