 Gaussian 09, Revision D.01,
 Gaussian 09:  ES64L-G09RevD.01 24-Apr-2013

 -----------------------------
 # b3lyp 6-31G(2df,p) opt Freq
 -----------------------------

 -----
 titel
 -----
 Symbolic Z-matrix:
 Charge =  0 Multiplicity = 1

 SCF Done:  E(RB3LYP) =  -423.157290328     A.U. after   13 cycles
 Optimization completed.
    -- Stationary point found.
 Normal termination of Gaussian 09 at Tue Jan 28 00:03:28 2020.

 ----------------------------------------------------------------------
 #N Geom=AllCheck Guess=TCheck SCRF=Check GenChk RB3LYP/6-31G(2df,p) Fr
 eq
 ----------------------------------------------------------------------

 Structure from the checkpoint file:  "/scratch/puck/g09_27e52b07-cf2b-473f-b313-3c7abc8d13f9/Gau-31929.chk"
 -----
 titel
 -----
 Charge =  0 Multiplicity = 1

                         Standard orientation:
 ---------------------------------------------------------------------
 Center     Atomic      Atomic             Coordinates (Angstroms)
 Number     Number       Type             X           Y           Z
 ---------------------------------------------------------------------
      1          8           0       -2.255256   -0.068800   -0.472946
      2          6           0       -1.206424   -0.792961    0.111714
      3          6           0       -0.300762   -0.135349    1.209516
      4          6           0       -0.099415    1.326754    0.826060
      5          8           0        0.161904    1.403954   -0.586094
      6          6           0        0.866445    0.245566   -1.036395
      7          6           0        1.984639   -0.163103   -0.041797
      8          6           0        0.905949   -1.000710    0.671906
      9          6           0        0.086892   -1.077501   -0.662629
     10          1           0       -1.849946    0.696360   -0.900976
     11          1           0       -1.638813   -1.728325    0.480205
     12          1           0       -0.585280   -0.245001    2.257837
     13          1           0       -1.005376    1.913097    1.006201
     14          1           0        0.722163    1.785531    1.392334
     15          1           0        1.117821    0.424331   -2.082271
     16          1           0        2.718660   -0.813931   -0.525952
     17          1           0        2.512271    0.634723    0.488609
     18          1           0        1.171349   -1.871794    1.270622
     19          1           0        0.160014   -1.892391   -1.384536
 ---------------------------------------------------------------------

 SCF Done:  E(RB3LYP) =  -423.157290328     A.U. after    1 cycles

 The electronic state is 1-A.
 Alpha  occ. eigenvalues --  -19.14878 -19.12663 -10.23927 -10.23070 -10.22829
 Alpha  occ. eigenvalues --  -10.19487 -10.18943 -10.18582 -10.18424  -1.04543
 Alpha  occ. eigenvalues --   -1.00837  -0.86892  -0.77272  -0.70880  -0.62485
 Alpha  occ. eigenvalues --   -0.62153  -0.60806  -0.53453  -0.51598  -0.48752
 Alpha  occ. eigenvalues --   -0.47310  -0.45900  -0.42282  -0.40098  -0.39626
 Alpha  occ. eigenvalues --   -0.38480  -0.38145  -0.36473  -0.35686  -0.30201
 Alpha  occ. eigenvalues --   -0.29667  -0.28014  -0.25435  -0.24351
 Alpha virt. eigenvalues --    0.07295   0.09100   0.10384   0.12985   0.13094
 Alpha virt. eigenvalues --    0.13555   0.14301   0.15399   0.16875   0.17853
 Alpha virt. eigenvalues --    0.18543   0.18736   0.19601   0.20329   0.21081

 Mulliken charges:
               1
     1  O   -0.450402
     2  C    0.179421
     3  C   -0.120119
     4  C   -0.103819
     5  O   -0.291709
     6  C    0.102415
     7  C   -0.259516
     8  C   -0.039608
     9  C   -0.106461
    10  H    0.291293
    11  H    0.086600
    12  H    0.070220
    13  H    0.116682
    14  H    0.103125
    15  H    0.084099
    16  H    0.104928
    17  H    0.101389
    18  H    0.067727
    19  H    0.063734
 Sum of Mulliken charges =   0.00000

 Dipole moment (field-independent basis, Debye):
    X=              1.8907    Y=             -0.5755    Z=              0.7500  Tot=              2.1138
 Quadrupole moment (field-independent basis, Debye-Ang):
   XX=            -57.7857   YY=            -52.7827   ZZ=            -50.8164
   XY=             -1.5593   XZ=             -1.4942   YZ=              1.0872

  Exact polarizability:  76.623  -0.860  71.192  -1.725   1.949  70.581
 Approx polarizability: 109.335  -1.644 106.574  -0.160   0.507 107.981

                      1                      2                      3
                      A                      A                      A
 Frequencies --    199.6618               261.1214               327.8379
 Red. masses --      5.1543                 4.0816                 2.3893
 Frc consts  --      0.1211                 0.1640                 0.1513
 IR Inten    --      4.0095                 1.2893                 8.6468

                      4                      5                      6
                      A                      A                      A
 Frequencies --    422.8540               438.7648               509.5232
 Red. masses --      3.1541                 2.3593                 3.4377
 Frc consts  --      0.3323                 0.2676                 0.5258
 IR Inten    --      0.4695                 2.1302                 3.5298

                      7                      8                      9
                      A                      A                      A
 Frequencies --    569.8068               600.4268               619.4776
 Red. masses --      1.1565                 4.3783                 4.6124
 Frc consts  --      0.2212                 0.9300                 1.0429
 IR Inten    --     59.7201                 6.0309                 3.0976

                     10                     11                     12
                      A                      A                      A
 Frequencies --    710.4216               760.1892               803.8217
 Red. masses --      3.7081                 2.4828                 2.2250
 Frc consts  --      1.1027                 0.8453                 0.8470
 IR Inten    --      8.8050                 5.0221                 3.6140

                     13                     14                     15
                      A                      A                      A
 Frequencies --    825.4037               838.8406               858.5251
 Red. masses --      2.4379                 2.6820                 2.6849
 Frc consts  --      0.9786                 1.1119                 1.1660
 IR Inten    --      3.0046                 6.5320                10.6746

                     16                     17                     18
                      A                      A                      A
 Frequencies --    938.2953               950.0720               985.5660
 Red. masses --      2.2771                 2.0112                 2.0947
 Frc consts  --      1.1812                 1.0696                 1.1988
 IR Inten    --     19.3710                 2.3219                 4.2939

                     19                     20                     21
                      A                      A                      A
 Frequencies --    997.3311              1012.0791              1034.7282
 Red. masses --      1.6378                 2.6499                 1.8014
 Frc consts  --      0.9598                 1.5992                 1.1363
 IR Inten    --     18.5750                 7.0572                38.3811

                     22                     23                     24
                      A                      A                      A
 Frequencies --   1053.3801              1086.4466              1108.9157
 Red. masses --      1.9518                 2.0777                 1.8304
 Frc consts  --      1.2760                 1.4449                 1.3262
 IR Inten    --     11.4014                12.9606                17.9214

                     25                     26                     27
                      A                      A                      A
 Frequencies --   1132.1626              1138.4388              1183.8671
 Red. masses --      2.4842                 2.0709                 1.6981
 Frc consts  --      1.8761                 1.5814                 1.4023
 IR Inten    --     97.8636                29.0161                12.3494

                     28                     29                     30
                      A                      A                      A
 Frequencies --   1194.6043              1228.5025              1233.7341
 Red. masses --      1.4710                 1.5713                 1.6245
 Frc consts  --      1.2368                 1.3972                 1.4569
 IR Inten    --     15.2357                 5.7021                14.4296

                     31                     32                     33
                      A                      A                      A
 Frequencies --   1256.0022              1271.7394              1291.3437
 Red. masses --      1.2595                 1.4130                 1.5346
 Frc consts  --      1.1707                 1.3464                 1.5077
 IR Inten    --      2.2234                16.3179                 0.8808

                     34                     35                     36
                      A                      A                      A
 Frequencies --   1305.7532              1307.8041              1337.7462
 Red. masses --      1.5498                 1.5649                 1.5884
 Frc consts  --      1.5569                 1.5769                 1.6747
 IR Inten    --      3.2195                 1.9072                 8.7758

                     37                     38                     39
                      A                      A                      A
 Frequencies --   1354.7855              1404.9692              1451.3968
 Red. masses --      1.3433                 1.4089                 1.2431
 Frc consts  --      1.4526                 1.6385                 1.5429
 IR Inten    --      5.7216                 3.4279                97.3662

                     40                     41                     42
                      A                      A                      A
 Frequencies --   1481.9120              1517.6198              3011.9761
 Red. masses --      1.1170                 1.0860                 1.0674
 Frc consts  --      1.4453                 1.4737                 5.7054
 IR Inten    --      0.7721                 3.1703                46.4378

                     43                     44                     45
                      A                      A                      A
 Frequencies --   3051.6457              3064.1371              3081.1593
 Red. masses --      1.0574                 1.0864                 1.0968
 Frc consts  --      5.8018                 6.0100                 6.1349
 IR Inten    --     39.1116                25.6130                19.5759

                     46                     47                     48
                      A                      A                      A
 Frequencies --   3091.0208              3094.9393              3102.4211
 Red. masses --      1.0883                 1.0886                 1.1071
 Frc consts  --      6.1266                 6.1437                 6.2782
 IR Inten    --     33.1968                37.6786                11.4012

                     49                     50                     51
                      A                      A                      A
 Frequencies --   3108.3674              3114.4045              3767.2375
 Red. masses --      1.0889                 1.0923                 1.0652
 Frc consts  --      6.1989                 6.2425                 8.9068
 IR Inten    --     84.5588                32.3067                37.6757

 - Thermochemistry -
 -------------------
 Temperature   298.150 Kelvin.  Pressure   1.00000 Atm.
 Atom     1 has atomic number  8 and mass  15.99491

 Molecular mass:   126.06808 amu.
 Principal axes and moments of inertia in atomic units:
                           1         2         3
     Eigenvalues --   651.43540 953.693651062.92642
           X            0.99973  -0.01726  -0.01533
           Y            0.01845   0.99652   0.08129
           Z            0.01387  -0.08155   0.99657
 This molecule is an asymmetric top.
 Rotational symmetry number  1.
 Warning -- assumption of classical behavior for rotation
           may cause significant error
 Rotational temperatures (Kelvin)      0.13296     0.09082     0.08149
 Rotational constants (GHZ):           2.77041     1.89237     1.69790
 Zero-point vibrational energy     427624.2 (Joules/Mol)
                                  102.20463 (Kcal/Mol)
 Warning -- explicit consideration of   9 degrees of freedom as
           vibrations may cause significant error
 Vibrational temperatures:    287.27   375.70   471.68   608.39   631.28
          (Kelvin)            733.09   819.82   863.88   891.29  1022.14
                             1093.74  1156.52  1187.57  1206.90  1235.22
                             1350.00  1366.94  1418.01  1434.94  1456.15
                             1488.74  1515.58  1563.15  1595.48  1628.93
                             1637.96  1703.32  1718.77  1767.54  1775.07
                             1807.10  1829.75  1857.95  1878.69  1881.64
                             1924.72  1949.23  2021.43  2088.23  2132.14
                             2183.51  4333.56  4390.63  4408.60  4433.10
                             4447.28  4452.92  4463.69  4472.24  4480.93
                             5420.21

 Zero-point correction=                           0.162873 (Hartree/Particle)
 Thermal correction to Energy=                    0.169393
 Thermal correction to Enthalpy=                  0.170337
 Thermal correction to Gibbs Free Energy=         0.132444
 Sum of electronic and zero-point Energies=           -422.994417
 Sum of electronic and thermal Energies=              -422.987897
 Sum of electronic and thermal Enthalpies=            -422.986953
 Sum of electronic and thermal Free Energies=         -423.024846

                     E (Thermal)             CV                S
                      KCal/Mol        Cal/Mol-Kelvin    Cal/Mol-Kelvin
 Total                  106.296             28.170             79.753
 Electronic               0.000              0.000              0.000
 Translational            0.889              2.981             40.409
 Rotational               0.889              2.981             27.981
 Vibrational            104.518             22.208             11.363
 Vibration     1          0.638              1.840              2.136
 Vibration     2          0.669              1.744              1.654
 Vibration     3          0.711              1.620              1.271
 Vibration     4          0.785              1.421              0.882
 Vibration     5          0.799              1.386              0.830
 Vibration     6          0.865              1.229              0.635
 Vibration     7          0.926              1.097              0.505
 Vibration     8          0.959              1.031              0.449
 Vibration     9          0.979              0.991              0.417

 Optimization completed.
    -- Stationary point found.
 Normal termination of Gaussian 09 at Tue Jan 28 00:55:45 2020.
