 Gaussian 09, Revision D.01,
 Gaussian 09:  ES64L-G09RevD.01 24-Apr-2013

 -----------------------------
 # b3lyp 6-31G(2df,p) opt Freq
 -----------------------------

 -----
 titel
 -----
 Symbolic Z-matrix:
 Charge =  0 Multiplicity = 1

 SCF Done:  E(RB3LYP) =  -423.159263634     A.U. after   13 cycles
 Optimization completed.
    -- Stationary point found.
 Normal termination of Gaussian 09 at Mon Jan 27 17:26:22 2020.

 ----------------------------------------------------------------------
 #N Geom=AllCheck Guess=TCheck SCRF=Check GenChk RB3LYP/6-31G(2df,p) Fr
 eq
 ----------------------------------------------------------------------

 Structure from the checkpoint file:  "/scratch/puck/g09_7fa417f2-9179-404e-8a60-c1891ec2bcc9/Gau-39859.chk"
 -----
 titel
 -----
 Charge =  0 Multiplicity = 1

                         Standard orientation:
 ---------------------------------------------------------------------
 Center     Atomic      Atomic             Coordinates (Angstroms)
 Number     Number       Type             X           Y           Z
 ---------------------------------------------------------------------
      1          6           0       -2.669205   -0.310602    0.646226
      2          6           0       -1.331153   -0.038074    0.020777
      3          6           0       -0.780614    1.377554   -0.071092
      4          8           0        0.601613    1.245353   -0.394423
      5          6           0        1.048437   -0.030416    0.010327
      6          6           0        2.417498   -0.434659   -0.421065
      7          6           0        2.142518   -0.138160    1.044008
      8          6           0       -0.154195   -0.914079    0.054508
      9          8           0       -0.964786   -0.819009   -1.128407
     10          1           0       -3.470318    0.167060    0.071459
     11          1           0       -2.866352   -1.384861    0.671212
     12          1           0       -2.710041    0.079204    1.668574
     13          1           0       -1.252905    1.973889   -0.858716
     14          1           0       -0.920841    1.891870    0.893255
     15          1           0        2.582472   -1.462239   -0.725715
     16          1           0        2.982368    0.302354   -0.980502
     17          1           0        2.124298   -0.963114    1.749463
     18          1           0        2.523001    0.796054    1.440890
     19          1           0       -0.126015   -1.880355    0.550591
 ---------------------------------------------------------------------

 SCF Done:  E(RB3LYP) =  -423.159263634     A.U. after    1 cycles

 The electronic state is 1-A.
 Alpha  occ. eigenvalues --  -19.14674 -19.14231 -10.24294 -10.24107 -10.23657
 Alpha  occ. eigenvalues --  -10.23135 -10.19054 -10.18600 -10.18572  -1.08257
 Alpha  occ. eigenvalues --   -1.02652  -0.85342  -0.76416  -0.69421  -0.68951
 Alpha  occ. eigenvalues --   -0.60610  -0.58247  -0.55904  -0.51271  -0.48822
 Alpha  occ. eigenvalues --   -0.46899  -0.45982  -0.42852  -0.42768  -0.41132
 Alpha  occ. eigenvalues --   -0.38499  -0.38116  -0.36988  -0.34726  -0.32803
 Alpha  occ. eigenvalues --   -0.30719  -0.29594  -0.25631  -0.23337
 Alpha virt. eigenvalues --    0.08858   0.09373   0.09870   0.11055   0.11742
 Alpha virt. eigenvalues --    0.13457   0.13557   0.14621   0.16145   0.17727
 Alpha virt. eigenvalues --    0.17922   0.18943   0.19925   0.20845   0.22084

 Mulliken charges:
               1
     1  C   -0.490786
     2  C    0.397142
     3  C   -0.148250
     4  O   -0.300460
     5  C    0.468198
     6  C   -0.327521
     7  C   -0.339675
     8  C   -0.153558
     9  O   -0.292748
    10  H    0.132295
    11  H    0.135337
    12  H    0.126099
    13  H    0.115915
    14  H    0.093578
    15  H    0.120081
    16  H    0.130074
    17  H    0.110673
    18  H    0.123805
    19  H    0.099801
 Sum of Mulliken charges =   0.00000

 Dipole moment (field-independent basis, Debye):
    X=             -0.6402    Y=             -0.3595    Z=              2.1971  Tot=              2.3165
 Quadrupole moment (field-independent basis, Debye-Ang):
   XX=            -49.9905   YY=            -52.0637   ZZ=            -55.1976
   XY=             -2.8788   XZ=             -1.6846   YZ=             -1.3202

  Exact polarizability:  91.946  -5.836  70.854  -0.316  -0.163  65.404
 Approx polarizability: 115.965  -8.637 105.159   2.059   1.372 104.187

                      1                      2                      3
                      A                      A                      A
 Frequencies --    104.5130               176.0088               184.8575
 Red. masses --      3.5004                 2.0017                 1.1551
 Frc consts  --      0.0225                 0.0365                 0.0233
 IR Inten    --      2.0602                 0.8535                 0.1691

                      4                      5                      6
                      A                      A                      A
 Frequencies --    226.9583               309.6385               336.2116
 Red. masses --      2.5280                 2.6009                 2.6533
 Frc consts  --      0.0767                 0.1469                 0.1767
 IR Inten    --      0.3847                 1.0137                 0.3526

                      7                      8                      9
                      A                      A                      A
 Frequencies --    383.7174               411.0889               481.2834
 Red. masses --      2.3829                 4.9287                 4.1331
 Frc consts  --      0.2067                 0.4907                 0.5641
 IR Inten    --      3.2830                 2.8427                 4.4298

                     10                     11                     12
                      A                      A                      A
 Frequencies --    574.0699               615.2330               741.1223
 Red. masses --      4.0900                 4.4148                 4.9967
 Frc consts  --      0.7942                 0.9846                 1.6170
 IR Inten    --      5.5101                 9.4448                 3.1389

                     13                     14                     15
                      A                      A                      A
 Frequencies --    764.4529               823.9654               869.9341
 Red. masses --      1.0687                 3.6225                 3.0674
 Frc consts  --      0.3680                 1.4490                 1.3677
 IR Inten    --      1.9693                21.5864                21.9917

                     16                     17                     18
                      A                      A                      A
 Frequencies --    886.3116               910.1573               915.9335
 Red. masses --      1.7894                 1.6832                 1.9351
 Frc consts  --      0.8282                 0.8215                 0.9565
 IR Inten    --      3.8811                 4.2344                13.9369

                     19                     20                     21
                      A                      A                      A
 Frequencies --    958.1387               980.9184               997.0564
 Red. masses --      3.1103                 2.9432                 1.6438
 Frc consts  --      1.6823                 1.6686                 0.9628
 IR Inten    --     13.8318                10.7054                 5.6286

                     22                     23                     24
                      A                      A                      A
 Frequencies --   1013.1191              1049.6896              1065.6293
 Red. masses --      1.8896                 1.6047                 1.7678
 Frc consts  --      1.1427                 1.0418                 1.1828
 IR Inten    --     17.4741                 1.3540                19.1322

                     25                     26                     27
                      A                      A                      A
 Frequencies --   1074.3490              1079.8278              1134.3665
 Red. masses --      1.4635                 4.3769                 1.9775
 Frc consts  --      0.9952                 3.0070                 1.4992
 IR Inten    --     10.6332                64.1041                 9.7093

                     28                     29                     30
                      A                      A                      A
 Frequencies --   1188.5387              1223.6217              1237.7369
 Red. masses --      1.2726                 1.8996                 1.2765
 Frc consts  --      1.0592                 1.6758                 1.1522
 IR Inten    --      0.0407                23.1725                15.2449

                     31                     32                     33
                      A                      A                      A
 Frequencies --   1258.0512              1286.9565              1354.6421
 Red. masses --      1.3143                 3.3459                 2.1934
 Frc consts  --      1.2255                 3.2650                 2.3715
 IR Inten    --      3.1254                41.8273                 4.6329

                     34                     35                     36
                      A                      A                      A
 Frequencies --   1396.6523              1411.9651              1451.5091
 Red. masses --      1.9127                 1.2909                 1.0906
 Frc consts  --      2.1983                 1.5163                 1.3538
 IR Inten    --      1.3330                 3.2972                 1.9055

                     37                     38                     39
                      A                      A                      A
 Frequencies --   1464.3019              1487.6759              1493.6614
 Red. masses --      1.9207                 1.1749                 1.1474
 Frc consts  --      2.4265                 1.5320                 1.5083
 IR Inten    --      5.5453                 9.6741                 4.6712

                     40                     41                     42
                      A                      A                      A
 Frequencies --   1504.4960              1507.4191              2978.5753
 Red. masses --      1.3737                 1.4136                 1.0692
 Frc consts  --      1.8321                 1.8926                 5.5887
 IR Inten    --      6.6222                 4.1143                64.0706

                     43                     44                     45
                      A                      A                      A
 Frequencies --   3037.2593              3071.8121              3099.1147
 Red. masses --      1.0367                 1.0935                 1.1003
 Frc consts  --      5.6345                 6.0791                 6.2262
 IR Inten    --     24.3049                27.9338                17.7383

                     46                     47                     48
                      A                      A                      A
 Frequencies --   3126.9312              3127.8576              3138.0451
 Red. masses --      1.1007                 1.0539                 1.0556
 Frc consts  --      6.3408                 6.0751                 6.1242
 IR Inten    --     11.7808                11.6449                 8.0736

                     49                     50                     51
                      A                      A                      A
 Frequencies --   3155.9132              3216.6038              3231.6495
 Red. masses --      1.0918                 1.1178                 1.1156
 Frc consts  --      6.4066                 6.8139                 6.8647
 IR Inten    --     14.0545                 0.9993                 8.4954

 - Thermochemistry -
 -------------------
 Temperature   298.150 Kelvin.  Pressure   1.00000 Atm.
 Atom     1 has atomic number  6 and mass  12.00000

 Molecular mass:   126.06808 amu.
 Principal axes and moments of inertia in atomic units:
                           1         2         3
     Eigenvalues --   512.806001375.404901497.62869
           X            0.99978  -0.01594  -0.01375
           Y            0.01530   0.99886  -0.04527
           Z            0.01445   0.04505   0.99888
 This molecule is an asymmetric top.
 Rotational symmetry number  1.
 Warning -- assumption of classical behavior for rotation
           may cause significant error
 Rotational temperatures (Kelvin)      0.16890     0.06297     0.05783
 Rotational constants (GHZ):           3.51934     1.31215     1.20507
 Zero-point vibrational energy     415819.2 (Joules/Mol)
                                   99.38317 (Kcal/Mol)
 Warning -- explicit consideration of  11 degrees of freedom as
           vibrations may cause significant error
 Vibrational temperatures:    150.37   253.24   265.97   326.54   445.50
          (Kelvin)            483.73   552.08   591.46   692.46   825.96
                              885.18  1066.31  1099.88  1185.50  1251.64
                             1275.20  1309.51  1317.82  1378.55  1411.32
                             1434.54  1457.65  1510.27  1533.20  1545.75
                             1553.63  1632.10  1710.04  1760.52  1780.83
                             1810.05  1851.64  1949.03  2009.47  2031.50
                             2088.40  2106.80  2140.43  2149.04  2164.63
                             2168.84  4285.50  4369.93  4419.65  4458.93
                             4498.95  4500.28  4514.94  4540.65  4627.97
                             4649.62

 Zero-point correction=                           0.158377 (Hartree/Particle)
 Thermal correction to Energy=                    0.166510
 Thermal correction to Enthalpy=                  0.167454
 Thermal correction to Gibbs Free Energy=         0.126000
 Sum of electronic and zero-point Energies=           -423.000886
 Sum of electronic and thermal Energies=              -422.992754
 Sum of electronic and thermal Enthalpies=            -422.991809
 Sum of electronic and thermal Free Energies=         -423.033264

                     E (Thermal)             CV                S
                      KCal/Mol        Cal/Mol-Kelvin    Cal/Mol-Kelvin
 Total                  104.487             31.903             87.248
 Electronic               0.000              0.000              0.000
 Translational            0.889              2.981             40.409
 Rotational               0.889              2.981             28.448
 Vibrational            102.709             25.941             18.392
 Vibration     1          0.605              1.946              3.368
 Vibration     2          0.628              1.872              2.370
 Vibration     3          0.631              1.861              2.279
 Vibration     4          0.651              1.800              1.903
 Vibration     5          0.699              1.655              1.364
 Vibration     6          0.717              1.603              1.230
 Vibration     7          0.753              1.505              1.024
 Vibration     8          0.775              1.446              0.923
 Vibration     9          0.838              1.292              0.707
 Vibration    10          0.930              1.087              0.496
 Vibration    11          0.975              1.000              0.424

 Normal termination of Gaussian 09 at Mon Jan 27 18:24:28 2020.
