 Gaussian 09, Revision D.01,
 Gaussian 09:  ES64L-G09RevD.01 24-Apr-2013

 -----------------------------
 # b3lyp 6-31G(2df,p) opt Freq
 -----------------------------

 -----
 titel
 -----
 Symbolic Z-matrix:
 Charge =  0 Multiplicity = 1

 SCF Done:  E(RB3LYP) =  -423.160371173     A.U. after   14 cycles
 Optimization completed.
    -- Stationary point found.
 Normal termination of Gaussian 09 at Tue Jan 28 13:48:43 2020.

 ----------------------------------------------------------------------
 #N Geom=AllCheck Guess=TCheck SCRF=Check GenChk RB3LYP/6-31G(2df,p) Fr
 eq
 ----------------------------------------------------------------------

 Structure from the checkpoint file:  "/scratch/puck/g09_f9842fae-fd26-4710-98ed-86f2440f4895/Gau-119803.chk"
 -----
 titel
 -----
 Charge =  0 Multiplicity = 1

                         Standard orientation:
 ---------------------------------------------------------------------
 Center     Atomic      Atomic             Coordinates (Angstroms)
 Number     Number       Type             X           Y           Z
 ---------------------------------------------------------------------
      1          6           0        2.444373    0.487993    0.385815
      2          8           0        1.693658   -0.686946    0.143235
      3          6           0        0.521938   -0.450175   -0.588198
      4          6           0       -0.307430   -1.738780   -0.849908
      5          6           0       -1.502775   -1.119804   -0.115652
      6          6           0       -1.139325   -0.740051    1.270060
      7          6           0       -0.671727    0.176692    0.153878
      8          6           0       -1.135326    1.558677    0.030682
      9          8           0       -0.517908    2.443188   -0.518594
     10          1           0        1.865776    1.235849    0.945030
     11          1           0        3.317853    0.195830    0.973084
     12          1           0        2.779416    0.950861   -0.553980
     13          1           0        0.739089    0.111778   -1.506298
     14          1           0       -0.484420   -1.919126   -1.911255
     15          1           0        0.104514   -2.642200   -0.392353
     16          1           0       -2.532035   -1.149922   -0.450917
     17          1           0       -1.940100   -0.339675    1.884143
     18          1           0       -0.376997   -1.291437    1.812730
     19          1           0       -2.137462    1.750800    0.482623
 ---------------------------------------------------------------------

 SCF Done:  E(RB3LYP) =  -423.160371173     A.U. after    1 cycles

 The electronic state is 1-A.
 Alpha  occ. eigenvalues --  -19.14329 -19.13020 -10.26677 -10.24073 -10.22113
 Alpha  occ. eigenvalues --  -10.21840 -10.20817 -10.20631 -10.19525  -1.03986
 Alpha  occ. eigenvalues --   -1.03485  -0.90994  -0.75140  -0.69523  -0.67487
 Alpha  occ. eigenvalues --   -0.61820  -0.58981  -0.54440  -0.51057  -0.48740
 Alpha  occ. eigenvalues --   -0.47778  -0.44936  -0.44525  -0.42337  -0.40759
 Alpha  occ. eigenvalues --   -0.39810  -0.39068  -0.37429  -0.35041  -0.31673
 Alpha  occ. eigenvalues --   -0.31215  -0.27817  -0.25679  -0.24528
 Alpha virt. eigenvalues --   -0.02090   0.08315   0.09607   0.11533   0.12345
 Alpha virt. eigenvalues --    0.12561   0.13507   0.13999   0.15340   0.16382
 Alpha virt. eigenvalues --    0.16638   0.17703   0.19365   0.19638   0.20907

 Mulliken charges:
               1
     1  C   -0.242541
     2  O   -0.241985
     3  C    0.042916
     4  C   -0.263423
     5  C   -0.103469
     6  C   -0.329704
     7  C    0.259267
     8  C    0.048996
     9  O   -0.278479
    10  H    0.120905
    11  H    0.123745
    12  H    0.114398
    13  H    0.089071
    14  H    0.114488
    15  H    0.115507
    16  H    0.106222
    17  H    0.124783
    18  H    0.137074
    19  H    0.062230
 Sum of Mulliken charges =   0.00000

 Dipole moment (field-independent basis, Debye):
    X=             -1.1557    Y=             -1.8078    Z=              0.6884  Tot=              2.2534
 Quadrupole moment (field-independent basis, Debye-Ang):
   XX=            -48.9944   YY=            -61.1327   ZZ=            -51.4041
   XY=              2.7128   XZ=             -0.4313   YZ=              3.2704

  Exact polarizability:  80.961   3.247  84.498  -2.957  -0.865  67.805
 Approx polarizability: 110.801   9.574 132.453  -5.416  -7.700 103.677

                      1                      2                      3
                      A                      A                      A
 Frequencies --     62.7023                93.5956               134.6404
 Red. masses --      3.0514                 3.2587                 2.4628
 Frc consts  --      0.0071                 0.0168                 0.0263
 IR Inten    --      5.0095                 4.5973                 1.8195

                      4                      5                      6
                      A                      A                      A
 Frequencies --    168.2463               207.6564               253.8152
 Red. masses --      1.8196                 2.2632                 2.9088
 Frc consts  --      0.0303                 0.0575                 0.1104
 IR Inten    --      3.1293                 1.8027                 5.2871

                      7                      8                      9
                      A                      A                      A
 Frequencies --    290.1062               399.5612               424.3769
 Red. masses --      2.3057                 2.3704                 2.5453
 Frc consts  --      0.1143                 0.2230                 0.2701
 IR Inten    --      2.0959                 0.1178                 0.7749

                     10                     11                     12
                      A                      A                      A
 Frequencies --    481.6914               567.5968               685.1599
 Red. masses --      4.1356                 4.2235                 3.8518
 Frc consts  --      0.5654                 0.8017                 1.0654
 IR Inten    --      3.7181                25.4735                 8.6622

                     13                     14                     15
                      A                      A                      A
 Frequencies --    745.6888               798.0540               829.2379
 Red. masses --      3.8907                 4.2785                 1.8268
 Frc consts  --      1.2747                 1.6055                 0.7401
 IR Inten    --      3.4225                 9.4171                 4.9306

                     16                     17                     18
                      A                      A                      A
 Frequencies --    879.8344               941.0784               986.9970
 Red. masses --      1.5890                 1.4360                 1.8010
 Frc consts  --      0.7247                 0.7493                 1.0337
 IR Inten    --     13.0654                11.1904                33.3669

                     19                     20                     21
                      A                      A                      A
 Frequencies --   1014.0781              1026.2458              1043.4251
 Red. masses --      1.5228                 2.9037                 2.2016
 Frc consts  --      0.9226                 1.8018                 1.4122
 IR Inten    --      3.1944                22.1680                 7.1799

                     22                     23                     24
                      A                      A                      A
 Frequencies --   1054.2708              1083.8039              1113.3308
 Red. masses --      1.5318                 1.4075                 2.2126
 Frc consts  --      1.0031                 0.9741                 1.6159
 IR Inten    --      0.8782                 2.0277                10.2659

                     25                     26                     27
                      A                      A                      A
 Frequencies --   1144.0051              1162.7023              1182.4149
 Red. masses --      2.9260                 1.5727                 1.3042
 Frc consts  --      2.2562                 1.2527                 1.0743
 IR Inten    --     94.0158                44.0354                 5.4288

                     28                     29                     30
                      A                      A                      A
 Frequencies --   1226.9468              1240.4768              1246.4932
 Red. masses --      1.8269                 1.8276                 1.5445
 Frc consts  --      1.6204                 1.6569                 1.4139
 IR Inten    --      6.7046                62.0879                 6.2135

                     31                     32                     33
                      A                      A                      A
 Frequencies --   1270.6262              1316.7769              1371.6061
 Red. masses --      1.7038                 2.3405                 1.7862
 Frc consts  --      1.6207                 2.3911                 1.9799
 IR Inten    --      9.5573                25.2563                16.8790

                     34                     35                     36
                      A                      A                      A
 Frequencies --   1396.4728              1437.3226              1472.6791
 Red. masses --      1.4109                 1.4146                 1.1599
 Frc consts  --      1.6211                 1.7218                 1.4821
 IR Inten    --     40.6274                14.4847                 3.0530

                     37                     38                     39
                      A                      A                      A
 Frequencies --   1481.5387              1486.2648              1493.2061
 Red. masses --      1.1424                 1.0548                 1.1925
 Frc consts  --      1.4773                 1.3729                 1.5666
 IR Inten    --      0.6992                 5.4818                 8.0390

                     40                     41                     42
                      A                      A                      A
 Frequencies --   1505.1249              1793.6090              2848.4121
 Red. masses --      1.0965                10.3447                 1.0812
 Frc consts  --      1.4635                19.6075                 5.1684
 IR Inten    --      4.3242               245.2872               125.8670

                     43                     44                     45
                      A                      A                      A
 Frequencies --   2991.7852              3020.8482              3046.0881
 Red. masses --      1.0364                 1.0845                 1.1017
 Frc consts  --      5.4656                 5.8311                 6.0228
 IR Inten    --     42.3981                31.2042                37.0291

                     46                     47                     48
                      A                      A                      A
 Frequencies --   3067.3221              3120.0284              3122.4213
 Red. masses --      1.0601                 1.0992                 1.0539
 Frc consts  --      5.8764                 6.3044                 6.0537
 IR Inten    --     29.4795                29.9252                 9.5173

                     49                     50                     51
                      A                      A                      A
 Frequencies --   3128.0038              3193.4290              3211.7306
 Red. masses --      1.1063                 1.0948                 1.1144
 Frc consts  --      6.3778                 6.5779                 6.7727
 IR Inten    --     15.2024                 9.6348                 5.3008

 - Thermochemistry -
 -------------------
 Temperature   298.150 Kelvin.  Pressure   1.00000 Atm.
 Atom     1 has atomic number  6 and mass  12.00000

 Molecular mass:   126.06808 amu.
 Principal axes and moments of inertia in atomic units:
                           1         2         3
     Eigenvalues --   953.502541019.006881582.81114
           X            0.92122   0.38901  -0.00480
           Y           -0.38882   0.92103   0.02274
           Z            0.01326  -0.01908   0.99973
 This molecule is an asymmetric top.
 Rotational symmetry number  1.
 Warning -- assumption of classical behavior for rotation
           may cause significant error
 Rotational temperatures (Kelvin)      0.09084     0.08500     0.05472
 Rotational constants (GHZ):           1.89275     1.77108     1.14021
 Zero-point vibrational energy     414287.9 (Joules/Mol)
                                   99.01718 (Kcal/Mol)
 Warning -- explicit consideration of  11 degrees of freedom as
           vibrations may cause significant error
 Vibrational temperatures:     90.21   134.66   193.72   242.07   298.77
          (Kelvin)            365.18   417.40   574.88   610.58   693.05
                              816.64   985.79  1072.88  1148.22  1193.09
                             1265.88  1354.00  1420.07  1459.03  1476.54
                             1501.25  1516.86  1559.35  1601.83  1645.97
                             1672.87  1701.23  1765.30  1784.77  1793.42
                             1828.15  1894.55  1973.43  2009.21  2067.98
                             2118.85  2131.60  2138.40  2148.39  2165.54
                             2580.60  4098.22  4304.51  4346.32  4382.64
                             4413.19  4489.02  4492.46  4500.49  4594.63
                             4620.96

 Zero-point correction=                           0.157794 (Hartree/Particle)
 Thermal correction to Energy=                    0.166801
 Thermal correction to Enthalpy=                  0.167745
 Thermal correction to Gibbs Free Energy=         0.123541
 Sum of electronic and zero-point Energies=           -423.002577
 Sum of electronic and thermal Energies=              -422.993571
 Sum of electronic and thermal Enthalpies=            -422.992626
 Sum of electronic and thermal Free Energies=         -423.036830

                     E (Thermal)             CV                S
                      KCal/Mol        Cal/Mol-Kelvin    Cal/Mol-Kelvin
 Total                  104.669             32.674             93.035
 Electronic               0.000              0.000              0.000
 Translational            0.889              2.981             40.409
 Rotational               0.889              2.981             28.821
 Vibrational            102.892             26.712             23.806
 Vibration     1          0.597              1.972              4.370
 Vibration     2          0.603              1.954              3.583
 Vibration     3          0.613              1.919              2.879
 Vibration     4          0.625              1.882              2.455
 Vibration     5          0.641              1.829              2.064
 Vibration     6          0.665              1.756              1.704
 Vibration     7          0.686              1.692              1.473
 Vibration     8          0.766              1.471              0.964
 Vibration     9          0.786              1.417              0.877
 Vibration    10          0.838              1.291              0.706
 Vibration    11          0.924              1.101              0.509

 Normal termination of Gaussian 09 at Tue Jan 28 14:30:25 2020.
