 Gaussian 09, Revision D.01,
 Gaussian 09:  ES64L-G09RevD.01 24-Apr-2013

 -----------------------------
 # b3lyp 6-31G(2df,p) opt Freq
 -----------------------------

 -----
 titel
 -----
 Symbolic Z-matrix:
 Charge =  0 Multiplicity = 1

 SCF Done:  E(RB3LYP) =  -423.158207118     A.U. after   13 cycles
 Optimization completed.
    -- Stationary point found.
 Normal termination of Gaussian 09 at Mon Jan 27 17:57:37 2020.

 ----------------------------------------------------------------------
 #N Geom=AllCheck Guess=TCheck SCRF=Check GenChk RB3LYP/6-31G(2df,p) Fr
 eq
 ----------------------------------------------------------------------

 Structure from the checkpoint file:  "/scratch/puck/g09_ec4f8ed5-4471-4ecf-a343-d0e450fae2b4/Gau-169860.chk"
 -----
 titel
 -----
 Charge =  0 Multiplicity = 1

                         Standard orientation:
 ---------------------------------------------------------------------
 Center     Atomic      Atomic             Coordinates (Angstroms)
 Number     Number       Type             X           Y           Z
 ---------------------------------------------------------------------
      1          6           0        2.403637    0.551625    0.300107
      2          6           0        1.020073    0.091557   -0.090324
      3          8           0        0.986659   -1.091642   -0.925637
      4          6           0        0.474952   -1.182363    0.400605
      5          6           0       -1.017605   -1.377739    0.568304
      6          8           0       -1.812390   -0.577407   -0.279073
      7          6           0       -1.416996    0.750914   -0.453838
      8          6           0       -0.909792    1.641116    0.648689
      9          6           0        0.028876    1.150906   -0.455719
     10          1           0        2.873157    1.093520   -0.528357
     11          1           0        2.359231    1.228509    1.159656
     12          1           0        3.038358   -0.301396    0.553253
     13          1           0        1.076703   -1.780766    1.089050
     14          1           0       -1.289946   -2.412636    0.335150
     15          1           0       -1.264735   -1.204575    1.629902
     16          1           0       -2.065972    1.203957   -1.194801
     17          1           0       -1.221858    2.679686    0.649662
     18          1           0       -0.759699    1.221033    1.637238
     19          1           0        0.361737    1.868966   -1.200019
 ---------------------------------------------------------------------

 SCF Done:  E(RB3LYP) =  -423.158207118     A.U. after    1 cycles

 The electronic state is 1-A.
 Alpha  occ. eigenvalues --  -19.14750 -19.14266 -10.24338 -10.23949 -10.23606
 Alpha  occ. eigenvalues --  -10.23509 -10.19303 -10.19033 -10.18305  -1.07058
 Alpha  occ. eigenvalues --   -1.03759  -0.85677  -0.75092  -0.73802  -0.64259
 Alpha  occ. eigenvalues --   -0.63593  -0.59113  -0.52538  -0.51898  -0.51202
 Alpha  occ. eigenvalues --   -0.48208  -0.44855  -0.42860  -0.41952  -0.40678
 Alpha  occ. eigenvalues --   -0.39089  -0.38389  -0.36690  -0.35312  -0.34733
 Alpha  occ. eigenvalues --   -0.29540  -0.27914  -0.25850  -0.23613
 Alpha virt. eigenvalues --    0.08659   0.09326   0.09608   0.11308   0.11939
 Alpha virt. eigenvalues --    0.12551   0.13835   0.15659   0.16156   0.17078
 Alpha virt. eigenvalues --    0.17691   0.18255   0.19254   0.20880   0.22506

 Mulliken charges:
               1
     1  C   -0.468014
     2  C    0.406200
     3  O   -0.298627
     4  C   -0.021921
     5  C   -0.126989
     6  O   -0.252157
     7  C    0.143605
     8  C   -0.349708
     9  C   -0.146315
    10  H    0.126771
    11  H    0.124149
    12  H    0.126138
    13  H    0.085687
    14  H    0.123174
    15  H    0.096213
    16  H    0.107531
    17  H    0.116111
    18  H    0.118530
    19  H    0.089622
 Sum of Mulliken charges =   0.00000

 Dipole moment (field-independent basis, Debye):
    X=              0.5788    Y=              1.2839    Z=              1.9220  Tot=              2.3827
 Quadrupole moment (field-independent basis, Debye-Ang):
   XX=            -55.2261   YY=            -50.1863   ZZ=            -53.4175
   XY=             -0.1468   XZ=              1.0863   YZ=             -4.4152

  Exact polarizability:  77.268   1.150  80.624  -0.622  -3.671  64.517
 Approx polarizability: 104.582   3.007 115.743  -2.556  -1.700 105.186

                      1                      2                      3
                      A                      A                      A
 Frequencies --    149.5597               183.1553               213.9735
 Red. masses --      3.3994                 1.4962                 1.7756
 Frc consts  --      0.0448                 0.0296                 0.0479
 IR Inten    --      1.0370                 0.4584                 1.7746

                      4                      5                      6
                      A                      A                      A
 Frequencies --    261.1765               321.0976               347.1178
 Red. masses --      2.0476                 2.4420                 4.6921
 Frc consts  --      0.0823                 0.1483                 0.3331
 IR Inten    --      3.7004                 0.2403                 0.7788

                      7                      8                      9
                      A                      A                      A
 Frequencies --    410.8663               433.0395               540.7960
 Red. masses --      5.5032                 2.6623                 3.3835
 Frc consts  --      0.5473                 0.2941                 0.5830
 IR Inten    --      8.9832                 2.2165                 5.5656

                     10                     11                     12
                      A                      A                      A
 Frequencies --    629.2274               673.9559               735.1367
 Red. masses --      4.3623                 3.1603                 3.5502
 Frc consts  --      1.0176                 0.8457                 1.1304
 IR Inten    --      6.6917                 2.8449                 8.0775

                     13                     14                     15
                      A                      A                      A
 Frequencies --    766.4064               809.4323               820.9970
 Red. masses --      3.0662                 2.8654                 1.5630
 Frc consts  --      1.0611                 1.1061                 0.6207
 IR Inten    --     18.2911                 7.7443                16.4295

                     16                     17                     18
                      A                      A                      A
 Frequencies --    878.8557               911.0088               965.7049
 Red. masses --      2.3855                 2.5233                 2.1464
 Frc consts  --      1.0856                 1.2339                 1.1794
 IR Inten    --     28.7533                10.6031                 4.9054

                     19                     20                     21
                      A                      A                      A
 Frequencies --    984.2888              1003.7568              1041.1892
 Red. masses --      2.5553                 1.8741                 1.5847
 Frc consts  --      1.4586                 1.1125                 1.0122
 IR Inten    --      9.7389                 3.2539                 7.2157

                     22                     23                     24
                      A                      A                      A
 Frequencies --   1059.1360              1070.4695              1096.2764
 Red. masses --      1.4347                 1.6982                 2.1533
 Frc consts  --      0.9482                 1.1465                 1.5247
 IR Inten    --      3.9758                 0.6467                 9.8782

                     25                     26                     27
                      A                      A                      A
 Frequencies --   1125.4335              1135.3616              1146.4262
 Red. masses --      1.2336                 2.0089                 1.9715
 Frc consts  --      0.9206                 1.5257                 1.5267
 IR Inten    --      1.0219                10.6122                 3.4943

                     28                     29                     30
                      A                      A                      A
 Frequencies --   1185.4680              1229.6207              1259.4146
 Red. masses --      1.9545                 1.7764                 2.6781
 Frc consts  --      1.6183                 1.5825                 2.5027
 IR Inten    --     22.9652                15.2803                78.3305

                     31                     32                     33
                      A                      A                      A
 Frequencies --   1288.8495              1324.9547              1378.7519
 Red. masses --      1.2617                 1.3385                 1.3107
 Frc consts  --      1.2348                 1.3844                 1.4680
 IR Inten    --     32.0870                 0.3446                 1.3012

                     34                     35                     36
                      A                      A                      A
 Frequencies --   1398.0166              1410.9997              1429.2686
 Red. masses --      2.0763                 1.3477                 1.4175
 Frc consts  --      2.3909                 1.5808                 1.7061
 IR Inten    --     10.0239                 6.1443                17.9927

                     37                     38                     39
                      A                      A                      A
 Frequencies --   1467.4938              1483.2899              1489.2356
 Red. masses --      1.4671                 1.3098                 1.1630
 Frc consts  --      1.8615                 1.6978                 1.5197
 IR Inten    --      3.7793                13.9731                15.1978

                     40                     41                     42
                      A                      A                      A
 Frequencies --   1496.1423              1509.5260              2961.2986
 Red. masses --      1.0967                 1.8014                 1.0712
 Frc consts  --      1.4464                 2.4185                 5.5348
 IR Inten    --      4.2166                11.7122                51.2638

                     43                     44                     45
                      A                      A                      A
 Frequencies --   3034.5235              3067.7510              3081.3136
 Red. masses --      1.0357                 1.0899                 1.0874
 Frc consts  --      5.6193                 6.0431                 6.0829
 IR Inten    --     19.1591                22.8666                40.9787

                     46                     47                     48
                      A                      A                      A
 Frequencies --   3098.4872              3121.8934              3135.0634
 Red. masses --      1.1003                 1.1016                 1.0547
 Frc consts  --      6.2237                 6.3260                 6.1075
 IR Inten    --     16.8843                18.6079                10.3625

                     49                     50                     51
                      A                      A                      A
 Frequencies --   3142.5633              3176.1170              3221.0597
 Red. masses --      1.0879                 1.0913                 1.1157
 Frc consts  --      6.3301                 6.4860                 6.8203
 IR Inten    --     12.3349                15.9132                11.1334

 - Thermochemistry -
 -------------------
 Temperature   298.150 Kelvin.  Pressure   1.00000 Atm.
 Atom     1 has atomic number  6 and mass  12.00000

 Molecular mass:   126.06808 amu.
 Principal axes and moments of inertia in atomic units:
                           1         2         3
     Eigenvalues --   690.43709 988.825131367.80932
           X            0.99969   0.02347   0.00839
           Y           -0.02315   0.99909  -0.03585
           Z           -0.00922   0.03564   0.99932
 This molecule is an asymmetric top.
 Rotational symmetry number  1.
 Warning -- assumption of classical behavior for rotation
           may cause significant error
 Rotational temperatures (Kelvin)      0.12545     0.08759     0.06332
 Rotational constants (GHZ):           2.61391     1.82514     1.31944
 Zero-point vibrational energy     419320.7 (Joules/Mol)
                                  100.22005 (Kcal/Mol)
 Warning -- explicit consideration of   9 degrees of freedom as
           vibrations may cause significant error
 Vibrational temperatures:    215.18   263.52   307.86   375.77   461.99
          (Kelvin)            499.42   591.14   623.05   778.08   905.32
                              969.67  1057.70  1102.69  1164.59  1181.23
                             1264.48  1310.74  1389.43  1416.17  1444.18
                             1498.04  1523.86  1540.16  1577.30  1619.25
                             1633.53  1649.45  1705.62  1769.15  1812.01
                             1854.36  1906.31  1983.71  2011.43  2030.11
                             2056.40  2111.39  2134.12  2142.68  2152.61
                             2171.87  4260.64  4366.00  4413.80  4433.32
                             4458.03  4491.70  4510.65  4521.44  4569.72
                             4634.38

 Zero-point correction=                           0.159711 (Hartree/Particle)
 Thermal correction to Energy=                    0.167451
 Thermal correction to Enthalpy=                  0.168395
 Thermal correction to Gibbs Free Energy=         0.127934
 Sum of electronic and zero-point Energies=           -422.998496
 Sum of electronic and thermal Energies=              -422.990756
 Sum of electronic and thermal Enthalpies=            -422.989812
 Sum of electronic and thermal Free Energies=         -423.030273

                     E (Thermal)             CV                S
                      KCal/Mol        Cal/Mol-Kelvin    Cal/Mol-Kelvin
 Total                  105.077             30.944             85.157
 Electronic               0.000              0.000              0.000
 Translational            0.889              2.981             40.409
 Rotational               0.889              2.981             28.326
 Vibrational            103.300             24.983             16.423
 Vibration     1          0.618              1.903              2.678
 Vibration     2          0.631              1.863              2.296
 Vibration     3          0.644              1.820              2.010
 Vibration     4          0.669              1.744              1.654
 Vibration     5          0.707              1.633              1.305
 Vibration     6          0.725              1.581              1.179
 Vibration     7          0.775              1.447              0.924
 Vibration     8          0.794              1.398              0.849
 Vibration     9          0.896              1.160              0.564

 Optimization completed.
    -- Stationary point found.
 Normal termination of Gaussian 09 at Mon Jan 27 18:42:13 2020.
