 Gaussian 09, Revision D.01,
 Gaussian 09:  ES64L-G09RevD.01 24-Apr-2013

 -----------------------------
 # b3lyp 6-31G(2df,p) opt Freq
 -----------------------------

 -----
 titel
 -----
 Symbolic Z-matrix:
 Charge =  0 Multiplicity = 1

 SCF Done:  E(RB3LYP) =  -423.192716001     A.U. after   15 cycles
 Optimization completed.
    -- Stationary point found.
 Normal termination of Gaussian 09 at Tue Jan 28 12:04:13 2020.

 ----------------------------------------------------------------------
 #N Geom=AllCheck Guess=TCheck SCRF=Check GenChk RB3LYP/6-31G(2df,p) Fr
 eq
 ----------------------------------------------------------------------

 Structure from the checkpoint file:  "/scratch/puck/g09_aed02626-fe1d-4818-99b3-3482f77a149d/Gau-113782.chk"
 -----
 titel
 -----
 Charge =  0 Multiplicity = 1

                         Standard orientation:
 ---------------------------------------------------------------------
 Center     Atomic      Atomic             Coordinates (Angstroms)
 Number     Number       Type             X           Y           Z
 ---------------------------------------------------------------------
      1          6           0        4.479624    0.464429   -0.001350
      2          6           0        2.959777    0.636987   -0.003946
      3          6           0        2.221102   -0.717067    0.004751
      4          6           0        0.771227   -0.591784    0.002567
      5          6           0       -0.427461   -0.463283    0.001209
      6          6           0       -1.867717   -0.405745   -0.000746
      7          8           0       -2.597077   -1.367719   -0.004742
      8          8           0       -2.301181    0.871703    0.002466
      9          6           0       -3.726405    1.022831    0.000520
     10          1           0        4.984763    1.434614   -0.007573
     11          1           0        4.816867   -0.081122    0.886978
     12          1           0        4.818556   -0.093326   -0.881413
     13          1           0        2.642948    1.218278    0.868831
     14          1           0        2.644604    1.206084   -0.885322
     15          1           0        2.527593   -1.311863   -0.866500
     16          1           0        2.525910   -1.299560    0.884887
     17          1           0       -3.907689    2.097564    0.001640
     18          1           0       -4.162874    0.560708   -0.888686
     19          1           0       -4.165502    0.558537    0.887327
 ---------------------------------------------------------------------

 SCF Done:  E(RB3LYP) =  -423.192716001     A.U. after    1 cycles

 The electronic state is 1-A.
 Alpha  occ. eigenvalues --  -19.18357 -19.12590 -10.31900 -10.23663 -10.21740
 Alpha  occ. eigenvalues --  -10.20101 -10.19667 -10.18507 -10.18451  -1.10224
 Alpha  occ. eigenvalues --   -1.01378  -0.81898  -0.77089  -0.73480  -0.69744
 Alpha  occ. eigenvalues --   -0.61940  -0.60223  -0.53997  -0.48469  -0.48204
 Alpha  occ. eigenvalues --   -0.47842  -0.46859  -0.42819  -0.42391  -0.41102
 Alpha  occ. eigenvalues --   -0.39771  -0.37465  -0.35885  -0.35858  -0.34640
 Alpha  occ. eigenvalues --   -0.30088  -0.29267  -0.27567  -0.26208
 Alpha virt. eigenvalues --   -0.02842   0.03825   0.08742   0.11310   0.11434
 Alpha virt. eigenvalues --    0.12983   0.13788   0.14046   0.14319   0.15722
 Alpha virt. eigenvalues --    0.16490   0.17406   0.18096   0.21067   0.22087

 Mulliken charges:
               1
     1  C   -0.382948
     2  C   -0.158551
     3  C   -0.353726
     4  C    0.192913
     5  C   -0.014260
     6  C    0.249364
     7  O   -0.359795
     8  O   -0.217708
     9  C   -0.239850
    10  H    0.119283
    11  H    0.118712
    12  H    0.118727
    13  H    0.115177
    14  H    0.115154
    15  H    0.139458
    16  H    0.139500
    17  H    0.133856
    18  H    0.142383
    19  H    0.142310
 Sum of Mulliken charges =   0.00000

 Dipole moment (field-independent basis, Debye):
    X=              1.8539    Y=              1.7226    Z=              0.0060  Tot=              2.5306
 Quadrupole moment (field-independent basis, Debye-Ang):
   XX=            -43.7247   YY=            -56.1947   ZZ=            -52.1181
   XY=             -7.9416   XZ=             -0.0097   YZ=             -0.0186

  Exact polarizability: 130.343  -3.859  69.624   0.042   0.010  56.317
 Approx polarizability: 168.868  -1.101 106.160   0.117   0.063  83.999

                      1                      2                      3
                      A                      A                      A
 Frequencies --     22.8526                54.8292                66.3957
 Red. masses --      2.6941                 4.3084                 2.1928
 Frc consts  --      0.0008                 0.0076                 0.0057
 IR Inten    --      1.0353                 0.9366                 0.2366

                      4                      5                      6
                      A                      A                      A
 Frequencies --    113.5408               126.7528               163.5207
 Red. masses --      1.6450                 1.5688                 4.6786
 Frc consts  --      0.0125                 0.0149                 0.0737
 IR Inten    --      2.0658                 0.9453                 2.0163

                      7                      8                      9
                      A                      A                      A
 Frequencies --    221.5236               247.3600               300.0854
 Red. masses --      4.0213                 1.0961                 3.9089
 Frc consts  --      0.1163                 0.0395                 0.2074
 IR Inten    --      0.3039                 0.0356                 2.4241

                     10                     11                     12
                      A                      A                      A
 Frequencies --    306.5381               404.4388               412.3207
 Red. masses --      3.5536                 4.2876                 4.5879
 Frc consts  --      0.1967                 0.4132                 0.4596
 IR Inten    --     10.9415                 2.6487                 3.4928

                     13                     14                     15
                      A                      A                      A
 Frequencies --    578.4138               582.1391               741.1821
 Red. masses --      6.5741                 8.8141                 1.1138
 Frc consts  --      1.2959                 1.7599                 0.3605
 IR Inten    --      3.6168                 3.2286                 2.7139

                     16                     17                     18
                      A                      A                      A
 Frequencies --    774.5781               826.1683               868.8206
 Red. masses --     11.5790                 4.3648                 1.2436
 Frc consts  --      4.0931                 1.7553                 0.5531
 IR Inten    --     20.1155                14.7517                 0.2082

                     19                     20                     21
                      A                      A                      A
 Frequencies --    890.3628               981.1047              1041.9242
 Red. masses --      2.0846                 5.5950                 2.9706
 Frc consts  --      0.9737                 3.1731                 1.9001
 IR Inten    --      0.2513                 9.2417                 0.2078

                     22                     23                     24
                      A                      A                      A
 Frequencies --   1102.3594              1110.5591              1118.8338
 Red. masses --      4.2389                 2.1167                 1.4544
 Frc consts  --      3.0349                 1.5382                 1.0727
 IR Inten    --    112.1906                 8.9778                 0.3519

                     25                     26                     27
                      A                      A                      A
 Frequencies --   1177.4974              1211.9934              1256.8595
 Red. masses --      1.2828                 1.5578                 1.3074
 Frc consts  --      1.0479                 1.3482                 1.2169
 IR Inten    --      1.1444                19.3067                 0.0776

                     28                     29                     30
                      A                      A                      A
 Frequencies --   1279.9083              1304.4804              1321.8794
 Red. masses --      5.3561                 1.4668                 1.0803
 Frc consts  --      5.1696                 1.4706                 1.1122
 IR Inten    --    532.9426                64.9789                 0.0089

                     31                     32                     33
                      A                      A                      A
 Frequencies --   1381.2581              1416.3207              1462.5532
 Red. masses --      1.5112                 1.2353                 1.0820
 Frc consts  --      1.6987                 1.4599                 1.3637
 IR Inten    --      4.8218                 0.8549                 2.0153

                     34                     35                     36
                      A                      A                      A
 Frequencies --   1470.8770              1480.3050              1491.9237
 Red. masses --      1.1928                 1.0470                 1.0529
 Frc consts  --      1.5204                 1.3517                 1.3809
 IR Inten    --     23.3469                 6.1704                 0.8195

                     37                     38                     39
                      A                      A                      A
 Frequencies --   1496.8624              1500.6959              1508.7370
 Red. masses --      1.0591                 1.0397                 1.0787
 Frc consts  --      1.3982                 1.3796                 1.4466
 IR Inten    --      6.3277                 5.8178                 3.5605

                     40                     41                     42
                      A                      A                      A
 Frequencies --   1789.5059              2352.9579              3013.4797
 Red. masses --     11.9700                11.9496                 1.0582
 Frc consts  --     22.5846                38.9793                 5.6620
 IR Inten    --    278.0620               162.1489                 9.2605

                     43                     44                     45
                      A                      A                      A
 Frequencies --   3032.1053              3041.3004              3045.0378
 Red. masses --      1.0367                 1.0997                 1.0591
 Frc consts  --      5.6157                 5.9930                 5.7858
 IR Inten    --     23.6701                 3.2559                24.1154

                     46                     47                     48
                      A                      A                      A
 Frequencies --   3050.9255              3077.1843              3103.1758
 Red. masses --      1.0298                 1.1026                 1.1035
 Frc consts  --      5.6479                 6.1515                 6.2606
 IR Inten    --     31.4397                 1.7012                51.0859

                     49                     50                     51
                      A                      A                      A
 Frequencies --   3109.7657              3124.7932              3159.9397
 Red. masses --      1.1005                 1.1055                 1.1058
 Frc consts  --      6.2703                 6.3598                 6.5056
 IR Inten    --     28.5781                18.6450                15.2019

 - Thermochemistry -
 -------------------
 Temperature   298.150 Kelvin.  Pressure   1.00000 Atm.
 Atom     1 has atomic number  6 and mass  12.00000

 Molecular mass:   126.06808 amu.
 Principal axes and moments of inertia in atomic units:
                           1         2         3
     Eigenvalues --   345.102513462.887603763.25926
           X            0.99997  -0.00716  -0.00001
           Y            0.00716   0.99997  -0.00026
           Z            0.00002   0.00026   1.00000
 This molecule is an asymmetric top.
 Rotational symmetry number  1.
 Rotational temperatures (Kelvin)      0.25098     0.02501     0.02302
 Rotational constants (GHZ):           5.22958     0.52117     0.47957
 Zero-point vibrational energy     411030.5 (Joules/Mol)
                                   98.23864 (Kcal/Mol)
 Warning -- explicit consideration of  14 degrees of freedom as
           vibrations may cause significant error
 Vibrational temperatures:     32.88    78.89    95.53   163.36   182.37
          (Kelvin)            235.27   318.72   355.90   431.76   441.04
                              581.90   593.24   832.21   837.57  1066.39
                             1114.44  1188.67  1250.04  1281.03  1411.59
                             1499.09  1586.05  1597.84  1609.75  1694.15
                             1743.79  1808.34  1841.50  1876.85  1901.89
                             1987.32  2037.77  2104.29  2116.26  2129.83
                             2146.54  2153.65  2159.16  2170.73  2574.70
                             3385.38  4335.72  4362.52  4375.75  4381.12
                             4389.60  4427.38  4464.77  4474.25  4495.87
                             4546.44

 Zero-point correction=                           0.156553 (Hartree/Particle)
 Thermal correction to Energy=                    0.167361
 Thermal correction to Enthalpy=                  0.168305
 Thermal correction to Gibbs Free Energy=         0.118292
 Sum of electronic and zero-point Energies=           -423.036163
 Sum of electronic and thermal Energies=              -423.025355
 Sum of electronic and thermal Enthalpies=            -423.024411
 Sum of electronic and thermal Free Energies=         -423.074424

                     E (Thermal)             CV                S
                      KCal/Mol        Cal/Mol-Kelvin    Cal/Mol-Kelvin
 Total                  105.021             36.086            105.262
 Electronic               0.000              0.000              0.000
 Translational            0.889              2.981             40.409
 Rotational               0.889              2.981             29.887
 Vibrational            103.243             30.124             34.966
 Vibration     1          0.593              1.985              6.369
 Vibration     2          0.596              1.976              4.635
 Vibration     3          0.598              1.970              4.257
 Vibration     4          0.607              1.938              3.207
 Vibration     5          0.611              1.926              2.995
 Vibration     6          0.623              1.887              2.509
 Vibration     7          0.648              1.808              1.947
 Vibration     8          0.661              1.767              1.749
 Vibration     9          0.693              1.674              1.416
 Vibration    10          0.697              1.661              1.381
 Vibration    11          0.770              1.461              0.946
 Vibration    12          0.776              1.443              0.918
 Vibration    13          0.935              1.078              0.488
 Vibration    14          0.939              1.070              0.481

 Normal termination of Gaussian 09 at Tue Jan 28 12:31:49 2020.
