 Gaussian 09, Revision D.01,
 Gaussian 09:  ES64L-G09RevD.01 24-Apr-2013

 -----------------------------
 # b3lyp 6-31G(2df,p) opt Freq
 -----------------------------

 -----
 titel
 -----
 Symbolic Z-matrix:
 Charge =  0 Multiplicity = 1

 SCF Done:  E(RB3LYP) =  -423.181590073     A.U. after   14 cycles
 Optimization completed.
    -- Stationary point found.
 Normal termination of Gaussian 09 at Mon Jan 27 13:45:19 2020.

 ----------------------------------------------------------------------
 #N Geom=AllCheck Guess=TCheck SCRF=Check GenChk RB3LYP/6-31G(2df,p) Fr
 eq
 ----------------------------------------------------------------------

 Structure from the checkpoint file:  "/scratch/puck/g09_a9b01971-3a0a-4c43-8ea7-72a97c4831ac/Gau-53186.chk"
 -----
 titel
 -----
 Charge =  0 Multiplicity = 1

                         Standard orientation:
 ---------------------------------------------------------------------
 Center     Atomic      Atomic             Coordinates (Angstroms)
 Number     Number       Type             X           Y           Z
 ---------------------------------------------------------------------
      1          8           0       -3.145506    0.131452   -0.714484
      2          6           0       -2.586338   -0.641381    0.012478
      3          8           0       -1.296896   -0.601669    0.384664
      4          6           0       -0.510984    0.468250   -0.124051
      5          6           0        0.093668    1.411030    0.879199
      6          6           0        0.949534    0.392585    0.170790
      7          6           0        2.071809    0.597168   -0.856092
      8          6           0        2.598879   -0.822453   -0.489463
      9          6           0        1.661327   -0.835453    0.755268
     10          1           0       -3.052939   -1.520317    0.483448
     11          1           0       -0.870345    0.843713   -1.074432
     12          1           0        0.176209    2.458781    0.606904
     13          1           0       -0.134133    1.225770    1.924301
     14          1           0        1.770295    0.765257   -1.893656
     15          1           0        2.763926    1.392490   -0.562022
     16          1           0        2.315285   -1.574633   -1.229333
     17          1           0        3.669832   -0.911325   -0.297327
     18          1           0        1.044656   -1.724094    0.904520
     19          1           0        2.189060   -0.612391    1.687384
 ---------------------------------------------------------------------

 SCF Done:  E(RB3LYP) =  -423.181590073     A.U. after    1 cycles

 The electronic state is 1-A.
 Alpha  occ. eigenvalues --  -19.19313 -19.13319 -10.30881 -10.24445 -10.20111
 Alpha  occ. eigenvalues --  -10.18930 -10.18654 -10.18541 -10.18476  -1.10783
 Alpha  occ. eigenvalues --   -1.02421  -0.88018  -0.80454  -0.67638  -0.66465
 Alpha  occ. eigenvalues --   -0.61677  -0.57541  -0.54354  -0.51798  -0.49225
 Alpha  occ. eigenvalues --   -0.47576  -0.46560  -0.45295  -0.42761  -0.39061
 Alpha  occ. eigenvalues --   -0.38203  -0.37183  -0.35209  -0.34808  -0.33069
 Alpha  occ. eigenvalues --   -0.31143  -0.28271  -0.27685  -0.26397
 Alpha virt. eigenvalues --    0.00860   0.08613   0.09039   0.09941   0.10614
 Alpha virt. eigenvalues --    0.13658   0.13906   0.15479   0.16103   0.17449
 Alpha virt. eigenvalues --    0.18235   0.18985   0.19835   0.21166   0.23044

 Mulliken charges:
               1
     1  O   -0.300297
     2  C    0.183838
     3  O   -0.212210
     4  C    0.071050
     5  C   -0.386821
     6  C    0.314600
     7  C   -0.295184
     8  C   -0.200530
     9  C   -0.286113
    10  H    0.109770
    11  H    0.127749
    12  H    0.120315
    13  H    0.122590
    14  H    0.102107
    15  H    0.104523
    16  H    0.108035
    17  H    0.100869
    18  H    0.112248
    19  H    0.103462
 Sum of Mulliken charges =   0.00000

 Dipole moment (field-independent basis, Debye):
    X=              1.9878    Y=             -0.4785    Z=              0.8270  Tot=              2.2055
 Quadrupole moment (field-independent basis, Debye-Ang):
   XX=            -58.8742   YY=            -51.2210   ZZ=            -52.7852
   XY=              3.8886   XZ=             -3.8599   YZ=              0.3273

  Exact polarizability:  94.137   0.918  72.821   0.627  -2.045  67.285
 Approx polarizability: 119.869  -1.425 106.443   6.921  -5.566 102.420

                      1                      2                      3
                      A                      A                      A
 Frequencies --     11.7551                84.5197               133.3549
 Red. masses --      7.3266                 2.2027                 3.3436
 Frc consts  --      0.0006                 0.0093                 0.0350
 IR Inten    --      1.5162                 0.1357                 1.2721

                      4                      5                      6
                      A                      A                      A
 Frequencies --    178.3700               232.6007               303.7632
 Red. masses --      2.5313                 4.7412                 2.3635
 Frc consts  --      0.0475                 0.1511                 0.1285
 IR Inten    --      2.2520                 6.9955                 9.1295

                      7                      8                      9
                      A                      A                      A
 Frequencies --    328.7709               444.5794               472.2768
 Red. masses --      2.6258                 2.8721                 2.7564
 Frc consts  --      0.1672                 0.3345                 0.3622
 IR Inten    --      1.8744                 2.9239                 3.1806

                     10                     11                     12
                      A                      A                      A
 Frequencies --    564.9182               713.3086               744.5711
 Red. masses --      3.5749                 1.4144                 3.4548
 Frc consts  --      0.6722                 0.4240                 1.1284
 IR Inten    --      3.1738                 3.0352                 1.1745

                     13                     14                     15
                      A                      A                      A
 Frequencies --    781.1596               838.6695               875.0560
 Red. masses --      1.2767                 2.0382                 2.4515
 Frc consts  --      0.4590                 0.8447                 1.1060
 IR Inten    --      1.2230                 4.5212                 1.7524

                     16                     17                     18
                      A                      A                      A
 Frequencies --    889.7687               895.7227               936.6004
 Red. masses --      1.9256                 1.7618                 2.6072
 Frc consts  --      0.8982                 0.8328                 1.3475
 IR Inten    --      9.3592                 2.4599                 1.6208

                     19                     20                     21
                      A                      A                      A
 Frequencies --    952.4866              1005.6340              1035.0446
 Red. masses --      2.9620                 1.8253                 1.6037
 Frc consts  --      1.5833                 1.0876                 1.0122
 IR Inten    --      1.1260                 5.3647                 4.6494

                     22                     23                     24
                      A                      A                      A
 Frequencies --   1042.2108              1071.9367              1087.0576
 Red. masses --      1.6410                 2.2155                 1.3981
 Frc consts  --      1.0502                 1.4999                 0.9734
 IR Inten    --      4.5574                 2.2017                 1.1665

                     25                     26                     27
                      A                      A                      A
 Frequencies --   1129.4907              1143.8587              1189.3307
 Red. masses --      1.5521                 2.4335                 1.8126
 Frc consts  --      1.1666                 1.8760                 1.5107
 IR Inten    --      3.1424                 3.1691                19.0593

                     28                     29                     30
                      A                      A                      A
 Frequencies --   1214.3453              1225.6261              1233.6433
 Red. masses --      6.4629                 1.3749                 1.5840
 Frc consts  --      5.6151                 1.2169                 1.4203
 IR Inten    --    413.7398                10.2665                17.3727

                     31                     32                     33
                      A                      A                      A
 Frequencies --   1254.5671              1274.4417              1282.5373
 Red. masses --      1.2000                 1.3869                 1.6244
 Frc consts  --      1.1128                 1.3272                 1.5743
 IR Inten    --      0.1797                 1.0084                 0.9845

                     34                     35                     36
                      A                      A                      A
 Frequencies --   1329.1550              1408.2182              1416.2967
 Red. masses --      1.5345                 1.2637                 1.4073
 Frc consts  --      1.5972                 1.4764                 1.6631
 IR Inten    --      2.6773                 2.6473                 8.9122

                     37                     38                     39
                      A                      A                      A
 Frequencies --   1477.6214              1478.2051              1486.7201
 Red. masses --      1.0889                 1.3222                 1.3566
 Frc consts  --      1.4007                 1.7023                 1.7667
 IR Inten    --      1.0486                 3.3298                10.3049

                     40                     41                     42
                      A                      A                      A
 Frequencies --   1506.5465              1822.9800              3030.6581
 Red. masses --      1.1734                 9.5287                 1.0907
 Frc consts  --      1.5692                18.6572                 5.9021
 IR Inten    --      0.8529               343.0006                63.8132

                     43                     44                     45
                      A                      A                      A
 Frequencies --   3047.4724              3056.4524              3069.6038
 Red. masses --      1.0578                 1.0606                 1.0609
 Frc consts  --      5.7880                 5.8377                 5.8899
 IR Inten    --     45.1737                22.4385                42.9297

                     46                     47                     48
                      A                      A                      A
 Frequencies --   3094.2605              3110.1043              3122.4554
 Red. masses --      1.1067                 1.1050                 1.0538
 Frc consts  --      6.2432                 6.2973                 6.0534
 IR Inten    --     13.7917                 6.9365                 7.8771

                     49                     50                     51
                      A                      A                      A
 Frequencies --   3127.3700              3189.3500              3212.4795
 Red. masses --      1.1078                 1.0905                 1.1154
 Frc consts  --      6.3837                 6.5356                 6.7819
 IR Inten    --     47.3127                 2.2138                 5.5945

 - Thermochemistry -
 -------------------
 Temperature   298.150 Kelvin.  Pressure   1.00000 Atm.
 Atom     1 has atomic number  8 and mass  15.99491

 Molecular mass:   126.06808 amu.
 Principal axes and moments of inertia in atomic units:
                           1         2         3
     Eigenvalues --   477.088861942.552052037.26065
           X            0.99994  -0.00193  -0.01098
           Y            0.00176   0.99989  -0.01499
           Z            0.01101   0.01497   0.99983
 This molecule is an asymmetric top.
 Rotational symmetry number  1.
 Warning -- assumption of classical behavior for rotation
           may cause significant error
 Rotational temperatures (Kelvin)      0.18155     0.04459     0.04251
 Rotational constants (GHZ):           3.78282     0.92906     0.88587
 Zero-point vibrational energy     416048.8 (Joules/Mol)
                                   99.43805 (Kcal/Mol)
 Warning -- explicit consideration of  10 degrees of freedom as
           vibrations may cause significant error
 Vibrational temperatures:     16.91   121.60   191.87   256.63   334.66
          (Kelvin)            437.05   473.03   639.65   679.50   812.79
                             1026.29  1071.27  1123.91  1206.66  1259.01
                             1280.18  1288.74  1347.56  1370.41  1446.88
                             1489.20  1499.51  1542.28  1564.03  1625.08
                             1645.76  1711.18  1747.17  1763.40  1774.94
                             1805.04  1833.64  1845.28  1912.36  2026.11
                             2037.73  2125.96  2126.80  2139.06  2167.58
                             2622.86  4360.44  4384.63  4397.55  4416.47
                             4451.95  4474.74  4492.51  4499.58  4588.76
                             4622.04

 Zero-point correction=                           0.158465 (Hartree/Particle)
 Thermal correction to Energy=                    0.167215
 Thermal correction to Enthalpy=                  0.168159
 Thermal correction to Gibbs Free Energy=         0.122923
 Sum of electronic and zero-point Energies=           -423.023125
 Sum of electronic and thermal Energies=              -423.014375
 Sum of electronic and thermal Enthalpies=            -423.013431
 Sum of electronic and thermal Free Energies=         -423.058667

                     E (Thermal)             CV                S
                      KCal/Mol        Cal/Mol-Kelvin    Cal/Mol-Kelvin
 Total                  104.929             31.912             95.206
 Electronic               0.000              0.000              0.000
 Translational            0.889              2.981             40.409
 Rotational               0.889              2.981             29.025
 Vibrational            103.151             25.950             25.773
 Vibration     1          0.593              1.987              7.690
 Vibration     2          0.601              1.960              3.783
 Vibration     3          0.613              1.920              2.897
 Vibration     4          0.629              1.869              2.345
 Vibration     5          0.653              1.791              1.859
 Vibration     6          0.695              1.667              1.396
 Vibration     7          0.712              1.618              1.266
 Vibration     8          0.804              1.373              0.812
 Vibration     9          0.829              1.312              0.731
 Vibration    10          0.921              1.107              0.514

 Normal termination of Gaussian 09 at Mon Jan 27 14:22:38 2020.
