 Gaussian 09, Revision D.01,
 Gaussian 09:  ES64L-G09RevD.01 24-Apr-2013

 ----------------------------------------------------
 # b3lyp 6-31G(2df,p) opt(MaxCycles=100,CalcAll) Freq
 ----------------------------------------------------

 -----
 titel
 -----
 Symbolic Z-matrix:
 Charge =  0 Multiplicity = 1

 SCF Done:  E(RB3LYP) =  -423.185570663     A.U. after   14 cycles
 SCF Done:  E(RB3LYP) =  -423.185570905     A.U. after    7 cycles
 Optimization completed.
    -- Stationary point found.
 Normal termination of Gaussian 09 at Fri Jan 31 17:59:44 2020.

 ----------------------------------------------------------------------
 #N Geom=AllCheck Guess=TCheck SCRF=Check GenChk RB3LYP/6-31G(2df,p) Fr
 eq
 ----------------------------------------------------------------------

 Structure from the checkpoint file:  "/scratch/puck/g09_09ff67e2-f3dd-48fa-b22b-005d31f4788a/Gau-177133.chk"
 -----
 titel
 -----
 Charge =  0 Multiplicity = 1

                         Standard orientation:
 ---------------------------------------------------------------------
 Center     Atomic      Atomic             Coordinates (Angstroms)
 Number     Number       Type             X           Y           Z
 ---------------------------------------------------------------------
      1          8           0        2.856851   -0.948191   -0.201175
      2          6           0        2.148050    0.280659   -0.167552
      3          6           0        0.664675    0.092778   -0.460699
      4          6           0       -0.278205    1.328770   -0.298348
      5          6           0       -0.337807    0.997110    1.221317
      6          6           0       -0.229407   -0.477983    0.708590
      7          6           0       -1.556668   -0.594832   -0.030678
      8          8           0       -2.350245   -1.495536   -0.032825
      9          6           0       -1.620178    0.752525   -0.791163
     10          1           0        2.515554   -1.506147    0.505051
     11          1           0        2.316479    0.810495    0.780879
     12          1           0        2.590300    0.895841   -0.959461
     13          1           0        0.580315   -0.445811   -1.411435
     14          1           0        0.009940    2.316017   -0.659801
     15          1           0        0.542446    1.316942    1.777915
     16          1           0       -1.240613    1.277025    1.771579
     17          1           0        0.054097   -1.319609    1.339242
     18          1           0       -1.670249    0.593029   -1.872538
     19          1           0       -2.493870    1.337877   -0.488224
 ---------------------------------------------------------------------

 SCF Done:  E(RB3LYP) =  -423.185570905     A.U. after    1 cycles

 The electronic state is 1-A.
 Alpha  occ. eigenvalues --  -19.14111 -19.13055 -10.26842 -10.23632 -10.20986
 Alpha  occ. eigenvalues --  -10.20658 -10.20602 -10.20390 -10.19460  -1.04209
 Alpha  occ. eigenvalues --   -1.02256  -0.90439  -0.74300  -0.71398  -0.68113
 Alpha  occ. eigenvalues --   -0.63718  -0.55828  -0.53661  -0.51628  -0.49803
 Alpha  occ. eigenvalues --   -0.47020  -0.45575  -0.43911  -0.40983  -0.39735
 Alpha  occ. eigenvalues --   -0.39403  -0.38608  -0.36758  -0.34390  -0.33088
 Alpha  occ. eigenvalues --   -0.32590  -0.31742  -0.27426  -0.23661
 Alpha virt. eigenvalues --   -0.00906   0.06531   0.08722   0.10357   0.11889
 Alpha virt. eigenvalues --    0.12230   0.13129   0.13775   0.14316   0.15876
 Alpha virt. eigenvalues --    0.18285   0.19280   0.19558   0.20850   0.22229

 Mulliken charges:
               1
     1  O   -0.415797
     2  C   -0.111573
     3  C    0.010758
     4  C   -0.046658
     5  C   -0.248631
     6  C   -0.145042
     7  C    0.436382
     8  O   -0.333970
     9  C   -0.337852
    10  H    0.285069
    11  H    0.090887
    12  H    0.115180
    13  H    0.084948
    14  H    0.072747
    15  H    0.113868
    16  H    0.106430
    17  H    0.072816
    18  H    0.126209
    19  H    0.124230
 Sum of Mulliken charges =   0.00000

 Dipole moment (field-independent basis, Debye):
    X=              0.9107    Y=              2.5165    Z=              0.9058  Tot=              2.8254
 Quadrupole moment (field-independent basis, Debye-Ang):
   XX=            -64.4661   YY=            -54.6336   ZZ=            -50.7813
   XY=             -4.4907   XZ=              2.7131   YZ=             -2.0468

  Exact polarizability:  84.498   1.918  73.892   1.322  -1.756  67.656
 Approx polarizability: 116.485   7.105 115.472   0.036  -2.123 103.880

                      1                      2                      3
                      A                      A                      A
 Frequencies --     94.1247               115.1718               178.0581
 Red. masses --      3.0166                 6.7026                 3.1968
 Frc consts  --      0.0157                 0.0524                 0.0597
 IR Inten    --      3.4159                 2.6959                 4.2175

                      4                      5                      6
                      A                      A                      A
 Frequencies --    268.1740               309.7999               379.4755
 Red. masses --      1.9250                 1.2711                 3.5971
 Frc consts  --      0.0816                 0.0719                 0.3052
 IR Inten    --     22.5389                84.6825                11.1845

                      7                      8                      9
                      A                      A                      A
 Frequencies --    434.7086               457.5109               527.3114
 Red. masses --      4.3338                 2.1917                 2.9507
 Frc consts  --      0.4825                 0.2703                 0.4834
 IR Inten    --      5.3278                 1.8319                 4.0695

                     10                     11                     12
                      A                      A                      A
 Frequencies --    591.9445               616.7398               765.8087
 Red. masses --      4.1819                 2.5436                 3.0075
 Frc consts  --      0.8633                 0.5700                 1.0392
 IR Inten    --      2.2374                 1.3513                 9.6014

                     13                     14                     15
                      A                      A                      A
 Frequencies --    782.6723               815.4834               852.5777
 Red. masses --      2.4259                 3.1401                 2.4426
 Frc consts  --      0.8756                 1.2303                 1.0461
 IR Inten    --      3.6889                10.8522                 2.2203

                     16                     17                     18
                      A                      A                      A
 Frequencies --    902.6930               941.9924               957.2176
 Red. masses --      1.9969                 2.2822                 2.0009
 Frc consts  --      0.9587                 1.1931                 1.0802
 IR Inten    --      1.0428                 2.8954                 2.3607

                     19                     20                     21
                      A                      A                      A
 Frequencies --    991.9586              1001.7215              1031.7537
 Red. masses --      1.6727                 1.8771                 2.5289
 Frc consts  --      0.9697                 1.1098                 1.5861
 IR Inten    --      2.6678                 1.4821                86.2156

                     22                     23                     24
                      A                      A                      A
 Frequencies --   1052.6568              1079.7632              1086.4889
 Red. masses --      2.4444                 1.6166                 1.9511
 Frc consts  --      1.5959                 1.1105                 1.3570
 IR Inten    --     11.7925                19.3625                41.1480

                     25                     26                     27
                      A                      A                      A
 Frequencies --   1103.3691              1155.1359              1164.1611
 Red. masses --      1.3009                 2.1246                 1.5715
 Frc consts  --      0.9332                 1.6703                 1.2549
 IR Inten    --      2.9995                12.5625                 0.3847

                     28                     29                     30
                      A                      A                      A
 Frequencies --   1185.7997              1215.8392              1233.0124
 Red. masses --      1.2052                 1.4925                 1.6032
 Frc consts  --      0.9985                 1.2999                 1.4361
 IR Inten    --      9.5328                 1.9209                 7.0982

                     31                     32                     33
                      A                      A                      A
 Frequencies --   1248.6755              1264.8622              1272.6182
 Red. masses --      1.6582                 1.6382                 1.6820
 Frc consts  --      1.5233                 1.5442                 1.6050
 IR Inten    --      6.0795                 1.1365                 7.0215

                     34                     35                     36
                      A                      A                      A
 Frequencies --   1302.8916              1356.2538              1402.6668
 Red. masses --      1.5491                 1.3501                 1.1878
 Frc consts  --      1.5494                 1.4632                 1.3769
 IR Inten    --      5.3583                 2.6895                28.2338

                     37                     38                     39
                      A                      A                      A
 Frequencies --   1425.8676              1460.6395              1498.1058
 Red. masses --      1.3512                 1.0971                 1.0898
 Frc consts  --      1.6186                 1.3790                 1.4410
 IR Inten    --     34.9679                 3.6332                 1.3824

                     40                     41                     42
                      A                      A                      A
 Frequencies --   1522.1970              1871.5836              3001.3911
 Red. masses --      1.1003                12.4294                 1.0662
 Frc consts  --      1.5021                25.6518                 5.6591
 IR Inten    --      2.5196               281.8666                34.7279

                     43                     44                     45
                      A                      A                      A
 Frequencies --   3042.3750              3056.1171              3065.4954
 Red. masses --      1.0834                 1.0593                 1.0755
 Frc consts  --      5.9082                 5.8291                 5.9549
 IR Inten    --     23.8676                17.1293                 6.3979

                     46                     47                     48
                      A                      A                      A
 Frequencies --   3067.0467              3103.5959              3112.4012
 Red. masses --      1.0841                 1.1047                 1.0905
 Frc consts  --      6.0082                 6.2696                 6.2239
 IR Inten    --     66.1697                13.6944                35.6836

                     49                     50                     51
                      A                      A                      A
 Frequencies --   3127.2179              3139.7282              3816.8050
 Red. masses --      1.0910                 1.1014                 1.0661
 Frc consts  --      6.2863                 6.3970                 9.1510
 IR Inten    --     23.9722                23.2588                13.0892

 - Thermochemistry -
 -------------------
 Temperature   298.150 Kelvin.  Pressure   1.00000 Atm.
 Atom     1 has atomic number  8 and mass  15.99491

 Molecular mass:   126.06808 amu.
 Principal axes and moments of inertia in atomic units:
                           1         2         3
     Eigenvalues --   595.195091518.160771740.55566
           X            0.99978  -0.01888   0.00939
           Y            0.01901   0.99973  -0.01315
           Z           -0.00914   0.01332   0.99987
 This molecule is an asymmetric top.
 Rotational symmetry number  1.
 Warning -- assumption of classical behavior for rotation
           may cause significant error
 Rotational temperatures (Kelvin)      0.14552     0.05705     0.04976
 Rotational constants (GHZ):           3.03218     1.18877     1.03688
 Zero-point vibrational energy     421394.5 (Joules/Mol)
                                  100.71570 (Kcal/Mol)
 Warning -- explicit consideration of  11 degrees of freedom as
           vibrations may cause significant error
 Vibrational temperatures:    135.42   165.71   256.19   385.84   445.73
          (Kelvin)            545.98   625.45   658.26   758.68   851.68
                              887.35  1101.83  1126.09  1173.30  1226.67
                             1298.77  1355.32  1377.22  1427.21  1441.25
                             1484.46  1514.54  1553.54  1563.21  1587.50
                             1661.98  1674.97  1706.10  1749.32  1774.03
                             1796.56  1819.85  1831.01  1874.57  1951.34
                             2018.12  2051.50  2101.53  2155.44  2190.10
                             2692.79  4318.33  4377.29  4397.07  4410.56
                             4412.79  4465.38  4478.05  4499.36  4517.36
                             5491.52

 Zero-point correction=                           0.160501 (Hartree/Particle)
 Thermal correction to Energy=                    0.168481
 Thermal correction to Enthalpy=                  0.169425
 Thermal correction to Gibbs Free Energy=         0.127791
 Sum of electronic and zero-point Energies=           -423.025070
 Sum of electronic and thermal Energies=              -423.017090
 Sum of electronic and thermal Enthalpies=            -423.016146
 Sum of electronic and thermal Free Energies=         -423.057780

                     E (Thermal)             CV                S
                      KCal/Mol        Cal/Mol-Kelvin    Cal/Mol-Kelvin
 Total                  105.724             31.125             87.627
 Electronic               0.000              0.000              0.000
 Translational            0.889              2.981             40.409
 Rotational               0.889              2.981             28.844
 Vibrational            103.946             25.163             18.375
 Vibration     1          0.603              1.953              3.572
 Vibration     2          0.608              1.937              3.180
 Vibration     3          0.628              1.869              2.349
 Vibration     4          0.673              1.732              1.608
 Vibration     5          0.699              1.655              1.363
 Vibration     6          0.749              1.514              1.041
 Vibration     7          0.795              1.395              0.843
 Vibration     8          0.816              1.344              0.773
 Vibration     9          0.882              1.190              0.593
 Vibration    10          0.949              1.049              0.464
 Vibration    11          0.976              0.997              0.422

 Optimization completed.
    -- Stationary point found.
 Normal termination of Gaussian 09 at Fri Jan 31 18:35:35 2020.
