 Gaussian 09, Revision D.01,
 Gaussian 09:  ES64L-G09RevD.01 24-Apr-2013

 -----------------------------
 # b3lyp 6-31G(2df,p) opt Freq
 -----------------------------

 -----
 titel
 -----
 Symbolic Z-matrix:
 Charge =  0 Multiplicity = 1

 SCF Done:  E(RB3LYP) =  -423.132539095     A.U. after   14 cycles
 Optimization completed.
    -- Stationary point found.
 Normal termination of Gaussian 09 at Mon Jan 27 14:22:04 2020.

 ----------------------------------------------------------------------
 #N Geom=AllCheck Guess=TCheck SCRF=Check GenChk RB3LYP/6-31G(2df,p) Fr
 eq
 ----------------------------------------------------------------------

 Structure from the checkpoint file:  "/scratch/puck/g09_4471cd3e-7ad5-4fcc-9637-3ac56726aff9/Gau-78026.chk"
 -----
 titel
 -----
 Charge =  0 Multiplicity = 1

                         Standard orientation:
 ---------------------------------------------------------------------
 Center     Atomic      Atomic             Coordinates (Angstroms)
 Number     Number       Type             X           Y           Z
 ---------------------------------------------------------------------
      1          6           0       -2.934800    1.184927   -0.367589
      2          6           0       -2.336033   -0.228355   -0.308153
      3          8           0       -2.891741   -0.987067    0.765597
      4          6           0       -0.871823   -0.189009   -0.254752
      5          6           0        0.331249   -0.131598   -0.180677
      6          6           0        1.768646   -0.138299   -0.098484
      7          8           0        2.406996   -1.221851   -0.724230
      8          6           0        2.441024    0.445064    1.136544
      9          6           0        2.540420    1.152514   -0.190891
     10          1           0       -2.582102    1.721031   -1.253290
     11          1           0       -4.025130    1.115298   -0.399933
     12          1           0       -2.644969    1.761246    0.517163
     13          1           0       -2.639652   -0.774793   -1.209507
     14          1           0       -2.528572   -0.631845    1.584492
     15          1           0        2.073425   -2.029411   -0.316906
     16          1           0        1.813305    0.871620    1.910060
     17          1           0        3.317218   -0.089808    1.484671
     18          1           0        1.981295    2.068169   -0.338337
     19          1           0        3.481051    1.088380   -0.725336
 ---------------------------------------------------------------------

 SCF Done:  E(RB3LYP) =  -423.132539095     A.U. after    1 cycles

 The electronic state is 1-A.
 Alpha  occ. eigenvalues --  -19.14743 -19.13834 -10.26268 -10.25596 -10.19383
 Alpha  occ. eigenvalues --  -10.19323 -10.18204 -10.17999 -10.17629  -1.03495
 Alpha  occ. eigenvalues --   -1.02140  -0.85662  -0.78079  -0.73182  -0.65060
 Alpha  occ. eigenvalues --   -0.61659  -0.60985  -0.55425  -0.52500  -0.49115
 Alpha  occ. eigenvalues --   -0.46528  -0.45003  -0.43694  -0.40348  -0.39599
 Alpha  occ. eigenvalues --   -0.37871  -0.37451  -0.35417  -0.34638  -0.31722
 Alpha  occ. eigenvalues --   -0.28442  -0.28064  -0.25984  -0.23817
 Alpha virt. eigenvalues --    0.03225   0.03455   0.09095   0.09317   0.11631
 Alpha virt. eigenvalues --    0.12334   0.13413   0.13676   0.14783   0.16825
 Alpha virt. eigenvalues --    0.17312   0.18572   0.18923   0.22187   0.22368

 Mulliken charges:
               1
     1  C   -0.383860
     2  C   -0.023248
     3  O   -0.413902
     4  C    0.017860
     5  C    0.057546
     6  C    0.234032
     7  O   -0.444541
     8  C   -0.311819
     9  C   -0.288896
    10  H    0.126638
    11  H    0.126082
    12  H    0.114972
    13  H    0.120006
    14  H    0.280293
    15  H    0.285733
    16  H    0.120176
    17  H    0.123421
    18  H    0.126683
    19  H    0.132826
 Sum of Mulliken charges =   0.00000

 Dipole moment (field-independent basis, Debye):
    X=              0.2651    Y=              1.0360    Z=              1.2616  Tot=              1.6538
 Quadrupole moment (field-independent basis, Debye-Ang):
   XX=            -55.7047   YY=            -51.7279   ZZ=            -51.5459
   XY=             -3.6586   XZ=              3.3762   YZ=             -0.6728

  Exact polarizability: 114.014   2.035  68.849   3.136  -0.548  65.711
 Approx polarizability: 157.541   6.426  98.432   2.974   0.046  98.191

                      1                      2                      3
                      A                      A                      A
 Frequencies --     23.6426                77.3017                88.4624
 Red. masses --      3.5809                 3.9442                 4.0758
 Frc consts  --      0.0012                 0.0139                 0.0188
 IR Inten    --      0.8646                 1.0316                 0.1039

                      4                      5                      6
                      A                      A                      A
 Frequencies --    190.9797               207.8784               251.9740
 Red. masses --      3.0280                 2.2057                 1.1282
 Frc consts  --      0.0651                 0.0562                 0.0422
 IR Inten    --      2.0221                11.2990                 7.3952

                      7                      8                      9
                      A                      A                      A
 Frequencies --    284.0194               295.9141               324.6576
 Red. masses --      1.2830                 2.4350                 1.4047
 Frc consts  --      0.0610                 0.1256                 0.0872
 IR Inten    --    103.1521                14.4877                77.2613

                     10                     11                     12
                      A                      A                      A
 Frequencies --    377.0054               403.5925               504.0854
 Red. masses --      2.6402                 3.3759                 4.4134
 Frc consts  --      0.2211                 0.3240                 0.6607
 IR Inten    --      2.1451                25.3226                22.1441

                     13                     14                     15
                      A                      A                      A
 Frequencies --    512.8380               568.7881               589.1764
 Red. masses --      4.0447                 5.5668                 5.2986
 Frc consts  --      0.6268                 1.0611                 1.0837
 IR Inten    --     11.5537                 9.4496                 2.1167

                     16                     17                     18
                      A                      A                      A
 Frequencies --    642.3297               774.9940               822.7229
 Red. masses --      3.5744                 1.0910                 2.9841
 Frc consts  --      0.8689                 0.3861                 1.1901
 IR Inten    --      7.8811                 0.8594                 4.8275

                     19                     20                     21
                      A                      A                      A
 Frequencies --    883.2430               897.8144               924.4973
 Red. masses --      4.2602                 2.4234                 1.2687
 Frc consts  --      1.9581                 1.1509                 0.6389
 IR Inten    --     16.0070                15.9794                 6.7755

                     22                     23                     24
                      A                      A                      A
 Frequencies --    974.0808              1003.5924              1044.6552
 Red. masses --      1.7738                 2.5017                 1.8914
 Frc consts  --      0.9916                 1.4846                 1.2161
 IR Inten    --     11.6638                19.8463                67.6770

                     25                     26                     27
                      A                      A                      A
 Frequencies --   1053.3871              1081.2230              1089.1366
 Red. masses --      1.3533                 1.3901                 3.2355
 Frc consts  --      0.8847                 0.9575                 2.2613
 IR Inten    --     16.6806                 3.2064                24.6425

                     28                     29                     30
                      A                      A                      A
 Frequencies --   1135.5885              1193.6564              1239.4592
 Red. masses --      1.9409                 1.2791                 2.2042
 Frc consts  --      1.4747                 1.0737                 1.9951
 IR Inten    --     47.7904                 0.1969               123.7740

                     31                     32                     33
                      A                      A                      A
 Frequencies --   1279.5967              1304.8627              1336.5900
 Red. masses --      1.3502                 2.4542                 1.4569
 Frc consts  --      1.3026                 2.4620                 1.5335
 IR Inten    --      6.7567                18.9868                28.1633

                     34                     35                     36
                      A                      A                      A
 Frequencies --   1382.3992              1397.7034              1416.2768
 Red. masses --      1.6942                 1.2358                 1.1951
 Frc consts  --      1.9075                 1.4224                 1.4124
 IR Inten    --     54.7913                 4.6619                85.5938

                     37                     38                     39
                      A                      A                      A
 Frequencies --   1448.3208              1486.6166              1487.9390
 Red. masses --      1.0920                 1.3758                 1.0535
 Frc consts  --      1.3496                 1.7915                 1.3742
 IR Inten    --      2.2324                 3.3834                 7.1847

                     40                     41                     42
                      A                      A                      A
 Frequencies --   1492.0462              2343.8690              3036.2765
 Red. masses --      1.0849                11.9422                 1.0662
 Frc consts  --      1.4230                38.6546                 5.7914
 IR Inten    --      2.5305                12.5725                11.3702

                     43                     44                     45
                      A                      A                      A
 Frequencies --   3040.5078              3114.0596              3128.2020
 Red. masses --      1.0503                 1.1013                 1.1032
 Frc consts  --      5.7210                 6.2920                 6.3604
 IR Inten    --     18.1593                25.2534                22.0232

                     46                     47                     48
                      A                      A                      A
 Frequencies --   3140.1478              3148.0019              3230.7455
 Red. masses --      1.0517                 1.0558                 1.1196
 Frc consts  --      6.1100                 6.1645                 6.8855
 IR Inten    --      9.8510                 4.6490                 1.1008

                     49                     50                     51
                      A                      A                      A
 Frequencies --   3246.1419              3796.7026              3803.8411
 Red. masses --      1.1171                 1.0661                 1.0661
 Frc consts  --      6.9355                 9.0540                 9.0883
 IR Inten    --      6.6388                22.8189                15.5792

 - Thermochemistry -
 -------------------
 Temperature   298.150 Kelvin.  Pressure   1.00000 Atm.
 Atom     1 has atomic number  6 and mass  12.00000

 Molecular mass:   126.06808 amu.
 Principal axes and moments of inertia in atomic units:
                           1         2         3
     Eigenvalues --   517.790902574.917332733.49648
           X            0.99990  -0.00841   0.01165
           Y            0.00869   0.99967  -0.02409
           Z           -0.01144   0.02418   0.99964
 This molecule is an asymmetric top.
 Rotational symmetry number  1.
 Warning -- assumption of classical behavior for rotation
           may cause significant error
 Rotational temperatures (Kelvin)      0.16728     0.03364     0.03169
 Rotational constants (GHZ):           3.48546     0.70089     0.66023
 Zero-point vibrational energy     409849.8 (Joules/Mol)
                                   97.95646 (Kcal/Mol)
 Warning -- explicit consideration of  15 degrees of freedom as
           vibrations may cause significant error
 Vibrational temperatures:     34.02   111.22   127.28   274.78   299.09
          (Kelvin)            362.53   408.64   425.75   467.11   542.43
                              580.68   725.27   737.86   818.36   847.69
                              924.17  1115.04  1183.71  1270.79  1291.75
                             1330.14  1401.48  1443.94  1503.02  1515.59
                             1555.64  1567.02  1633.86  1717.40  1783.30
                             1841.05  1877.40  1923.05  1988.96  2010.98
                             2037.70  2083.81  2138.91  2140.81  2146.72
                             3372.30  4368.52  4374.61  4480.43  4500.78
                             4517.97  4529.27  4648.32  4670.47  5462.60
                             5472.87

 Zero-point correction=                           0.156104 (Hartree/Particle)
 Thermal correction to Energy=                    0.166423
 Thermal correction to Enthalpy=                  0.167367
 Thermal correction to Gibbs Free Energy=         0.119597
 Sum of electronic and zero-point Energies=           -422.976436
 Sum of electronic and thermal Energies=              -422.966116
 Sum of electronic and thermal Enthalpies=            -422.965172
 Sum of electronic and thermal Free Energies=         -423.012943

                     E (Thermal)             CV                S
                      KCal/Mol        Cal/Mol-Kelvin    Cal/Mol-Kelvin
 Total                  104.432             37.402            100.542
 Electronic               0.000              0.000              0.000
 Translational            0.889              2.981             40.409
 Rotational               0.889              2.981             29.679
 Vibrational            102.655             31.441             30.455
 Vibration     1          0.593              1.985              6.302
 Vibration     2          0.599              1.964              3.958
 Vibration     3          0.601              1.957              3.694
 Vibration     4          0.634              1.852              2.218
 Vibration     5          0.641              1.829              2.062
 Vibration     6          0.664              1.759              1.717
 Vibration     7          0.682              1.703              1.509
 Vibration     8          0.690              1.681              1.440
 Vibration     9          0.709              1.626              1.287
 Vibration    10          0.748              1.519              1.051
 Vibration    11          0.769              1.462              0.950
 Vibration    12          0.859              1.241              0.648
 Vibration    13          0.868              1.222              0.627
 Vibration    14          0.925              1.099              0.507
 Vibration    15          0.946              1.055              0.469

 Optimization completed.
    -- Stationary point found.
 Normal termination of Gaussian 09 at Mon Jan 27 14:54:02 2020.
