 Gaussian 09, Revision D.01,
 Gaussian 09:  ES64L-G09RevD.01 24-Apr-2013

 -----------------------------
 # b3lyp 6-31G(2df,p) opt Freq
 -----------------------------

 -----
 titel
 -----
 Symbolic Z-matrix:
 Charge =  0 Multiplicity = 1

 SCF Done:  E(RB3LYP) =  -423.101707004     A.U. after   13 cycles
 Optimization completed.
    -- Stationary point found.
 Normal termination of Gaussian 09 at Tue Jan 28 09:15:04 2020.

 ----------------------------------------------------------------------
 #N Geom=AllCheck Guess=TCheck SCRF=Check GenChk RB3LYP/6-31G(2df,p) Fr
 eq
 ----------------------------------------------------------------------

 Structure from the checkpoint file:  "/scratch/puck/g09_f6fe1622-ecd5-4461-8a56-a426a08c7f68/Gau-14471.chk"
 -----
 titel
 -----
 Charge =  0 Multiplicity = 1

                         Standard orientation:
 ---------------------------------------------------------------------
 Center     Atomic      Atomic             Coordinates (Angstroms)
 Number     Number       Type             X           Y           Z
 ---------------------------------------------------------------------
      1          6           0        2.585641   -0.183851    0.378497
      2          8           0        1.651620   -0.485431   -0.651637
      3          6           0        0.351611   -0.355376   -0.273165
      4          6           0       -0.882314   -0.180329   -1.071393
      5          8           0       -1.590033   -1.283312   -0.513422
      6          6           0       -0.677080   -1.202508    0.615524
      7          6           0       -1.088085    0.113765    1.320784
      8          6           0       -0.553912    0.831165    0.080152
      9          6           0       -0.372604    2.298588   -0.165960
     10          1           0        2.484822   -0.877783    1.223946
     11          1           0        3.581130   -0.293675   -0.055761
     12          1           0        2.458184    0.842858    0.744568
     13          1           0       -1.058062    0.108260   -2.099329
     14          1           0       -0.539341   -2.147970    1.135643
     15          1           0       -2.151932    0.202358    1.563829
     16          1           0       -0.474185    0.321508    2.202283
     17          1           0       -1.337461    2.817295   -0.207973
     18          1           0        0.223149    2.771242    0.623461
     19          1           0        0.141466    2.477118   -1.116832
 ---------------------------------------------------------------------

 SCF Done:  E(RB3LYP) =  -423.101707004     A.U. after    1 cycles

 The electronic state is 1-A.
 Alpha  occ. eigenvalues --  -19.16272 -19.13321 -10.23785 -10.23656 -10.23434
 Alpha  occ. eigenvalues --  -10.23079 -10.19723 -10.18509 -10.18492  -1.06712
 Alpha  occ. eigenvalues --   -1.04343  -0.85444  -0.73396  -0.72660  -0.69371
 Alpha  occ. eigenvalues --   -0.62619  -0.55139  -0.54267  -0.51209  -0.48086
 Alpha  occ. eigenvalues --   -0.46357  -0.45692  -0.43583  -0.42527  -0.40467
 Alpha  occ. eigenvalues --   -0.39538  -0.38293  -0.37244  -0.35122  -0.32764
 Alpha  occ. eigenvalues --   -0.32178  -0.26487  -0.23535  -0.22725
 Alpha virt. eigenvalues --    0.07086   0.09201   0.10586   0.11261   0.12789
 Alpha virt. eigenvalues --    0.13568   0.13899   0.15046   0.15878   0.16765
 Alpha virt. eigenvalues --    0.17239   0.17734   0.18479   0.18603   0.21552

 Mulliken charges:
               1
     1  C   -0.258665
     2  O   -0.273676
     3  C    0.333291
     4  C   -0.045940
     5  O   -0.288611
     6  C   -0.013721
     7  C   -0.275681
     8  C    0.201894
     9  C   -0.512907
    10  H    0.116916
    11  H    0.133561
    12  H    0.119160
    13  H    0.110945
    14  H    0.088286
    15  H    0.100060
    16  H    0.095223
    17  H    0.126144
    18  H    0.118641
    19  H    0.125081
 Sum of Mulliken charges =   0.00000

 Dipole moment (field-independent basis, Debye):
    X=              1.5277    Y=              1.5173    Z=              1.4730  Tot=              2.6088
 Quadrupole moment (field-independent basis, Debye-Ang):
   XX=            -53.4728   YY=            -53.8724   ZZ=            -51.6229
   XY=             -2.0796   XZ=              1.6817   YZ=             -3.0139

  Exact polarizability:  78.913  -0.366  76.004   0.845  -2.247  70.743
 Approx polarizability: 111.252   0.811 108.970   2.219  -0.043 108.613

                      1                      2                      3
                      A                      A                      A
 Frequencies --     83.6678               147.4573               160.6338
 Red. masses --      2.7312                 1.5875                 1.7111
 Frc consts  --      0.0113                 0.0203                 0.0260
 IR Inten    --      1.5980                 0.3542                 0.3429

                      4                      5                      6
                      A                      A                      A
 Frequencies --    195.1344               216.5319               269.6509
 Red. masses --      1.1160                 2.2212                 2.6169
 Frc consts  --      0.0250                 0.0614                 0.1121
 IR Inten    --      0.5213                 0.7316                 1.3129

                      7                      8                      9
                      A                      A                      A
 Frequencies --    365.9952               401.2688               457.2000
 Red. masses --      4.0087                 2.9955                 2.5496
 Frc consts  --      0.3164                 0.2842                 0.3140
 IR Inten    --      4.2802                 4.7644                 0.6610

                     10                     11                     12
                      A                      A                      A
 Frequencies --    557.1941               611.2986               637.9123
 Red. masses --      3.6510                 3.6033                 3.8541
 Frc consts  --      0.6679                 0.7933                 0.9240
 IR Inten    --      7.1197                 7.4030                 8.6454

                     13                     14                     15
                      A                      A                      A
 Frequencies --    725.8826               815.3148               852.3365
 Red. masses --      5.5446                 3.2921                 4.2275
 Frc consts  --      1.7213                 1.2893                 1.8095
 IR Inten    --      2.7329                11.4678                 4.7309

                     16                     17                     18
                      A                      A                      A
 Frequencies --    916.2996               922.3016               928.6494
 Red. masses --      2.1798                 2.4354                 1.9170
 Frc consts  --      1.0783                 1.2206                 0.9741
 IR Inten    --      9.2025                29.7561                 7.1463

                     19                     20                     21
                      A                      A                      A
 Frequencies --    961.4555              1000.5200              1036.5371
 Red. masses --      1.9049                 1.5857                 3.0435
 Frc consts  --      1.0375                 0.9353                 1.9266
 IR Inten    --      3.9513                 8.3225                39.9707

                     22                     23                     24
                      A                      A                      A
 Frequencies --   1053.1245              1077.7534              1111.2172
 Red. masses --      5.5229                 1.9149                 2.0860
 Frc consts  --      3.6089                 1.3105                 1.5176
 IR Inten    --     47.7398                 9.6133                 6.5232

                     25                     26                     27
                      A                      A                      A
 Frequencies --   1142.7314              1153.1397              1176.0282
 Red. masses --      1.5911                 1.9196                 1.2914
 Frc consts  --      1.2242                 1.5039                 1.0523
 IR Inten    --      6.3784                 0.6261                 3.1691

                     28                     29                     30
                      A                      A                      A
 Frequencies --   1196.6245              1211.3875              1233.8469
 Red. masses --      1.5952                 1.6451                 1.6286
 Frc consts  --      1.3458                 1.4224                 1.4608
 IR Inten    --      0.8820                14.1603                 5.2907

                     31                     32                     33
                      A                      A                      A
 Frequencies --   1246.2238              1291.1215              1348.1499
 Red. masses --      2.2861                 1.6339                 3.3312
 Frc consts  --      2.0919                 1.6048                 3.5672
 IR Inten    --     60.6471                17.1010                36.6293

                     34                     35                     36
                      A                      A                      A
 Frequencies --   1417.0530              1439.9640              1481.7195
 Red. masses --      1.3410                 1.7134                 1.1319
 Frc consts  --      1.5866                 2.0933                 1.4641
 IR Inten    --      0.6283                51.4408                 1.8951

                     37                     38                     39
                      A                      A                      A
 Frequencies --   1485.9134              1488.2402              1496.1373
 Red. masses --      1.0571                 1.0585                 1.0934
 Frc consts  --      1.3752                 1.3813                 1.4420
 IR Inten    --      3.9131                 4.2765                 4.2331

                     40                     41                     42
                      A                      A                      A
 Frequencies --   1503.1580              1516.3447              3002.1305
 Red. masses --      1.0488                 1.9824                 1.0345
 Frc consts  --      1.3962                 2.6856                 5.4933
 IR Inten    --     12.6885                46.7382                41.0153

                     43                     44                     45
                      A                      A                      A
 Frequencies --   3020.3161              3043.1219              3061.5200
 Red. masses --      1.0353                 1.0561                 1.1038
 Frc consts  --      5.5646                 5.7624                 6.0958
 IR Inten    --     35.8633                40.3065                39.6930

                     46                     47                     48
                      A                      A                      A
 Frequencies --   3078.9949              3089.8637              3102.3342
 Red. masses --      1.1010                 1.1001                 1.1084
 Frc consts  --      6.1498                 6.1883                 6.2850
 IR Inten    --     22.7799                18.2032                28.4581

                     49                     50                     51
                      A                      A                      A
 Frequencies --   3130.7728              3146.6539              3210.4999
 Red. masses --      1.0996                 1.0927                 1.0953
 Frc consts  --      6.3501                 6.3743                 6.6515
 IR Inten    --     24.8078                31.8370                 8.8930

 - Thermochemistry -
 -------------------
 Temperature   298.150 Kelvin.  Pressure   1.00000 Atm.
 Atom     1 has atomic number  6 and mass  12.00000

 Molecular mass:   126.06808 amu.
 Principal axes and moments of inertia in atomic units:
                           1         2         3
     Eigenvalues --   783.818471083.843091368.90553
           X            0.99917  -0.03821   0.01442
           Y            0.03881   0.99828  -0.04402
           Z           -0.01271   0.04455   0.99893
 This molecule is an asymmetric top.
 Rotational symmetry number  1.
 Warning -- assumption of classical behavior for rotation
           may cause significant error
 Rotational temperatures (Kelvin)      0.11050     0.07991     0.06327
 Rotational constants (GHZ):           2.30250     1.66513     1.31838
 Zero-point vibrational energy     414023.5 (Joules/Mol)
                                   98.95400 (Kcal/Mol)
 Warning -- explicit consideration of  11 degrees of freedom as
           vibrations may cause significant error
 Vibrational temperatures:    120.38   212.16   231.12   280.75   311.54
          (Kelvin)            387.97   526.58   577.34   657.81   801.68
                              879.52   917.81  1044.38  1173.05  1226.32
                             1318.35  1326.98  1336.12  1383.32  1439.52
                             1491.34  1515.21  1550.64  1598.79  1644.13
                             1659.11  1692.04  1721.67  1742.91  1775.23
                             1793.04  1857.63  1939.68  2038.82  2071.78
                             2131.86  2137.90  2141.24  2152.61  2162.71
                             2181.68  4319.39  4345.56  4378.37  4404.84
                             4429.98  4445.62  4463.56  4504.48  4527.33
                             4619.19

 Zero-point correction=                           0.157693 (Hartree/Particle)
 Thermal correction to Energy=                    0.166285
 Thermal correction to Enthalpy=                  0.167229
 Thermal correction to Gibbs Free Energy=         0.124510
 Sum of electronic and zero-point Energies=           -422.944014
 Sum of electronic and thermal Energies=              -422.935422
 Sum of electronic and thermal Enthalpies=            -422.934478
 Sum of electronic and thermal Free Energies=         -422.977197

                     E (Thermal)             CV                S
                      KCal/Mol        Cal/Mol-Kelvin    Cal/Mol-Kelvin
 Total                  104.346             32.362             89.910
 Electronic               0.000              0.000              0.000
 Translational            0.889              2.981             40.409
 Rotational               0.889              2.981             28.544
 Vibrational            102.568             26.400             20.958
 Vibration     1          0.601              1.960              3.803
 Vibration     2          0.617              1.905              2.705
 Vibration     3          0.622              1.891              2.542
 Vibration     4          0.636              1.847              2.178
 Vibration     5          0.645              1.816              1.988
 Vibration     6          0.674              1.729              1.598
 Vibration     7          0.739              1.542              1.097
 Vibration     8          0.767              1.467              0.958
 Vibration     9          0.815              1.345              0.774
 Vibration    10          0.913              1.124              0.529
 Vibration    11          0.970              1.008              0.431

 Normal termination of Gaussian 09 at Tue Jan 28 10:01:46 2020.
