 Gaussian 09, Revision D.01,
 Gaussian 09:  ES64L-G09RevD.01 24-Apr-2013

 -----------------------------
 # b3lyp 6-31G(2df,p) opt Freq
 -----------------------------

 -----
 titel
 -----
 Symbolic Z-matrix:
 Charge =  0 Multiplicity = 1

 SCF Done:  E(RB3LYP) =  -423.206591377     A.U. after   14 cycles
 Optimization completed.
    -- Stationary point found.
 Normal termination of Gaussian 09 at Mon Jan 27 12:52:11 2020.

 ----------------------------------------------------------------------
 #N Geom=AllCheck Guess=TCheck SCRF=Check GenChk RB3LYP/6-31G(2df,p) Fr
 eq
 ----------------------------------------------------------------------

 Structure from the checkpoint file:  "/scratch/puck/g09_3bc7de4c-f3c2-4078-8b6a-044fed9f4f63/Gau-50467.chk"
 -----
 titel
 -----
 Charge =  0 Multiplicity = 1

                         Standard orientation:
 ---------------------------------------------------------------------
 Center     Atomic      Atomic             Coordinates (Angstroms)
 Number     Number       Type             X           Y           Z
 ---------------------------------------------------------------------
      1          6           0        2.363640    0.417348    0.314899
      2          6           0        1.979395   -0.805146   -0.524380
      3          8           0        0.677992   -0.500094   -1.015371
      4          6           0       -0.053572    0.155987    0.011250
      5          6           0        1.010352    0.807858    0.935311
      6          8           0       -0.819792   -0.774674    0.774699
      7          6           0       -2.191674   -0.705080    0.406702
      8          6           0       -2.302282    0.534415   -0.435932
      9          6           0       -1.091410    1.036313   -0.637181
     10          1           0        3.132498    0.199687    1.060463
     11          1           0        2.738230    1.212450   -0.337159
     12          1           0        2.629584   -0.980494   -1.385142
     13          1           0        1.955701   -1.717814    0.089694
     14          1           0        0.868750    1.888694    1.002937
     15          1           0        0.883946    0.390500    1.936413
     16          1           0       -2.499389   -1.604727   -0.149186
     17          1           0       -2.799346   -0.659297    1.320766
     18          1           0       -3.242206    0.913855   -0.815887
     19          1           0       -0.820069    1.905128   -1.221535
 ---------------------------------------------------------------------

 SCF Done:  E(RB3LYP) =  -423.206591377     A.U. after    1 cycles

 The electronic state is 1-A.
 Alpha  occ. eigenvalues --  -19.13315 -19.13126 -10.27444 -10.22938 -10.22031
 Alpha  occ. eigenvalues --  -10.18863 -10.18214 -10.18182 -10.17953  -1.06050
 Alpha  occ. eigenvalues --   -1.00419  -0.78810  -0.77724  -0.74344  -0.66017
 Alpha  occ. eigenvalues --   -0.59826  -0.57195  -0.55605  -0.50925  -0.48507
 Alpha  occ. eigenvalues --   -0.47012  -0.45499  -0.44682  -0.41141  -0.40096
 Alpha  occ. eigenvalues --   -0.37773  -0.35267  -0.34498  -0.33810  -0.33317
 Alpha  occ. eigenvalues --   -0.31345  -0.27798  -0.25485  -0.24525
 Alpha virt. eigenvalues --    0.01383   0.09076   0.11091   0.12088   0.14085
 Alpha virt. eigenvalues --    0.14484   0.14957   0.15803   0.16535   0.17691
 Alpha virt. eigenvalues --    0.17859   0.18475   0.19574   0.20681   0.22250

 Mulliken charges:
               1
     1  C   -0.210835
     2  C   -0.087050
     3  O   -0.277308
     4  C    0.483015
     5  C   -0.309439
     6  O   -0.297346
     7  C   -0.136621
     8  C   -0.103009
     9  C   -0.141814
    10  H    0.101957
    11  H    0.105034
    12  H    0.104189
    13  H    0.099412
    14  H    0.107896
    15  H    0.123483
    16  H    0.111883
    17  H    0.110251
    18  H    0.108942
    19  H    0.107359
 Sum of Mulliken charges =   0.00000

 Dipole moment (field-independent basis, Debye):
    X=             -0.1004    Y=              1.1576    Z=              0.2909  Tot=              1.1978
 Quadrupole moment (field-independent basis, Debye-Ang):
   XX=            -45.1162   YY=            -52.5674   ZZ=            -55.1737
   XY=             -0.2285   XZ=              0.7394   YZ=             -0.8284

  Exact polarizability:  99.464   3.465  68.987  -1.589  -3.400  62.702
 Approx polarizability: 131.890   8.893 102.341  -4.323  -6.991  95.991

                      1                      2                      3
                      A                      A                      A
 Frequencies --     44.4912               105.4776               198.0805
 Red. masses --      2.6154                 3.2732                 2.1212
 Frc consts  --      0.0031                 0.0215                 0.0490
 IR Inten    --      1.8467                 3.9242                 1.0749

                      4                      5                      6
                      A                      A                      A
 Frequencies --    262.4717               360.7927               432.6960
 Red. masses --      2.1825                 2.7586                 5.3328
 Frc consts  --      0.0886                 0.2116                 0.5883
 IR Inten    --      2.3714                 2.3445                 0.3868

                      7                      8                      9
                      A                      A                      A
 Frequencies --    468.1291               523.8983               607.4791
 Red. masses --      3.4441                 3.8079                 1.8973
 Frc consts  --      0.4447                 0.6158                 0.4125
 IR Inten    --      5.9556                 2.8518                 1.6490

                     10                     11                     12
                      A                      A                      A
 Frequencies --    735.5328               747.9735               781.7737
 Red. masses --      1.5855                 2.8634                 5.1741
 Frc consts  --      0.5054                 0.9439                 1.8631
 IR Inten    --      9.0353                19.6061                 6.9278

                     13                     14                     15
                      A                      A                      A
 Frequencies --    828.4490               838.4691               891.3012
 Red. masses --      4.4851                 1.8910                 1.9587
 Frc consts  --      1.8136                 0.7833                 0.9168
 IR Inten    --     24.4105                 4.5619                15.8373

                     16                     17                     18
                      A                      A                      A
 Frequencies --    932.5595               950.5008               954.4502
 Red. masses --      2.6395                 2.1610                 1.3509
 Frc consts  --      1.3525                 1.1503                 0.7251
 IR Inten    --      5.1827                 0.1439                 5.9250

                     19                     20                     21
                      A                      A                      A
 Frequencies --    960.6849              1008.2723              1018.4173
 Red. masses --      2.1637                 1.9608                 2.8195
 Frc consts  --      1.1765                 1.1744                 1.7230
 IR Inten    --     44.6857                 3.9312                32.1602

                     22                     23                     24
                      A                      A                      A
 Frequencies --   1040.2053              1056.8990              1076.8866
 Red. masses --      1.8023                 3.5544                 2.5070
 Frc consts  --      1.1490                 2.3393                 1.7129
 IR Inten    --      3.5510               187.8730                87.3762

                     25                     26                     27
                      A                      A                      A
 Frequencies --   1119.0053              1162.9916              1172.3763
 Red. masses --      2.3940                 1.9108                 1.8130
 Frc consts  --      1.7662                 1.5227                 1.4682
 IR Inten    --     48.5544                24.5455                33.8388

                     28                     29                     30
                      A                      A                      A
 Frequencies --   1201.7168              1214.2374              1254.0058
 Red. masses --      1.1196                 1.4213                 1.6210
 Frc consts  --      0.9526                 1.2346                 1.5019
 IR Inten    --      5.3961                 6.0942                18.7086

                     31                     32                     33
                      A                      A                      A
 Frequencies --   1263.1784              1314.5892              1335.3842
 Red. masses --      1.2137                 1.4248                 1.3639
 Frc consts  --      1.1410                 1.4507                 1.4330
 IR Inten    --      2.5090                15.7153                 1.4674

                     34                     35                     36
                      A                      A                      A
 Frequencies --   1371.1718              1373.6412              1383.9985
 Red. masses --      2.1618                 1.5407                 1.3387
 Frc consts  --      2.3947                 1.7128                 1.5107
 IR Inten    --     29.2796                 5.7131                 3.2275

                     37                     38                     39
                      A                      A                      A
 Frequencies --   1481.9166              1495.7652              1510.1097
 Red. masses --      1.0808                 1.0976                 1.0861
 Frc consts  --      1.3984                 1.4469                 1.4593
 IR Inten    --      2.0227                 5.0977                 0.7590

                     40                     41                     42
                      A                      A                      A
 Frequencies --   1518.5686              1691.6950              2983.8498
 Red. masses --      1.0990                 6.6624                 1.0658
 Frc consts  --      1.4931                11.2337                 5.5908
 IR Inten    --      0.4775                 4.2073                65.7419

                     43                     44                     45
                      A                      A                      A
 Frequencies --   2995.2991              3024.6695              3054.0539
 Red. masses --      1.0698                 1.0952                 1.0619
 Frc consts  --      5.6547                 5.9036                 5.8356
 IR Inten    --     58.3624                41.3060                25.0833

                     46                     47                     48
                      A                      A                      A
 Frequencies --   3075.1043              3094.9020              3104.1448
 Red. masses --      1.0612                 1.0929                 1.1042
 Frc consts  --      5.9126                 6.1675                 6.2688
 IR Inten    --     20.4434                34.0167                19.9171

                     49                     50                     51
                      A                      A                      A
 Frequencies --   3125.7796              3210.7921              3236.9471
 Red. masses --      1.1058                 1.0861                 1.1069
 Frc consts  --      6.3654                 6.5973                 6.8336
 IR Inten    --     23.1152                 3.8787                 6.9906

 - Thermochemistry -
 -------------------
 Temperature   298.150 Kelvin.  Pressure   1.00000 Atm.
 Atom     1 has atomic number  6 and mass  12.00000

 Molecular mass:   126.06808 amu.
 Principal axes and moments of inertia in atomic units:
                           1         2         3
     Eigenvalues --   473.939781418.954601449.19960
           X            0.99996   0.00512   0.00676
           Y           -0.00510   0.99998  -0.00232
           Z           -0.00677   0.00228   0.99997
 This molecule is an asymmetric top.
 Rotational symmetry number  1.
 Warning -- assumption of classical behavior for rotation
           may cause significant error
 Rotational temperatures (Kelvin)      0.18275     0.06104     0.05977
 Rotational constants (GHZ):           3.80795     1.27188     1.24534
 Zero-point vibrational energy     422256.6 (Joules/Mol)
                                  100.92174 (Kcal/Mol)
 Warning -- explicit consideration of   9 degrees of freedom as
           vibrations may cause significant error
 Vibrational temperatures:     64.01   151.76   284.99   377.64   519.10
          (Kelvin)            622.55   673.53   753.77   874.03  1058.27
                             1076.17  1124.80  1191.95  1206.37  1282.38
                             1341.74  1367.56  1373.24  1382.21  1450.68
                             1465.27  1496.62  1520.64  1549.40  1610.00
                             1673.28  1686.79  1729.00  1747.01  1804.23
                             1817.43  1891.40  1921.32  1972.81  1976.36
                             1991.26  2132.14  2152.07  2172.71  2184.88
                             2433.97  4293.09  4309.56  4351.82  4394.10
                             4424.38  4452.87  4466.17  4497.29  4619.61
                             4657.24

 Zero-point correction=                           0.160829 (Hartree/Particle)
 Thermal correction to Energy=                    0.168502
 Thermal correction to Enthalpy=                  0.169446
 Thermal correction to Gibbs Free Energy=         0.127972
 Sum of electronic and zero-point Energies=           -423.045762
 Sum of electronic and thermal Energies=              -423.038090
 Sum of electronic and thermal Enthalpies=            -423.037145
 Sum of electronic and thermal Free Energies=         -423.078619

                     E (Thermal)             CV                S
                      KCal/Mol        Cal/Mol-Kelvin    Cal/Mol-Kelvin
 Total                  105.736             29.682             87.289
 Electronic               0.000              0.000              0.000
 Translational            0.889              2.981             40.409
 Rotational               0.889              2.981             28.368
 Vibrational            103.959             23.720             18.512
 Vibration     1          0.595              1.980              5.048
 Vibration     2          0.605              1.945              3.350
 Vibration     3          0.637              1.843              2.151
 Vibration     4          0.670              1.742              1.645
 Vibration     5          0.735              1.553              1.119
 Vibration     6          0.794              1.399              0.850
 Vibration     7          0.825              1.321              0.743
 Vibration     8          0.879              1.197              0.601
 Vibration     9          0.966              1.016              0.437

 Normal termination of Gaussian 09 at Mon Jan 27 13:32:11 2020.
