 Gaussian 09, Revision D.01,
 Gaussian 09:  ES64L-G09RevD.01 24-Apr-2013

 -----------------------------
 # b3lyp 6-31G(2df,p) opt Freq
 -----------------------------

 -----
 titel
 -----
 Symbolic Z-matrix:
 Charge =  0 Multiplicity = 1

 SCF Done:  E(RB3LYP) =  -423.177243650     A.U. after   14 cycles
 Optimization completed.
    -- Stationary point found.
 Normal termination of Gaussian 09 at Mon Jan 27 16:20:20 2020.

 ----------------------------------------------------------------------
 #N Geom=AllCheck Guess=TCheck SCRF=Check GenChk RB3LYP/6-31G(2df,p) Fr
 eq
 ----------------------------------------------------------------------

 Structure from the checkpoint file:  "/scratch/puck/g09_cd902690-8b73-403b-b1ea-be82af83a739/Gau-39444.chk"
 -----
 titel
 -----
 Charge =  0 Multiplicity = 1

                         Standard orientation:
 ---------------------------------------------------------------------
 Center     Atomic      Atomic             Coordinates (Angstroms)
 Number     Number       Type             X           Y           Z
 ---------------------------------------------------------------------
      1          6           0       -1.669248    1.229762   -0.860261
      2          6           0       -1.226449    0.008095   -0.076893
      3          8           0       -2.408450   -0.533612    0.493640
      4          6           0       -0.371925   -1.064038   -0.832815
      5          6           0        0.714794   -1.011171    0.289872
      6          6           0       -0.087530    0.157450    0.985252
      7          6           0        1.070125    1.148395    0.673658
      8          6           0        1.826981   -0.003720   -0.018413
      9          8           0        2.891785   -0.087468   -0.557502
     10          1           0       -2.431634    0.938186   -1.589104
     11          1           0       -2.107394    1.976642   -0.191017
     12          1           0       -0.837846    1.686607   -1.402313
     13          1           0       -2.165448   -1.287278    1.042239
     14          1           0       -0.886375   -2.025199   -0.904924
     15          1           0       -0.021608   -0.787608   -1.830814
     16          1           0        1.004729   -1.953390    0.756161
     17          1           0       -0.422410    0.123694    2.022494
     18          1           0        0.855512    2.035606    0.072836
     19          1           0        1.605304    1.472750    1.572939
 ---------------------------------------------------------------------

 SCF Done:  E(RB3LYP) =  -423.177243650     A.U. after    1 cycles

 The electronic state is 1-A.
 Alpha  occ. eigenvalues --  -19.14252 -19.13728 -10.27008 -10.24664 -10.19898
 Alpha  occ. eigenvalues --  -10.19854 -10.19620 -10.19400 -10.17843  -1.04629
 Alpha  occ. eigenvalues --   -1.02782  -0.87551  -0.76080  -0.72779  -0.65000
 Alpha  occ. eigenvalues --   -0.63553  -0.56833  -0.53434  -0.50430  -0.47144
 Alpha  occ. eigenvalues --   -0.46753  -0.44601  -0.41971  -0.41589  -0.41090
 Alpha  occ. eigenvalues --   -0.39617  -0.38371  -0.36784  -0.35174  -0.34140
 Alpha  occ. eigenvalues --   -0.31680  -0.29629  -0.26484  -0.24179
 Alpha virt. eigenvalues --   -0.02314   0.06456   0.08600   0.09847   0.10646
 Alpha virt. eigenvalues --    0.12519   0.13965   0.14596   0.15822   0.16564
 Alpha virt. eigenvalues --    0.17809   0.18346   0.19323   0.20256   0.22452

 Mulliken charges:
               1
     1  C   -0.425541
     2  C    0.416139
     3  O   -0.473514
     4  C   -0.297012
     5  C   -0.166251
     6  C   -0.098359
     7  C   -0.373390
     8  C    0.410887
     9  O   -0.296950
    10  H    0.129591
    11  H    0.125199
    12  H    0.115672
    13  H    0.277014
    14  H    0.111974
    15  H    0.114935
    16  H    0.090484
    17  H    0.073338
    18  H    0.129761
    19  H    0.136024
 Sum of Mulliken charges =   0.00000

 Dipole moment (field-independent basis, Debye):
    X=             -1.4204    Y=             -0.3325    Z=              1.3478  Tot=              1.9861
 Quadrupole moment (field-independent basis, Debye-Ang):
   XX=            -68.0877   YY=            -49.1796   ZZ=            -50.7891
   XY=              1.7717   XZ=              3.5592   YZ=             -1.6383

  Exact polarizability:  84.401   0.930  73.992  -0.671   1.312  67.640
 Approx polarizability: 121.913   1.631 107.753  -7.334   1.966 103.586

                      1                      2                      3
                      A                      A                      A
 Frequencies --     34.4926               146.1029               209.6052
 Red. masses --      4.0746                 3.6186                 1.5592
 Frc consts  --      0.0029                 0.0455                 0.0404
 IR Inten    --      4.1984                 3.2854                 1.7341

                      4                      5                      6
                      A                      A                      A
 Frequencies --    258.7479               311.9937               336.7185
 Red. masses --      1.5584                 1.1425                 2.1495
 Frc consts  --      0.0615                 0.0655                 0.1436
 IR Inten    --      9.5178                61.0779                12.7893

                      7                      8                      9
                      A                      A                      A
 Frequencies --    361.0893               385.9299               445.3263
 Red. masses --      3.1650                 3.9811                 3.4047
 Frc consts  --      0.2431                 0.3494                 0.3978
 IR Inten    --      5.2338                 9.0485                 1.1228

                     10                     11                     12
                      A                      A                      A
 Frequencies --    456.9343               512.7319               593.4436
 Red. masses --      2.9402                 1.8667                 3.9145
 Frc consts  --      0.3617                 0.2891                 0.8122
 IR Inten    --      0.5234                 1.4795                 2.0414

                     13                     14                     15
                      A                      A                      A
 Frequencies --    689.9846               729.0299               814.4020
 Red. masses --      3.2496                 2.2373                 2.7833
 Frc consts  --      0.9115                 0.7006                 1.0877
 IR Inten    --      2.3184                 1.1995                 6.4207

                     16                     17                     18
                      A                      A                      A
 Frequencies --    830.6981               874.2828               916.9168
 Red. masses --      1.7866                 2.5039                 1.9272
 Frc consts  --      0.7264                 1.1276                 0.9546
 IR Inten    --      2.3675                 4.3386                 5.2255

                     19                     20                     21
                      A                      A                      A
 Frequencies --    938.1234               945.5778               966.6247
 Red. masses --      3.3917                 2.0589                 1.7944
 Frc consts  --      1.7587                 1.0846                 0.9878
 IR Inten    --     15.8806                25.3282                 7.2685

                     22                     23                     24
                      A                      A                      A
 Frequencies --   1002.6616              1036.7144              1080.4844
 Red. masses --      2.4766                 1.7405                 1.7423
 Frc consts  --      1.4669                 1.1021                 1.1984
 IR Inten    --      1.2810                36.1673                25.2692

                     25                     26                     27
                      A                      A                      A
 Frequencies --   1098.3886              1110.7763              1143.6908
 Red. masses --      1.8208                 1.6034                 1.7954
 Frc consts  --      1.2942                 1.1656                 1.3836
 IR Inten    --     20.2286                 9.6639                 6.5921

                     28                     29                     30
                      A                      A                      A
 Frequencies --   1171.7712              1204.0703              1211.5252
 Red. masses --      1.9529                 1.7244                 1.8214
 Frc consts  --      1.5799                 1.4730                 1.5751
 IR Inten    --      9.6953                22.1506                25.0587

                     31                     32                     33
                      A                      A                      A
 Frequencies --   1225.7813              1243.6733              1265.1420
 Red. masses --      1.5501                 1.6227                 1.6789
 Frc consts  --      1.3723                 1.4788                 1.5833
 IR Inten    --     37.6599                 2.5124                 5.8613

                     34                     35                     36
                      A                      A                      A
 Frequencies --   1306.6885              1378.8089              1422.6248
 Red. masses --      1.7635                 1.4711                 1.5817
 Frc consts  --      1.7741                 1.6477                 1.8861
 IR Inten    --     12.2162                54.3661                26.1344

                     37                     38                     39
                      A                      A                      A
 Frequencies --   1436.8599              1475.3045              1487.3166
 Red. masses --      1.0947                 1.0937                 1.0527
 Frc consts  --      1.3316                 1.4026                 1.3721
 IR Inten    --     12.1710                 4.2744                 0.9295

                     40                     41                     42
                      A                      A                      A
 Frequencies --   1496.3528              1888.7663              3043.8010
 Red. masses --      1.0535                12.6479                 1.0360
 Frc consts  --      1.3898                26.5842                 5.6553
 IR Inten    --      2.2767               288.2203                11.8159

                     43                     44                     45
                      A                      A                      A
 Frequencies --   3053.3891              3060.2060              3100.7138
 Red. masses --      1.0613                 1.0587                 1.0904
 Frc consts  --      5.8299                 5.8417                 6.1766
 IR Inten    --      9.9888                22.3074                20.6996

                     46                     47                     48
                      A                      A                      A
 Frequencies --   3108.5711              3110.7828              3113.2962
 Red. masses --      1.0993                 1.0970                 1.1015
 Frc consts  --      6.2588                 6.2546                 6.2901
 IR Inten    --      0.4049                15.1793                11.9664

                     49                     50                     51
                      A                      A                      A
 Frequencies --   3117.8600              3128.6531              3801.7494
 Red. masses --      1.1015                 1.1004                 1.0660
 Frc consts  --      6.3088                 6.3462                 9.0779
 IR Inten    --     20.1612                25.2703                11.2252

 - Thermochemistry -
 -------------------
 Temperature   298.150 Kelvin.  Pressure   1.00000 Atm.
 Atom     1 has atomic number  6 and mass  12.00000

 Molecular mass:   126.06808 amu.
 Principal axes and moments of inertia in atomic units:
                           1         2         3
     Eigenvalues --   536.637131506.770231606.83910
           X            0.99976  -0.00366   0.02175
           Y            0.00450   0.99923  -0.03892
           Z           -0.02159   0.03901   0.99901
 This molecule is an asymmetric top.
 Rotational symmetry number  1.
 Warning -- assumption of classical behavior for rotation
           may cause significant error
 Rotational temperatures (Kelvin)      0.16140     0.05748     0.05390
 Rotational constants (GHZ):           3.36306     1.19775     1.12316
 Zero-point vibrational energy     413221.1 (Joules/Mol)
                                   98.76222 (Kcal/Mol)
 Warning -- explicit consideration of  12 degrees of freedom as
           vibrations may cause significant error
 Vibrational temperatures:     49.63   210.21   301.57   372.28   448.89
          (Kelvin)            484.46   519.53   555.27   640.72   657.43
                              737.71   853.83   992.73  1048.91  1171.74
                             1195.19  1257.90  1319.24  1349.75  1360.47
                             1390.76  1442.60  1491.60  1554.57  1580.33
                             1598.16  1645.51  1685.92  1732.39  1743.11
                             1763.62  1789.37  1820.25  1880.03  1983.80
                             2046.84  2067.32  2122.63  2139.91  2152.92
                             2717.51  4379.35  4393.14  4402.95  4461.23
                             4472.53  4475.72  4479.33  4485.90  4501.43
                             5469.86

 Zero-point correction=                           0.157388 (Hartree/Particle)
 Thermal correction to Energy=                    0.166031
 Thermal correction to Enthalpy=                  0.166975
 Thermal correction to Gibbs Free Energy=         0.123831
 Sum of electronic and zero-point Energies=           -423.019856
 Sum of electronic and thermal Energies=              -423.011213
 Sum of electronic and thermal Enthalpies=            -423.010269
 Sum of electronic and thermal Free Energies=         -423.053412

                     E (Thermal)             CV                S
                      KCal/Mol        Cal/Mol-Kelvin    Cal/Mol-Kelvin
 Total                  104.186             33.555             90.803
 Electronic               0.000              0.000              0.000
 Translational            0.889              2.981             40.409
 Rotational               0.889              2.981             28.654
 Vibrational            102.408             27.593             21.741
 Vibration     1          0.594              1.983              5.553
 Vibration     2          0.617              1.907              2.722
 Vibration     3          0.642              1.826              2.047
 Vibration     4          0.668              1.748              1.670
 Vibration     5          0.700              1.651              1.352
 Vibration     6          0.717              1.602              1.228
 Vibration     7          0.735              1.552              1.117
 Vibration     8          0.755              1.500              1.016
 Vibration     9          0.805              1.371              0.810
 Vibration    10          0.815              1.346              0.775
 Vibration    11          0.868              1.222              0.627
 Vibration    12          0.951              1.046              0.461

 Optimization completed.
    -- Stationary point found.
 Normal termination of Gaussian 09 at Mon Jan 27 17:01:11 2020.
