 Gaussian 09, Revision D.01,
 Gaussian 09:  ES64L-G09RevD.01 24-Apr-2013

 -----------------------------
 # b3lyp 6-31G(2df,p) opt Freq
 -----------------------------

 -----
 titel
 -----
 Symbolic Z-matrix:
 Charge =  0 Multiplicity = 1

 SCF Done:  E(RB3LYP) =  -423.176766483     A.U. after   14 cycles
 Optimization completed.
    -- Stationary point found.
 Normal termination of Gaussian 09 at Tue Jan 28 01:52:08 2020.

 ----------------------------------------------------------------------
 #N Geom=AllCheck Guess=TCheck SCRF=Check GenChk RB3LYP/6-31G(2df,p) Fr
 eq
 ----------------------------------------------------------------------

 Structure from the checkpoint file:  "/scratch/puck/g09_91e3e7c0-7702-405c-b86f-2efe006932b6/Gau-110863.chk"
 -----
 titel
 -----
 Charge =  0 Multiplicity = 1

                         Standard orientation:
 ---------------------------------------------------------------------
 Center     Atomic      Atomic             Coordinates (Angstroms)
 Number     Number       Type             X           Y           Z
 ---------------------------------------------------------------------
      1          6           0        0.368080    2.262520   -0.216076
      2          6           0       -0.356696    1.167525    0.558849
      3          6           0       -1.816825    0.849456    0.076366
      4          6           0       -1.376445   -0.600834   -0.186931
      5          8           0       -1.924091   -1.593097   -0.583355
      6          6           0        0.022664   -0.303944    0.264573
      7          6           0        0.884851   -1.273746    1.058272
      8          6           0        1.263167   -0.915463   -0.342150
      9          8           0        2.335769   -0.052915   -0.571868
     10          1           0       -0.112625    3.231336   -0.041920
     11          1           0        1.415944    2.334133    0.082571
     12          1           0        0.347910    2.061879   -1.292308
     13          1           0       -0.324731    1.383840    1.630978
     14          1           0       -2.608297    0.948453    0.824395
     15          1           0       -2.125327    1.382972   -0.828510
     16          1           0        1.481166   -0.836789    1.853241
     17          1           0        0.467290   -2.255227    1.259518
     18          1           0        1.083449   -1.655603   -1.122453
     19          1           0        3.149014   -0.539980   -0.401146
 ---------------------------------------------------------------------

 SCF Done:  E(RB3LYP) =  -423.176766483     A.U. after    1 cycles

 The electronic state is 1-A.
 Alpha  occ. eigenvalues --  -19.15558 -19.12747 -10.26054 -10.25042 -10.19887
 Alpha  occ. eigenvalues --  -10.19852 -10.19823 -10.18620 -10.17204  -1.04176
 Alpha  occ. eigenvalues --   -1.03517  -0.87492  -0.80942  -0.71355  -0.62903
 Alpha  occ. eigenvalues --   -0.61816  -0.58408  -0.52717  -0.52263  -0.47275
 Alpha  occ. eigenvalues --   -0.45952  -0.44680  -0.42515  -0.41018  -0.40239
 Alpha  occ. eigenvalues --   -0.38929  -0.37387  -0.36337  -0.35078  -0.32935
 Alpha  occ. eigenvalues --   -0.31581  -0.28256  -0.27345  -0.23470
 Alpha virt. eigenvalues --   -0.01799   0.06575   0.10007   0.10585   0.11999
 Alpha virt. eigenvalues --    0.13320   0.13897   0.15853   0.16538   0.16997
 Alpha virt. eigenvalues --    0.17819   0.18781   0.19846   0.20333   0.23230

 Mulliken charges:
               1
     1  C   -0.389744
     2  C   -0.086955
     3  C   -0.368575
     4  C    0.351924
     5  O   -0.320593
     6  C    0.214813
     7  C   -0.377974
     8  C    0.043900
     9  O   -0.416331
    10  H    0.108110
    11  H    0.129380
    12  H    0.117720
    13  H    0.078138
    14  H    0.128329
    15  H    0.128936
    16  H    0.122487
    17  H    0.133224
    18  H    0.109277
    19  H    0.293934
 Sum of Mulliken charges =   0.00000

 Dipole moment (field-independent basis, Debye):
    X=              2.2738    Y=              0.9007    Z=              1.4221  Tot=              2.8291
 Quadrupole moment (field-independent basis, Debye-Ang):
   XX=            -51.4483   YY=            -55.2319   ZZ=            -52.5428
   XY=             -8.6630   XZ=             -0.8739   YZ=             -1.0695

  Exact polarizability:  86.467  -3.007  81.598   2.310  -0.034  64.048
 Approx polarizability: 122.139   0.707 115.810   5.242   2.866  99.536

                      1                      2                      3
                      A                      A                      A
 Frequencies --     49.4531               119.0787               163.8745
 Red. masses --      2.7935                 4.9859                 4.1627
 Frc consts  --      0.0040                 0.0417                 0.0659
 IR Inten    --      2.2710                 2.2815                 3.3507

                      4                      5                      6
                      A                      A                      A
 Frequencies --    204.9105               259.1549               262.6735
 Red. masses --      2.8333                 1.1331                 1.2394
 Frc consts  --      0.0701                 0.0448                 0.0504
 IR Inten    --      9.2795                56.3794                33.4115

                      7                      8                      9
                      A                      A                      A
 Frequencies --    300.9372               314.3062               402.0043
 Red. masses --      2.3456                 3.2493                 2.9081
 Frc consts  --      0.1252                 0.1891                 0.2769
 IR Inten    --      5.9168                 8.0792                 1.9320

                     10                     11                     12
                      A                      A                      A
 Frequencies --    467.5876               515.0983               582.7007
 Red. masses --      2.3978                 2.1151                 3.8734
 Frc consts  --      0.3089                 0.3307                 0.7749
 IR Inten    --      3.0938                 2.2546                 9.8062

                     13                     14                     15
                      A                      A                      A
 Frequencies --    601.5689               692.3048               776.0850
 Red. masses --      4.0359                 3.2875                 2.6107
 Frc consts  --      0.8605                 0.9284                 0.9265
 IR Inten    --      0.4923                10.2645                 1.7057

                     16                     17                     18
                      A                      A                      A
 Frequencies --    820.4302               863.6257               882.3835
 Red. masses --      2.7984                 1.8127                 2.0426
 Frc consts  --      1.1098                 0.7966                 0.9370
 IR Inten    --      1.3199                12.8322                 1.9587

                     19                     20                     21
                      A                      A                      A
 Frequencies --    918.6211               982.3915              1024.7689
 Red. masses --      1.6348                 1.7680                 2.1521
 Frc consts  --      0.8128                 1.0053                 1.3316
 IR Inten    --     14.5349                35.7564                12.9402

                     22                     23                     24
                      A                      A                      A
 Frequencies --   1046.3674              1066.1171              1076.8748
 Red. masses --      1.7739                 1.7766                 1.7510
 Frc consts  --      1.1443                 1.1897                 1.1964
 IR Inten    --     14.0934                 2.7440                24.9401

                     25                     26                     27
                      A                      A                      A
 Frequencies --   1104.5969              1123.6704              1160.2391
 Red. masses --      1.7590                 2.0969                 1.9357
 Frc consts  --      1.2645                 1.5599                 1.5353
 IR Inten    --     14.1806                34.1635                 8.0088

                     28                     29                     30
                      A                      A                      A
 Frequencies --   1181.1224              1195.0575              1232.8132
 Red. masses --      2.0448                 1.8147                 1.7564
 Frc consts  --      1.6807                 1.5270                 1.5728
 IR Inten    --     19.6994                11.7393                 8.7583

                     31                     32                     33
                      A                      A                      A
 Frequencies --   1259.9071              1300.5462              1324.4357
 Red. masses --      1.4402                 1.3258                 1.7911
 Frc consts  --      1.3469                 1.3212                 1.8511
 IR Inten    --     17.6476                65.0970                38.7583

                     34                     35                     36
                      A                      A                      A
 Frequencies --   1362.3887              1412.0041              1417.3980
 Red. masses --      1.5997                 1.2879                 1.2922
 Frc consts  --      1.7494                 1.5129                 1.5295
 IR Inten    --     16.1431                16.5765                14.5870

                     37                     38                     39
                      A                      A                      A
 Frequencies --   1438.9095              1470.3392              1494.0386
 Red. masses --      1.1164                 1.7491                 1.0548
 Frc consts  --      1.3618                 2.2280                 1.3873
 IR Inten    --      3.2409                35.2434                 7.8866

                     40                     41                     42
                      A                      A                      A
 Frequencies --   1495.2010              1872.8041              3035.6914
 Red. masses --      1.0492                12.6851                 1.0374
 Frc consts  --      1.3820                26.2137                 5.6326
 IR Inten    --      1.2952               266.1263                23.5592

                     43                     44                     45
                      A                      A                      A
 Frequencies --   3053.6448              3056.8019              3100.5612
 Red. masses --      1.0773                 1.0676                 1.1015
 Frc consts  --      5.9186                 5.8774                 6.2391
 IR Inten    --     16.3427                10.0585                33.0685

                     46                     47                     48
                      A                      A                      A
 Frequencies --   3101.3546              3110.8833              3122.6715
 Red. masses --      1.0873                 1.1043                 1.0530
 Frc consts  --      6.1617                 6.2966                 6.0497
 IR Inten    --     16.3188                14.8364                 7.8842

                     49                     50                     51
                      A                      A                      A
 Frequencies --   3129.1233              3218.8016              3803.9222
 Red. masses --      1.0992                 1.1179                 1.0662
 Frc consts  --      6.3415                 6.8243                 9.0901
 IR Inten    --     16.6544                 3.4618                30.1991

 - Thermochemistry -
 -------------------
 Temperature   298.150 Kelvin.  Pressure   1.00000 Atm.
 Atom     1 has atomic number  6 and mass  12.00000

 Molecular mass:   126.06808 amu.
 Principal axes and moments of inertia in atomic units:
                           1         2         3
     Eigenvalues --   850.802351113.779681655.24779
           X            0.99433  -0.10636  -0.00089
           Y            0.10633   0.99415  -0.01904
           Z            0.00291   0.01884   0.99982
 This molecule is an asymmetric top.
 Rotational symmetry number  1.
 Warning -- assumption of classical behavior for rotation
           may cause significant error
 Rotational temperatures (Kelvin)      0.10180     0.07777     0.05233
 Rotational constants (GHZ):           2.12122     1.62038     1.09031
 Zero-point vibrational energy     412545.6 (Joules/Mol)
                                   98.60077 (Kcal/Mol)
 Warning -- explicit consideration of  13 degrees of freedom as
           vibrations may cause significant error
 Vibrational temperatures:     71.15   171.33   235.78   294.82   372.87
          (Kelvin)            377.93   432.98   452.22   578.39   672.75
                              741.11   838.38   865.52   996.07  1116.61
                             1180.41  1242.56  1269.55  1321.69  1413.44
                             1474.41  1505.49  1533.90  1549.38  1589.27
                             1616.71  1669.32  1699.37  1719.42  1773.74
                             1812.72  1871.19  1905.57  1960.17  2031.56
                             2039.32  2070.27  2115.49  2149.59  2151.26
                             2694.54  4367.68  4393.51  4398.05  4461.01
                             4462.15  4475.86  4492.82  4502.10  4631.13
                             5472.99

 Zero-point correction=                           0.157130 (Hartree/Particle)
 Thermal correction to Energy=                    0.166333
 Thermal correction to Enthalpy=                  0.167278
 Thermal correction to Gibbs Free Energy=         0.123010
 Sum of electronic and zero-point Energies=           -423.019636
 Sum of electronic and thermal Energies=              -423.010433
 Sum of electronic and thermal Enthalpies=            -423.009489
 Sum of electronic and thermal Free Energies=         -423.053757

                     E (Thermal)             CV                S
                      KCal/Mol        Cal/Mol-Kelvin    Cal/Mol-Kelvin
 Total                  104.376             34.395             93.169
 Electronic               0.000              0.000              0.000
 Translational            0.889              2.981             40.409
 Rotational               0.889              2.981             28.841
 Vibrational            102.598             28.433             23.920
 Vibration     1          0.595              1.978              4.839
 Vibration     2          0.609              1.933              3.115
 Vibration     3          0.623              1.887              2.505
 Vibration     4          0.640              1.833              2.089
 Vibration     5          0.668              1.747              1.667
 Vibration     6          0.670              1.741              1.644
 Vibration     7          0.693              1.672              1.412
 Vibration     8          0.702              1.646              1.340
 Vibration     9          0.768              1.466              0.955
 Vibration    10          0.825              1.322              0.744
 Vibration    11          0.870              1.217              0.621
 Vibration    12          0.940              1.069              0.480
 Vibration    13          0.960              1.028              0.447

 Optimization completed.
    -- Stationary point found.
 Normal termination of Gaussian 09 at Tue Jan 28 02:33:07 2020.
