 Gaussian 09, Revision D.01,
 Gaussian 09:  ES64L-G09RevD.01 24-Apr-2013

 -----------------------------
 # b3lyp 6-31G(2df,p) opt Freq
 -----------------------------

 -----
 titel
 -----
 Symbolic Z-matrix:
 Charge =  0 Multiplicity = 1

 SCF Done:  E(RB3LYP) =  -423.218357439     A.U. after   14 cycles
 SCF Done:  E(RB3LYP) =  -423.218357397     A.U. after    7 cycles
 SCF Done:  E(RB3LYP) =  -423.218355745     A.U. after    8 cycles
 SCF Done:  E(RB3LYP) =  -423.218357095     A.U. after    7 cycles
 SCF Done:  E(RB3LYP) =  -423.218356790     A.U. after    7 cycles
 SCF Done:  E(RB3LYP) =  -423.218356715     A.U. after    7 cycles
 Optimization completed.
    -- Stationary point found.
 Normal termination of Gaussian 09 at Mon Jan 27 14:00:14 2020.

 ----------------------------------------------------------------------
 #N Geom=AllCheck Guess=TCheck SCRF=Check GenChk RB3LYP/6-31G(2df,p) Fr
 eq
 ----------------------------------------------------------------------

 Structure from the checkpoint file:  "/scratch/puck/g09_4ff4d36b-96ec-426a-b0ff-0a13c3fbe4cb/Gau-170591.chk"
 -----
 titel
 -----
 Charge =  0 Multiplicity = 1

                         Standard orientation:
 ---------------------------------------------------------------------
 Center     Atomic      Atomic             Coordinates (Angstroms)
 Number     Number       Type             X           Y           Z
 ---------------------------------------------------------------------
      1          8           0        2.521267   -1.439094   -0.245576
      2          6           0        1.531645   -1.141722    0.369428
      3          6           0        0.230021   -0.678588   -0.244441
      4          6           0       -0.937987   -1.644730    0.051092
      5          6           0       -2.183958   -0.798534   -0.248147
      6          6           0       -1.821592    0.626185    0.234613
      7          6           0       -0.264210    0.672220    0.349759
      8          6           0        0.325032    1.857784   -0.382166
      9          8           0        1.038455    2.692238    0.107997
     10          1           0        1.502036   -1.207926    1.483767
     11          1           0        0.379620   -0.593535   -1.327056
     12          1           0       -0.879031   -2.562020   -0.540371
     13          1           0       -0.915329   -1.931844    1.110630
     14          1           0       -2.372353   -0.795344   -1.327050
     15          1           0       -3.084571   -1.188043    0.233654
     16          1           0       -2.191760    1.388027   -0.459751
     17          1           0       -2.265799    0.850749    1.207369
     18          1           0        0.044095    0.750318    1.397367
     19          1           0        0.031612    1.908782   -1.458756
 ---------------------------------------------------------------------

 SCF Done:  E(RB3LYP) =  -423.218356715     A.U. after    2 cycles

 The electronic state is 1-A.
 Alpha  occ. eigenvalues --  -19.14586 -19.14580 -10.27682 -10.27675 -10.21274
 Alpha  occ. eigenvalues --  -10.21235 -10.20628 -10.20585 -10.20141  -1.05378
 Alpha  occ. eigenvalues --   -1.05256  -0.86664  -0.75431  -0.75011  -0.64330
 Alpha  occ. eigenvalues --   -0.60478  -0.58420  -0.57776  -0.51075  -0.48980
 Alpha  occ. eigenvalues --   -0.45355  -0.45122  -0.43971  -0.43579  -0.41877
 Alpha  occ. eigenvalues --   -0.39880  -0.38761  -0.37225  -0.35933  -0.35450
 Alpha  occ. eigenvalues --   -0.34592  -0.33981  -0.25816  -0.25579
 Alpha virt. eigenvalues --   -0.03439  -0.02266   0.07262   0.07654   0.10243
 Alpha virt. eigenvalues --    0.12595   0.13020   0.13705   0.14857   0.16302
 Alpha virt. eigenvalues --    0.16653   0.16923   0.18193   0.20744   0.21870

 Mulliken charges:
               1
     1  O   -0.244799
     2  C    0.155392
     3  C   -0.082569
     4  C   -0.229837
     5  C   -0.208885
     6  C   -0.246683
     7  C   -0.073622
     8  C    0.154650
     9  O   -0.244508
    10  H    0.075636
    11  H    0.096470
    12  H    0.117673
    13  H    0.107763
    14  H    0.110372
    15  H    0.108745
    16  H    0.112003
    17  H    0.121182
    18  H    0.095709
    19  H    0.075308
 Sum of Mulliken charges =   0.00000

 Dipole moment (field-independent basis, Debye):
    X=             -4.2152    Y=             -1.4494    Z=              0.2640  Tot=              4.4653
 Quadrupole moment (field-independent basis, Debye-Ang):
   XX=            -60.9334   YY=            -61.1589   ZZ=            -51.0494
   XY=             -0.0343   XZ=              1.3163   YZ=             -2.5238

  Exact polarizability:  84.720   1.928  78.503   0.396   0.297  68.454
 Approx polarizability: 121.696   4.208 110.119  -1.825   4.786 110.053

                      1                      2                      3
                      A                      A                      A
 Frequencies --     36.8347                50.6744                79.8292
 Red. masses --      2.5506                10.2855                 3.8207
 Frc consts  --      0.0020                 0.0156                 0.0143
 IR Inten    --      0.3271                 2.7660                 6.3317

                      4                      5                      6
                      A                      A                      A
 Frequencies --    152.8622               249.0549               266.0378
 Red. masses --      2.3464                 2.4725                 2.1141
 Frc consts  --      0.0323                 0.0904                 0.0882
 IR Inten    --      2.6295                 7.3467                 1.5571

                      7                      8                      9
                      A                      A                      A
 Frequencies --    334.1523               407.1537               421.9566
 Red. masses --      2.4729                 3.7405                 3.5359
 Frc consts  --      0.1627                 0.3653                 0.3709
 IR Inten    --      0.7455                 1.1948                 2.5409

                     10                     11                     12
                      A                      A                      A
 Frequencies --    456.2202               585.6635               672.2567
 Red. masses --      5.9490                 2.0155                 3.1473
 Frc consts  --      0.7295                 0.4073                 0.8380
 IR Inten    --      2.3812                 9.2987                15.7099

                     13                     14                     15
                      A                      A                      A
 Frequencies --    796.5567               851.0462               892.5181
 Red. masses --      1.3963                 1.9829                 2.5023
 Frc consts  --      0.5220                 0.8462                 1.1744
 IR Inten    --      7.7271                 1.6737                 1.1118

                     16                     17                     18
                      A                      A                      A
 Frequencies --    909.1607               957.0145               977.0014
 Red. masses --      2.6052                 2.1491                 2.0896
 Frc consts  --      1.2687                 1.1597                 1.1752
 IR Inten    --      1.0085                 1.0058                 2.4715

                     19                     20                     21
                      A                      A                      A
 Frequencies --   1003.4131              1017.3865              1059.1930
 Red. masses --      2.2545                 1.7835                 1.9124
 Frc consts  --      1.3374                 1.0877                 1.2641
 IR Inten    --     11.7802                 9.3340                24.1705

                     22                     23                     24
                      A                      A                      A
 Frequencies --   1086.5610              1091.2457              1107.2353
 Red. masses --      2.3221                 2.5614                 2.4438
 Frc consts  --      1.6153                 1.7971                 1.7652
 IR Inten    --     20.8866                 7.6805                 2.2639

                     25                     26                     27
                      A                      A                      A
 Frequencies --   1191.3863              1201.3265              1242.7024
 Red. masses --      1.7091                 1.3592                 1.3627
 Frc consts  --      1.4293                 1.1558                 1.2399
 IR Inten    --      8.1659                 7.3482                 0.7823

                     28                     29                     30
                      A                      A                      A
 Frequencies --   1253.5540              1296.4491              1309.7693
 Red. masses --      1.3589                 1.3218                 1.3063
 Frc consts  --      1.2582                 1.3090                 1.3204
 IR Inten    --      4.1112                 0.5855                 1.2539

                     31                     32                     33
                      A                      A                      A
 Frequencies --   1323.1222              1343.0873              1344.8470
 Red. masses --      1.2837                 1.3360                 1.2395
 Frc consts  --      1.3241                 1.4199                 1.3208
 IR Inten    --      0.2334                 1.3012                 1.3972

                     34                     35                     36
                      A                      A                      A
 Frequencies --   1361.1836              1424.8444              1428.0300
 Red. masses --      1.4500                 1.1902                 1.1889
 Frc consts  --      1.5829                 1.4237                 1.4284
 IR Inten    --      1.5754                 1.4793                 3.8134

                     37                     38                     39
                      A                      A                      A
 Frequencies --   1489.3227              1490.6849              1509.1874
 Red. masses --      1.0792                 1.0862                 1.1007
 Frc consts  --      1.4104                 1.4221                 1.4771
 IR Inten    --      1.0715                 3.8144                 0.7833

                     40                     41                     42
                      A                      A                      A
 Frequencies --   1832.8110              1840.7294              2841.8274
 Red. masses --     10.5060                10.4615                 1.0817
 Frc consts  --     20.7932                20.8846                 5.1468
 IR Inten    --    169.4517               229.6262                53.1706

                     43                     44                     45
                      A                      A                      A
 Frequencies --   2845.3001              3025.8531              3044.6829
 Red. masses --      1.0813                 1.0682                 1.0658
 Frc consts  --      5.1578                 5.7621                 5.8210
 IR Inten    --    124.7638                17.6170                13.7630

                     46                     47                     48
                      A                      A                      A
 Frequencies --   3047.5579              3055.1402              3060.1827
 Red. masses --      1.0800                 1.0646                 1.0852
 Frc consts  --      5.9099                 5.8547                 5.9875
 IR Inten    --      9.2445                39.7391                10.9835

                     49                     50                     51
                      A                      A                      A
 Frequencies --   3089.1017              3100.4126              3109.4393
 Red. masses --      1.0981                 1.0971                 1.1029
 Frc consts  --      6.1737                 6.2135                 6.2829
 IR Inten    --     11.4736                14.2341                45.0016

 - Thermochemistry -
 -------------------
 Temperature   298.150 Kelvin.  Pressure   1.00000 Atm.
 Atom     1 has atomic number  8 and mass  15.99491

 Molecular mass:   126.06808 amu.
 Principal axes and moments of inertia in atomic units:
                           1         2         3
     Eigenvalues --  1080.279261103.676772031.97969
           X            0.85530   0.51809   0.00692
           Y           -0.51803   0.85532  -0.00880
           Z           -0.01047   0.00394   0.99994
 This molecule is an asymmetric top.
 Rotational symmetry number  1.
 Warning -- assumption of classical behavior for rotation
           may cause significant error
 Rotational temperatures (Kelvin)      0.08018     0.07848     0.04263
 Rotational constants (GHZ):           1.67062     1.63521     0.88817
 Zero-point vibrational energy     416082.5 (Joules/Mol)
                                   99.44611 (Kcal/Mol)
 Warning -- explicit consideration of  11 degrees of freedom as
           vibrations may cause significant error
 Vibrational temperatures:     53.00    72.91   114.86   219.93   358.33
          (Kelvin)            382.77   480.77   585.80   607.10   656.40
                              842.64   967.23  1146.07  1224.46  1284.13
                             1308.08  1376.93  1405.69  1443.69  1463.79
                             1523.94  1563.32  1570.06  1593.06  1714.14
                             1728.44  1787.97  1803.58  1865.30  1884.46
                             1903.68  1932.40  1934.93  1958.44  2050.03
                             2054.61  2142.80  2144.76  2171.38  2637.00
                             2648.40  4088.75  4093.75  4353.52  4380.61
                             4384.75  4395.66  4402.91  4444.52  4460.80
                             4473.78

 Zero-point correction=                           0.158477 (Hartree/Particle)
 Thermal correction to Energy=                    0.167556
 Thermal correction to Enthalpy=                  0.168500
 Thermal correction to Gibbs Free Energy=         0.122827
 Sum of electronic and zero-point Energies=           -423.059879
 Sum of electronic and thermal Energies=              -423.050801
 Sum of electronic and thermal Enthalpies=            -423.049856
 Sum of electronic and thermal Free Energies=         -423.095529

                     E (Thermal)             CV                S
                      KCal/Mol        Cal/Mol-Kelvin    Cal/Mol-Kelvin
 Total                  105.143             32.056             96.127
 Electronic               0.000              0.000              0.000
 Translational            0.889              2.981             40.409
 Rotational               0.889              2.981             29.273
 Vibrational            103.366             26.095             26.446
 Vibration     1          0.594              1.982              5.422
 Vibration     2          0.595              1.977              4.791
 Vibration     3          0.600              1.963              3.895
 Vibration     4          0.619              1.899              2.636
 Vibration     5          0.662              1.764              1.737
 Vibration     6          0.672              1.735              1.622
 Vibration     7          0.716              1.607              1.240
 Vibration     8          0.772              1.455              0.937
 Vibration     9          0.784              1.423              0.885
 Vibration    10          0.814              1.347              0.777
 Vibration    11          0.943              1.062              0.475

 Normal termination of Gaussian 09 at Mon Jan 27 14:40:38 2020.
