 Gaussian 09, Revision D.01,
 Gaussian 09:  ES64L-G09RevD.01 24-Apr-2013

 -----------------------------
 # b3lyp 6-31G(2df,p) opt Freq
 -----------------------------

 -----
 titel
 -----
 Symbolic Z-matrix:
 Charge =  0 Multiplicity = 1

 SCF Done:  E(RB3LYP) =  -423.212624904     A.U. after   14 cycles
 Optimization completed.
    -- Stationary point found.
 Normal termination of Gaussian 09 at Tue Jan 28 14:25:32 2020.

 ----------------------------------------------------------------------
 #N Geom=AllCheck Guess=TCheck SCRF=Check GenChk RB3LYP/6-31G(2df,p) Fr
 eq
 ----------------------------------------------------------------------

 Structure from the checkpoint file:  "/scratch/puck/g09_36b3f00a-b1b5-425d-ae56-948ac9f1d83e/Gau-163930.chk"
 -----
 titel
 -----
 Charge =  0 Multiplicity = 1

                         Standard orientation:
 ---------------------------------------------------------------------
 Center     Atomic      Atomic             Coordinates (Angstroms)
 Number     Number       Type             X           Y           Z
 ---------------------------------------------------------------------
      1          6           0        3.335369   -0.213247   -0.428670
      2          6           0        2.090580    0.165793    0.354000
      3          8           0        0.999115   -0.588428   -0.169230
      4          6           0       -0.227118   -0.383575    0.488357
      5          6           0       -1.224460   -1.497785    0.123942
      6          6           0       -2.486515   -0.761865   -0.245567
      7          6           0       -2.334149    0.568129   -0.283496
      8          6           0       -0.945462    0.929926    0.069004
      9          8           0       -0.437536    2.028292    0.037408
     10          1           0        4.203630    0.330269   -0.044223
     11          1           0        3.532454   -1.286341   -0.348427
     12          1           0        3.213499    0.034936   -1.486887
     13          1           0        2.216082   -0.072035    1.424257
     14          1           0        1.882678    1.238052    0.274566
     15          1           0       -0.076964   -0.342080    1.580719
     16          1           0       -0.835060   -2.066990   -0.728159
     17          1           0       -1.388398   -2.214948    0.935227
     18          1           0       -3.409310   -1.288648   -0.466006
     19          1           0       -3.080720    1.304618   -0.551911
 ---------------------------------------------------------------------

 SCF Done:  E(RB3LYP) =  -423.212624904     A.U. after    1 cycles

 The electronic state is 1-A.
 Alpha  occ. eigenvalues --  -19.14078 -19.12567 -10.26064 -10.23868 -10.22034
 Alpha  occ. eigenvalues --  -10.21938 -10.20064 -10.19547 -10.17124  -1.04278
 Alpha  occ. eigenvalues --   -1.02338  -0.85257  -0.75855  -0.71300  -0.67822
 Alpha  occ. eigenvalues --   -0.60849  -0.57718  -0.54183  -0.50395  -0.48845
 Alpha  occ. eigenvalues --   -0.46546  -0.43462  -0.42194  -0.41381  -0.40461
 Alpha  occ. eigenvalues --   -0.38937  -0.38407  -0.37393  -0.35225  -0.34968
 Alpha  occ. eigenvalues --   -0.31800  -0.28338  -0.27680  -0.22173
 Alpha virt. eigenvalues --   -0.05036   0.04824   0.10191   0.11128   0.12177
 Alpha virt. eigenvalues --    0.13753   0.15169   0.15308   0.16327   0.16690
 Alpha virt. eigenvalues --    0.17775   0.18707   0.18887   0.20473   0.22630

 Mulliken charges:
               1
     1  C   -0.385590
     2  C   -0.047963
     3  O   -0.257700
     4  C    0.023664
     5  C   -0.303229
     6  C   -0.053247
     7  C   -0.164443
     8  C    0.363306
     9  O   -0.333776
    10  H    0.115532
    11  H    0.120543
    12  H    0.127957
    13  H    0.080883
    14  H    0.129128
    15  H    0.087039
    16  H    0.142255
    17  H    0.118868
    18  H    0.118514
    19  H    0.118260
 Sum of Mulliken charges =   0.00000

 Dipole moment (field-independent basis, Debye):
    X=             -1.3816    Y=             -2.3696    Z=              0.6726  Tot=              2.8242
 Quadrupole moment (field-independent basis, Debye-Ang):
   XX=            -45.4839   YY=            -57.6506   ZZ=            -52.5557
   XY=              2.8983   XZ=              1.4594   YZ=             -0.5868

  Exact polarizability:  95.243   5.979  85.118   3.742  -1.023  57.206
 Approx polarizability: 117.976  16.549 147.387   4.684  -0.214  88.595

                      1                      2                      3
                      A                      A                      A
 Frequencies --     48.0106                64.8702               118.9587
 Red. masses --      3.4785                 2.2766                 2.4674
 Frc consts  --      0.0047                 0.0056                 0.0206
 IR Inten    --      1.6237                 1.0590                 6.4655

                      4                      5                      6
                      A                      A                      A
 Frequencies --    187.0354               237.5019               260.7821
 Red. masses --      3.0363                 1.9611                 2.0339
 Frc consts  --      0.0626                 0.0652                 0.0815
 IR Inten    --      0.6654                 1.4988                 2.9050

                      7                      8                      9
                      A                      A                      A
 Frequencies --    302.9060               374.3912               428.1777
 Red. masses --      3.0959                 4.4808                 2.2989
 Frc consts  --      0.1674                 0.3700                 0.2483
 IR Inten    --      1.8258                 0.4215                 2.1081

                     10                     11                     12
                      A                      A                      A
 Frequencies --    492.9045               624.6035               682.3416
 Red. masses --      4.0381                 4.2075                 2.9912
 Frc consts  --      0.5780                 0.9671                 0.8205
 IR Inten    --      7.4616                 6.4545                 2.7133

                     13                     14                     15
                      A                      A                      A
 Frequencies --    752.5714               779.4272               820.0640
 Red. masses --      5.7278                 1.5713                 1.2042
 Frc consts  --      1.9113                 0.5624                 0.4772
 IR Inten    --      4.5459                26.7016                 0.1719

                     16                     17                     18
                      A                      A                      A
 Frequencies --    835.0393               892.3498               940.4314
 Red. masses --      2.0181                 2.3824                 2.3473
 Frc consts  --      0.8291                 1.1177                 1.2231
 IR Inten    --      0.6150                 6.1215                11.9157

                     19                     20                     21
                      A                      A                      A
 Frequencies --    972.2906              1004.5284              1051.6785
 Red. masses --      2.1431                 1.3576                 2.4649
 Frc consts  --      1.1937                 0.8071                 1.6063
 IR Inten    --     10.4213                 1.0863                 2.8689

                     22                     23                     24
                      A                      A                      A
 Frequencies --   1060.1713              1112.0808              1132.7246
 Red. masses --      2.6880                 1.2080                 1.9327
 Frc consts  --      1.7801                 0.8802                 1.4610
 IR Inten    --     19.6604                 7.0089                49.5282

                     25                     26                     27
                      A                      A                      A
 Frequencies --   1153.2533              1178.6410              1188.2061
 Red. masses --      3.3671                 2.0619                 1.5353
 Frc consts  --      2.6385                 1.6877                 1.2771
 IR Inten    --    174.7424                18.7137                 4.9454

                     28                     29                     30
                      A                      A                      A
 Frequencies --   1203.3983              1264.8267              1294.4582
 Red. masses --      2.0984                 1.5016                 1.1078
 Frc consts  --      1.7904                 1.4154                 1.0937
 IR Inten    --     21.7812                 6.2387                 4.9347

                     31                     32                     33
                      A                      A                      A
 Frequencies --   1307.7217              1354.2572              1370.6438
 Red. masses --      1.3618                 1.5083                 1.7122
 Frc consts  --      1.3722                 1.6298                 1.8952
 IR Inten    --      7.5899                35.6278                 4.6142

                     34                     35                     36
                      A                      A                      A
 Frequencies --   1400.9581              1433.3275              1468.4370
 Red. masses --      1.2466                 1.4282                 1.1128
 Frc consts  --      1.4415                 1.7288                 1.4138
 IR Inten    --      1.0262                10.6451                 7.8943

                     37                     38                     39
                      A                      A                      A
 Frequencies --   1483.3124              1501.8125              1532.0361
 Red. masses --      1.0405                 1.0469                 1.0862
 Frc consts  --      1.3489                 1.3912                 1.5021
 IR Inten    --      4.2660                 1.7413                 2.1059

                     40                     41                     42
                      A                      A                      A
 Frequencies --   1648.3310              1808.4657              2956.9810
 Red. masses --      5.9587                12.3507                 1.0792
 Frc consts  --      9.5387                23.7993                 5.5595
 IR Inten    --     21.5432               229.3639                 5.7520

                     43                     44                     45
                      A                      A                      A
 Frequencies --   2961.6512              3043.3451              3043.7468
 Red. masses --      1.0729                 1.0571                 1.0373
 Frc consts  --      5.5446                 5.7687                 5.6621
 IR Inten    --     79.7346                12.2960                19.6397

                     46                     47                     48
                      A                      A                      A
 Frequencies --   3070.0448              3078.1969              3118.7447
 Red. masses --      1.0902                 1.1025                 1.1012
 Frc consts  --      6.0543                 6.1552                 6.3106
 IR Inten    --      7.7439                11.5735                25.3316

                     49                     50                     51
                      A                      A                      A
 Frequencies --   3120.5737              3187.6065              3225.6725
 Red. masses --      1.1027                 1.0889                 1.1017
 Frc consts  --      6.3264                 6.5190                 6.7540
 IR Inten    --     27.4098                 8.4611                 7.2679

 - Thermochemistry -
 -------------------
 Temperature   298.150 Kelvin.  Pressure   1.00000 Atm.
 Atom     1 has atomic number  6 and mass  12.00000

 Molecular mass:   126.06808 amu.
 Principal axes and moments of inertia in atomic units:
                           1         2         3
     Eigenvalues --   556.774521659.761652088.63760
           X            0.99991   0.01320  -0.00009
           Y           -0.01320   0.99990  -0.00518
           Z            0.00002   0.00518   0.99999
 This molecule is an asymmetric top.
 Rotational symmetry number  1.
 Warning -- assumption of classical behavior for rotation
           may cause significant error
 Rotational temperatures (Kelvin)      0.15556     0.05218     0.04147
 Rotational constants (GHZ):           3.24142     1.08735     0.86408
 Zero-point vibrational energy     416147.9 (Joules/Mol)
                                   99.46173 (Kcal/Mol)
 Warning -- explicit consideration of  10 degrees of freedom as
           vibrations may cause significant error
 Vibrational temperatures:     69.08    93.33   171.15   269.10   341.71
          (Kelvin)            375.21   435.81   538.66   616.05   709.18
                              898.66   981.74  1082.78  1121.42  1179.89
                             1201.43  1283.89  1353.07  1398.91  1445.29
                             1513.13  1525.35  1600.03  1629.74  1659.27
                             1695.80  1709.56  1731.42  1819.80  1862.43
                             1881.52  1948.47  1972.05  2015.66  2062.24
                             2112.75  2134.15  2160.77  2204.26  2371.58
                             2601.98  4254.43  4261.15  4378.69  4379.27
                             4417.10  4428.83  4487.17  4489.80  4586.25
                             4641.02

 Zero-point correction=                           0.158502 (Hartree/Particle)
 Thermal correction to Energy=                    0.167532
 Thermal correction to Enthalpy=                  0.168476
 Thermal correction to Gibbs Free Energy=         0.123711
 Sum of electronic and zero-point Energies=           -423.054123
 Sum of electronic and thermal Energies=              -423.045093
 Sum of electronic and thermal Enthalpies=            -423.044149
 Sum of electronic and thermal Free Energies=         -423.088914

                     E (Thermal)             CV                S
                      KCal/Mol        Cal/Mol-Kelvin    Cal/Mol-Kelvin
 Total                  105.128             32.621             94.216
 Electronic               0.000              0.000              0.000
 Translational            0.889              2.981             40.409
 Rotational               0.889              2.981             29.047
 Vibrational            103.350             26.659             24.761
 Vibration     1          0.595              1.978              4.898
 Vibration     2          0.597              1.971              4.303
 Vibration     3          0.609              1.934              3.117
 Vibration     4          0.632              1.858              2.257
 Vibration     5          0.656              1.783              1.822
 Vibration     6          0.669              1.744              1.657
 Vibration     7          0.694              1.668              1.401
 Vibration     8          0.746              1.525              1.062
 Vibration     9          0.790              1.409              0.865
 Vibration    10          0.849              1.266              0.676

 Optimization completed.
    -- Stationary point found.
 Normal termination of Gaussian 09 at Tue Jan 28 15:08:17 2020.
