 Gaussian 09, Revision D.01,
 Gaussian 09:  ES64L-G09RevD.01 24-Apr-2013

 -----------------------------
 # b3lyp 6-31G(2df,p) opt Freq
 -----------------------------

 -----
 titel
 -----
 Symbolic Z-matrix:
 Charge =  0 Multiplicity = 1

 SCF Done:  E(RB3LYP) =  -423.212522928     A.U. after   14 cycles
 Optimization completed.
    -- Stationary point found.
 Normal termination of Gaussian 09 at Tue Jan 28 13:21:33 2020.

 ----------------------------------------------------------------------
 #N Geom=AllCheck Guess=TCheck SCRF=Check GenChk RB3LYP/6-31G(2df,p) Fr
 eq
 ----------------------------------------------------------------------

 Structure from the checkpoint file:  "/scratch/puck/g09_f877c258-3b6c-4312-8dc8-00a823b4dcd2/Gau-93709.chk"
 -----
 titel
 -----
 Charge =  0 Multiplicity = 1

                         Standard orientation:
 ---------------------------------------------------------------------
 Center     Atomic      Atomic             Coordinates (Angstroms)
 Number     Number       Type             X           Y           Z
 ---------------------------------------------------------------------
      1          8           0        2.857155   -0.593481    0.029540
      2          6           0        1.839187    0.298658    0.454004
      3          6           0        0.597764    0.030789   -0.417578
      4          6           0        0.093379   -1.382955   -0.288531
      5          6           0       -1.186899   -1.703288   -0.110357
      6          6           0       -2.276781   -0.674608    0.036197
      7          6           0       -1.720552    0.651603    0.582225
      8          6           0       -0.459553    1.103796   -0.132321
      9          8           0       -0.262887    2.259145   -0.432703
     10          1           0        3.622176   -0.470775    0.598967
     11          1           0        1.588705    0.141611    1.515426
     12          1           0        2.135675    1.347794    0.321270
     13          1           0        0.931191    0.201933   -1.451265
     14          1           0        0.850009   -2.155462   -0.384343
     15          1           0       -1.479627   -2.749319   -0.070717
     16          1           0       -2.768457   -0.504504   -0.932478
     17          1           0       -3.062778   -1.043946    0.704158
     18          1           0       -2.449922    1.464040    0.547493
     19          1           0       -1.440391    0.499352    1.634960
 ---------------------------------------------------------------------

 SCF Done:  E(RB3LYP) =  -423.212522928     A.U. after    1 cycles

 The electronic state is 1-A.
 Alpha  occ. eigenvalues --  -19.14186 -19.12746 -10.26699 -10.23566 -10.19634
 Alpha  occ. eigenvalues --  -10.19557 -10.19233 -10.18505 -10.18160  -1.03858
 Alpha  occ. eigenvalues --   -1.02288  -0.83475  -0.77141  -0.73158  -0.66655
 Alpha  occ. eigenvalues --   -0.61503  -0.57291  -0.51676  -0.50050  -0.48071
 Alpha  occ. eigenvalues --   -0.47261  -0.44872  -0.42719  -0.42103  -0.41155
 Alpha  occ. eigenvalues --   -0.39307  -0.38504  -0.35682  -0.34958  -0.33625
 Alpha  occ. eigenvalues --   -0.32717  -0.27374  -0.24927  -0.23937
 Alpha virt. eigenvalues --   -0.01701   0.01735   0.07506   0.09203   0.11721
 Alpha virt. eigenvalues --    0.13216   0.14350   0.15847   0.16692   0.17467
 Alpha virt. eigenvalues --    0.18624   0.19163   0.20763   0.21451   0.22232

 Mulliken charges:
               1
     1  O   -0.420627
     2  C   -0.083316
     3  C   -0.137998
     4  C   -0.045167
     5  C   -0.081663
     6  C   -0.266877
     7  C   -0.303791
     8  C    0.370274
     9  O   -0.322309
    10  H    0.290503
    11  H    0.087415
    12  H    0.113048
    13  H    0.122099
    14  H    0.109036
    15  H    0.091222
    16  H    0.121960
    17  H    0.110535
    18  H    0.120017
    19  H    0.125640
 Sum of Mulliken charges =   0.00000

 Dipole moment (field-independent basis, Debye):
    X=             -0.0873    Y=             -1.6479    Z=              1.7423  Tot=              2.3998
 Quadrupole moment (field-independent basis, Debye-Ang):
   XX=            -45.1262   YY=            -60.6102   ZZ=            -52.1077
   XY=              2.3100   XZ=              3.3535   YZ=              1.3852

  Exact polarizability:  95.523   3.138  79.449  -2.518  -0.739  57.244
 Approx polarizability: 132.391   6.369 118.043  -5.600  -4.661  90.908

                      1                      2                      3
                      A                      A                      A
 Frequencies --     43.3725               116.5157               151.6288
 Red. masses --      3.7195                 3.6548                 2.5301
 Frc consts  --      0.0041                 0.0292                 0.0343
 IR Inten    --      2.4046                 7.1235                 3.7865

                      4                      5                      6
                      A                      A                      A
 Frequencies --    185.4299               227.2703               270.1869
 Red. masses --      3.1923                 1.1668                 2.3675
 Frc consts  --      0.0647                 0.0355                 0.1018
 IR Inten    --     10.9957                88.4304                 5.7109

                      7                      8                      9
                      A                      A                      A
 Frequencies --    335.6168               398.3343               482.9187
 Red. masses --      5.2002                 2.6910                 5.1349
 Frc consts  --      0.3451                 0.2516                 0.7056
 IR Inten    --      2.3263                 3.2607                 5.5404

                     10                     11                     12
                      A                      A                      A
 Frequencies --    509.1613               526.0027               646.9033
 Red. masses --      3.4479                 2.9762                 3.2327
 Frc consts  --      0.5266                 0.4852                 0.7971
 IR Inten    --      1.2193                20.8752                 3.4745

                     13                     14                     15
                      A                      A                      A
 Frequencies --    720.8623               738.8937               775.1175
 Red. masses --      1.6381                 2.4181                 2.4084
 Frc consts  --      0.5015                 0.7778                 0.8525
 IR Inten    --     21.9249                 7.2181                11.4091

                     16                     17                     18
                      A                      A                      A
 Frequencies --    865.0933               897.0625               963.1385
 Red. masses --      2.0331                 2.4590                 2.0908
 Frc consts  --      0.8965                 1.1659                 1.1427
 IR Inten    --      1.0516                 3.6505                 8.2553

                     19                     20                     21
                      A                      A                      A
 Frequencies --   1006.4974              1011.9684              1036.5965
 Red. masses --      2.2653                 1.2305                 2.0034
 Frc consts  --      1.3521                 0.7425                 1.2684
 IR Inten    --      0.7336                 1.9146                 4.9509

                     22                     23                     24
                      A                      A                      A
 Frequencies --   1070.1032              1073.1473              1105.2579
 Red. masses --      3.0964                 2.5587                 2.1439
 Frc consts  --      2.0891                 1.7361                 1.5430
 IR Inten    --     83.2927                18.9873                11.4043

                     25                     26                     27
                      A                      A                      A
 Frequencies --   1136.7346              1177.6639              1222.8893
 Red. masses --      1.6575                 1.2083                 1.3202
 Frc consts  --      1.2619                 0.9873                 1.1633
 IR Inten    --     25.4455                17.4586                18.7457

                     28                     29                     30
                      A                      A                      A
 Frequencies --   1234.6099              1245.3723              1259.2976
 Red. masses --      1.4690                 1.1227                 1.2855
 Frc consts  --      1.3193                 1.0259                 1.2011
 IR Inten    --      3.6330                 9.7137                 1.2482

                     31                     32                     33
                      A                      A                      A
 Frequencies --   1301.3449              1322.5793              1347.1443
 Red. masses --      1.3077                 1.4506                 1.5804
 Frc consts  --      1.3048                 1.4950                 1.6898
 IR Inten    --     41.7752                 4.0444                11.2478

                     34                     35                     36
                      A                      A                      A
 Frequencies --   1371.6924              1409.0662              1446.1520
 Red. masses --      1.5607                 1.5642                 1.3949
 Frc consts  --      1.7301                 1.8298                 1.7188
 IR Inten    --     10.1176                 1.0524                 8.0498

                     37                     38                     39
                      A                      A                      A
 Frequencies --   1458.4537              1487.9185              1524.7079
 Red. masses --      1.0915                 1.0883                 1.0835
 Frc consts  --      1.3679                 1.4195                 1.4841
 IR Inten    --      7.0065                 2.6497                 4.7050

                     40                     41                     42
                      A                      A                      A
 Frequencies --   1725.1158              1807.7047              2972.0114
 Red. masses --      6.9915                11.8323                 1.0623
 Frc consts  --     12.2591                22.7810                 5.5283
 IR Inten    --      0.3131               161.6262                43.0289

                     43                     44                     45
                      A                      A                      A
 Frequencies --   3005.3009              3010.1925              3014.8754
 Red. masses --      1.0709                 1.0797                 1.0649
 Frc consts  --      5.6986                 5.7643                 5.7029
 IR Inten    --     11.8392                 6.9094                28.6100

                     46                     47                     48
                      A                      A                      A
 Frequencies --   3034.7666              3059.2894              3108.2226
 Red. masses --      1.1002                 1.0925                 1.0941
 Frc consts  --      5.9702                 6.0246                 6.2279
 IR Inten    --     42.3072                25.4800                17.9138

                     49                     50                     51
                      A                      A                      A
 Frequencies --   3155.7480              3185.6701              3833.1210
 Red. masses --      1.0855                 1.0950                 1.0664
 Frc consts  --      6.3692                 6.5474                 9.2317
 IR Inten    --     10.6044                16.6681                29.0470

 - Thermochemistry -
 -------------------
 Temperature   298.150 Kelvin.  Pressure   1.00000 Atm.
 Atom     1 has atomic number  8 and mass  15.99491

 Molecular mass:   126.06808 amu.
 Principal axes and moments of inertia in atomic units:
                           1         2         3
     Eigenvalues --   755.899981306.138871902.33981
           X            0.99964   0.02670   0.00135
           Y           -0.02672   0.99954   0.01417
           Z           -0.00097  -0.01420   0.99990
 This molecule is an asymmetric top.
 Rotational symmetry number  1.
 Warning -- assumption of classical behavior for rotation
           may cause significant error
 Rotational temperatures (Kelvin)      0.11458     0.06631     0.04553
 Rotational constants (GHZ):           2.38754     1.38174     0.94870
 Zero-point vibrational energy     418781.0 (Joules/Mol)
                                  100.09107 (Kcal/Mol)
 Warning -- explicit consideration of  11 degrees of freedom as
           vibrations may cause significant error
 Vibrational temperatures:     62.40   167.64   218.16   266.79   326.99
          (Kelvin)            388.74   482.88   573.11   694.81   732.57
                              756.80   930.75  1037.16  1063.10  1115.22
                             1244.67  1290.67  1385.74  1448.12  1455.99
                             1491.43  1539.64  1544.02  1590.22  1635.51
                             1694.39  1759.46  1776.33  1791.81  1811.85
                             1872.34  1902.89  1938.24  1973.56  2027.33
                             2080.69  2098.39  2140.78  2193.71  2482.05
                             2600.88  4276.06  4323.95  4330.99  4337.73
                             4366.35  4401.63  4472.03  4540.41  4583.46
                             5515.00

 Zero-point correction=                           0.159505 (Hartree/Particle)
 Thermal correction to Energy=                    0.168375
 Thermal correction to Enthalpy=                  0.169319
 Thermal correction to Gibbs Free Energy=         0.125287
 Sum of electronic and zero-point Energies=           -423.053018
 Sum of electronic and thermal Energies=              -423.044148
 Sum of electronic and thermal Enthalpies=            -423.043204
 Sum of electronic and thermal Free Energies=         -423.087235

                     E (Thermal)             CV                S
                      KCal/Mol        Cal/Mol-Kelvin    Cal/Mol-Kelvin
 Total                  105.657             32.762             92.673
 Electronic               0.000              0.000              0.000
 Translational            0.889              2.981             40.409
 Rotational               0.889              2.981             29.020
 Vibrational            103.880             26.801             23.244
 Vibration     1          0.595              1.980              5.099
 Vibration     2          0.608              1.936              3.157
 Vibration     3          0.619              1.901              2.652
 Vibration     4          0.632              1.860              2.273
 Vibration     5          0.651              1.799              1.900
 Vibration     6          0.674              1.728              1.595
 Vibration     7          0.717              1.604              1.233
 Vibration     8          0.765              1.474              0.969
 Vibration     9          0.839              1.288              0.702
 Vibration    10          0.864              1.230              0.636
 Vibration    11          0.881              1.192              0.596

 Optimization completed.
    -- Stationary point found.
 Normal termination of Gaussian 09 at Tue Jan 28 14:49:58 2020.
