 Gaussian 09, Revision D.01,
 Gaussian 09:  ES64L-G09RevD.01 24-Apr-2013

 -----------------------------
 # b3lyp 6-31G(2df,p) opt Freq
 -----------------------------

 -----
 titel
 -----
 Symbolic Z-matrix:
 Charge =  0 Multiplicity = 1

 SCF Done:  E(RB3LYP) =  -423.151779749     A.U. after   13 cycles
 Optimization completed.
    -- Stationary point found.
 Normal termination of Gaussian 09 at Mon Jan 27 17:07:53 2020.

 ----------------------------------------------------------------------
 #N Geom=AllCheck Guess=TCheck SCRF=Check GenChk RB3LYP/6-31G(2df,p) Fr
 eq
 ----------------------------------------------------------------------

 Structure from the checkpoint file:  "/scratch/puck/g09_21f806b4-5d5f-46a7-b97c-de0d255c6979/Gau-32369.chk"
 -----
 titel
 -----
 Charge =  0 Multiplicity = 1

                         Standard orientation:
 ---------------------------------------------------------------------
 Center     Atomic      Atomic             Coordinates (Angstroms)
 Number     Number       Type             X           Y           Z
 ---------------------------------------------------------------------
      1          8           0        1.911807   -1.366273    0.148152
      2          6           0        0.976864   -0.347435   -0.013027
      3          6           0        0.570281    0.466544    1.238475
      4          6           0        0.078782    1.490667    0.179698
      5          6           0        1.301615    1.041439   -0.680278
      6          6           0       -1.044201    0.715169   -0.533406
      7          8           0       -2.067708    0.138056    0.311023
      8          6           0       -1.549238   -1.198681    0.106554
      9          6           0       -0.362170   -0.665216   -0.714370
     10          1           0        2.015405   -1.824190   -0.693026
     11          1           0       -0.160968    0.052210    1.932919
     12          1           0        1.451478    0.821992    1.775311
     13          1           0       -0.097001    2.534725    0.431793
     14          1           0        1.230866    1.125554   -1.770127
     15          1           0        2.245470    1.457400   -0.323513
     16          1           0       -1.472106    1.237367   -1.395067
     17          1           0       -1.312370   -1.704990    1.049915
     18          1           0       -2.254756   -1.814406   -0.464799
     19          1           0       -0.230409   -1.074843   -1.718680
 ---------------------------------------------------------------------

 SCF Done:  E(RB3LYP) =  -423.151779749     A.U. after    1 cycles

 The electronic state is 1-A.
 Alpha  occ. eigenvalues --  -19.14532 -19.12942 -10.24423 -10.23182 -10.22780
 Alpha  occ. eigenvalues --  -10.19229 -10.19059 -10.18503 -10.17900  -1.03836
 Alpha  occ. eigenvalues --   -1.02817  -0.87713  -0.73510  -0.69668  -0.66183
 Alpha  occ. eigenvalues --   -0.63789  -0.55443  -0.54780  -0.51745  -0.49286
 Alpha  occ. eigenvalues --   -0.49023  -0.44926  -0.41732  -0.41403  -0.40043
 Alpha  occ. eigenvalues --   -0.37771  -0.35758  -0.34700  -0.33134  -0.32233
 Alpha  occ. eigenvalues --   -0.30697  -0.28900  -0.26077  -0.24482
 Alpha virt. eigenvalues --    0.06567   0.09332   0.09672   0.11998   0.12839
 Alpha virt. eigenvalues --    0.13664   0.14630   0.15651   0.16477   0.17573
 Alpha virt. eigenvalues --    0.18363   0.18786   0.19388   0.21271   0.22449

 Mulliken charges:
               1
     1  O   -0.487399
     2  C    0.412235
     3  C   -0.272344
     4  C   -0.060411
     5  C   -0.294652
     6  C    0.145769
     7  O   -0.302271
     8  C   -0.109699
     9  C   -0.136828
    10  H    0.277900
    11  H    0.113716
    12  H    0.103400
    13  H    0.070174
    14  H    0.085879
    15  H    0.106412
    16  H    0.073642
    17  H    0.107816
    18  H    0.099825
    19  H    0.066836
 Sum of Mulliken charges =   0.00000

 Dipole moment (field-independent basis, Debye):
    X=              0.9145    Y=             -0.3948    Z=             -1.9554  Tot=              2.1944
 Quadrupole moment (field-independent basis, Debye-Ang):
   XX=            -58.8156   YY=            -50.2956   ZZ=            -51.3119
   XY=              2.1151   XZ=             -0.8153   YZ=              2.4379

  Exact polarizability:  75.684   4.026  75.675   0.180  -0.017  69.341
 Approx polarizability: 108.016   0.727 111.091  -1.457  -0.506 106.716

                      1                      2                      3
                      A                      A                      A
 Frequencies --    188.7969               256.6330               278.4234
 Red. masses --      4.5793                 1.7429                 1.5339
 Frc consts  --      0.0962                 0.0676                 0.0701
 IR Inten    --      2.2931                18.8855                56.1305

                      4                      5                      6
                      A                      A                      A
 Frequencies --    326.8867               368.3634               449.1031
 Red. masses --      3.1978                 2.9498                 3.1133
 Frc consts  --      0.2013                 0.2358                 0.3700
 IR Inten    --     28.2414                 9.7434                 0.3046

                      7                      8                      9
                      A                      A                      A
 Frequencies --    484.0117               552.0664               580.6427
 Red. masses --      2.4870                 3.2827                 2.7103
 Frc consts  --      0.3433                 0.5895                 0.5384
 IR Inten    --      1.9088                 4.9224                 1.3658

                     10                     11                     12
                      A                      A                      A
 Frequencies --    673.6242               779.2376               826.1617
 Red. masses --      3.5182                 2.9032                 3.2965
 Frc consts  --      0.9406                 1.0386                 1.3257
 IR Inten    --      2.4896                 0.5102                 7.7933

                     13                     14                     15
                      A                      A                      A
 Frequencies --    853.9929               868.8031               905.4185
 Red. masses --      3.0704                 1.9951                 1.7463
 Frc consts  --      1.3193                 0.8873                 0.8435
 IR Inten    --      8.9512                 0.3406                 3.2237

                     16                     17                     18
                      A                      A                      A
 Frequencies --    932.1808               941.2650               972.2216
 Red. masses --      2.8655                 2.3875                 1.7180
 Frc consts  --      1.4671                 1.2463                 0.9568
 IR Inten    --      1.1970                 9.9449                 3.0355

                     19                     20                     21
                      A                      A                      A
 Frequencies --    980.0411              1001.0597              1012.7959
 Red. masses --      2.0529                 2.0660                 4.7760
 Frc consts  --      1.1617                 1.2198                 2.8864
 IR Inten    --      6.3792                 7.9185                93.7987

                     22                     23                     24
                      A                      A                      A
 Frequencies --   1035.7295              1060.0289              1070.3741
 Red. masses --      1.4569                 1.5424                 1.7591
 Frc consts  --      0.9208                 1.0211                 1.1875
 IR Inten    --      3.3999                 5.9524                 5.1369

                     25                     26                     27
                      A                      A                      A
 Frequencies --   1108.2316              1128.8010              1159.3289
 Red. masses --      1.8392                 1.6263                 1.6401
 Frc consts  --      1.3309                 1.2209                 1.2987
 IR Inten    --     14.1322                36.8383                 2.9634

                     28                     29                     30
                      A                      A                      A
 Frequencies --   1163.9009              1194.0279              1219.9700
 Red. masses --      1.3018                 1.6226                 1.5063
 Frc consts  --      1.0390                 1.3630                 1.3209
 IR Inten    --      6.6801                 7.7578                 2.7323

                     31                     32                     33
                      A                      A                      A
 Frequencies --   1227.5593              1253.0791              1272.1785
 Red. masses --      1.5032                 1.6443                 2.4238
 Frc consts  --      1.3346                 1.5212                 2.3112
 IR Inten    --      3.3631                10.5665               114.3747

                     34                     35                     36
                      A                      A                      A
 Frequencies --   1298.3593              1319.1635              1340.6987
 Red. masses --      1.6182                 1.4307                 1.9347
 Frc consts  --      1.6072                 1.4668                 2.0489
 IR Inten    --      7.2693                13.0942                74.9826

                     37                     38                     39
                      A                      A                      A
 Frequencies --   1355.1735              1395.3039              1485.0838
 Red. masses --      1.4481                 1.8038                 1.0958
 Frc consts  --      1.5668                 2.0691                 1.4239
 IR Inten    --      4.7963                 2.1104                 2.3191

                     40                     41                     42
                      A                      A                      A
 Frequencies --   1519.7529              1527.4372              3015.4379
 Red. masses --      1.1277                 1.1263                 1.0555
 Frc consts  --      1.5346                 1.5482                 5.6547
 IR Inten    --      1.8785                 6.1023                76.1728

                     43                     44                     45
                      A                      A                      A
 Frequencies --   3044.9863              3054.5232              3058.9499
 Red. masses --      1.0622                 1.0883                 1.1069
 Frc consts  --      5.8027                 5.9824                 6.1027
 IR Inten    --     31.5831                58.2798                10.2120

                     46                     47                     48
                      A                      A                      A
 Frequencies --   3081.2978              3085.3360              3125.6269
 Red. masses --      1.0865                 1.0600                 1.1031
 Frc consts  --      6.0776                 5.9450                 6.3497
 IR Inten    --     68.9827                 7.6719                22.4368

                     49                     50                     51
                      A                      A                      A
 Frequencies --   3135.2620              3145.8441              3804.2835
 Red. masses --      1.0915                 1.1089                 1.0658
 Frc consts  --      6.3215                 6.4657                 9.0878
 IR Inten    --     36.0066                21.4694                18.0950

 - Thermochemistry -
 -------------------
 Temperature   298.150 Kelvin.  Pressure   1.00000 Atm.
 Atom     1 has atomic number  8 and mass  15.99491

 Molecular mass:   126.06808 amu.
 Principal axes and moments of inertia in atomic units:
                           1         2         3
     Eigenvalues --   636.015821005.191721262.32021
           X            0.99794   0.06413   0.00048
           Y           -0.06414   0.99790   0.00855
           Z            0.00007  -0.00857   0.99996
 This molecule is an asymmetric top.
 Rotational symmetry number  1.
 Warning -- assumption of classical behavior for rotation
           may cause significant error
 Rotational temperatures (Kelvin)      0.13618     0.08617     0.06861
 Rotational constants (GHZ):           2.83757     1.79542     1.42970
 Zero-point vibrational energy     424180.6 (Joules/Mol)
                                  101.38160 (Kcal/Mol)
 Warning -- explicit consideration of   9 degrees of freedom as
           vibrations may cause significant error
 Vibrational temperatures:    271.64   369.24   400.59   470.32   529.99
          (Kelvin)            646.16   696.38   794.30   835.41   969.19
                             1121.15  1188.66  1228.70  1250.01  1302.69
                             1341.20  1354.27  1398.81  1410.06  1440.30
                             1457.19  1490.18  1525.14  1540.03  1594.50
                             1624.09  1668.01  1674.59  1717.94  1755.26
                             1766.18  1802.90  1830.38  1868.05  1897.98
                             1928.96  1949.79  2007.53  2136.70  2186.58
                             2197.64  4338.54  4381.05  4394.77  4401.14
                             4433.29  4439.10  4497.07  4510.94  4526.16
                             5473.51

 Zero-point correction=                           0.161562 (Hartree/Particle)
 Thermal correction to Energy=                    0.168501
 Thermal correction to Enthalpy=                  0.169445
 Thermal correction to Gibbs Free Energy=         0.130698
 Sum of electronic and zero-point Energies=           -422.990218
 Sum of electronic and thermal Energies=              -422.983279
 Sum of electronic and thermal Enthalpies=            -422.982334
 Sum of electronic and thermal Free Energies=         -423.021082

                     E (Thermal)             CV                S
                      KCal/Mol        Cal/Mol-Kelvin    Cal/Mol-Kelvin
 Total                  105.736             29.270             81.551
 Electronic               0.000              0.000              0.000
 Translational            0.889              2.981             40.409
 Rotational               0.889              2.981             28.181
 Vibrational            103.959             23.308             12.962
 Vibration     1          0.633              1.855              2.240
 Vibration     2          0.666              1.752              1.685
 Vibration     3          0.679              1.713              1.543
 Vibration     4          0.711              1.622              1.275
 Vibration     5          0.741              1.537              1.087
 Vibration     6          0.808              1.363              0.798
 Vibration     7          0.840              1.286              0.699
 Vibration     8          0.907              1.135              0.540
 Vibration     9          0.937              1.073              0.484

 Optimization completed.
    -- Stationary point found.
 Normal termination of Gaussian 09 at Mon Jan 27 17:57:40 2020.
