 Gaussian 09, Revision D.01,
 Gaussian 09:  ES64L-G09RevD.01 24-Apr-2013

 -----------------------------
 # b3lyp 6-31G(2df,p) opt Freq
 -----------------------------

 -----
 titel
 -----
 Symbolic Z-matrix:
 Charge =  0 Multiplicity = 1

 SCF Done:  E(RB3LYP) =  -423.091613228     A.U. after   13 cycles
 Optimization completed.
    -- Stationary point found.
 Normal termination of Gaussian 09 at Tue Jan 28 13:58:38 2020.

 ----------------------------------------------------------------------
 #N Geom=AllCheck Guess=TCheck SCRF=Check GenChk RB3LYP/6-31G(2df,p) Fr
 eq
 ----------------------------------------------------------------------

 Structure from the checkpoint file:  "/scratch/puck/g09_c2d9d6ce-be22-43fb-9bff-a1cbcbcd2d74/Gau-15394.chk"
 -----
 titel
 -----
 Charge =  0 Multiplicity = 1

                         Standard orientation:
 ---------------------------------------------------------------------
 Center     Atomic      Atomic             Coordinates (Angstroms)
 Number     Number       Type             X           Y           Z
 ---------------------------------------------------------------------
      1          6           0       -3.046219    0.785515    0.313143
      2          8           0       -2.309871   -0.289423   -0.236207
      3          6           0       -0.998225   -0.334553    0.227512
      4          6           0       -0.074093   -1.077040   -0.686373
      5          6           0        1.365805   -1.160919   -0.102720
      6          8           0        1.407399   -0.496275    1.174897
      7          6           0        1.466457    0.297412   -0.027810
      8          6           0        2.586504    1.268301   -0.192276
      9          6           0        0.014224    0.447692   -0.590569
     10          1           0       -2.608977    1.757549    0.043118
     11          1           0       -4.058487    0.721693   -0.092373
     12          1           0       -3.095651    0.721239    1.410359
     13          1           0       -0.893138   -0.403638    1.307515
     14          1           0       -0.445660   -1.674459   -1.507513
     15          1           0        2.104021   -1.933722   -0.284495
     16          1           0        2.690519    1.563732   -1.241500
     17          1           0        2.404190    2.175186    0.395825
     18          1           0        3.526521    0.823254    0.144355
     19          1           0       -0.290280    1.176300   -1.330257
 ---------------------------------------------------------------------

 SCF Done:  E(RB3LYP) =  -423.091613228     A.U. after    1 cycles

 The electronic state is 1-A.
 Alpha  occ. eigenvalues --  -19.14760 -19.14499 -10.24349 -10.23572 -10.23487
 Alpha  occ. eigenvalues --  -10.22390 -10.19144 -10.18872 -10.18822  -1.07419
 Alpha  occ. eigenvalues --   -1.03976  -0.85990  -0.74934  -0.70283  -0.65761
 Alpha  occ. eigenvalues --   -0.62033  -0.56556  -0.54290  -0.51698  -0.49174
 Alpha  occ. eigenvalues --   -0.46624  -0.44669  -0.43958  -0.42336  -0.41855
 Alpha  occ. eigenvalues --   -0.40335  -0.37688  -0.35202  -0.34091  -0.33572
 Alpha  occ. eigenvalues --   -0.29731  -0.26219  -0.25374  -0.22298
 Alpha virt. eigenvalues --    0.06501   0.09323   0.10246   0.11417   0.12454
 Alpha virt. eigenvalues --    0.13427   0.14702   0.15105   0.15331   0.15959
 Alpha virt. eigenvalues --    0.16648   0.18478   0.19217   0.20620   0.20842

 Mulliken charges:
               1
     1  C   -0.236647
     2  O   -0.256120
     3  C    0.117374
     4  C   -0.145332
     5  C   -0.065712
     6  O   -0.290159
     7  C    0.411260
     8  C   -0.502562
     9  C   -0.187483
    10  H    0.107463
    11  H    0.126989
    12  H    0.110096
    13  H    0.112068
    14  H    0.102350
    15  H    0.106434
    16  H    0.127712
    17  H    0.131703
    18  H    0.135390
    19  H    0.095175
 Sum of Mulliken charges =   0.00000

 Dipole moment (field-independent basis, Debye):
    X=              0.4394    Y=              1.1453    Z=             -1.1365  Tot=              1.6723
 Quadrupole moment (field-independent basis, Debye-Ang):
   XX=            -50.0329   YY=            -50.7113   ZZ=            -54.7405
   XY=             -2.4433   XZ=             -4.0119   YZ=              1.0368

  Exact polarizability:  91.195  -1.107  73.749  -0.653   0.863  62.519
 Approx polarizability: 111.035  -0.707 114.478   1.509   1.013 101.479

                      1                      2                      3
                      A                      A                      A
 Frequencies --     92.3936               151.9952               172.6802
 Red. masses --      2.7558                 2.9693                 1.2366
 Frc consts  --      0.0139                 0.0404                 0.0217
 IR Inten    --      3.1199                 2.0396                 0.1660

                      4                      5                      6
                      A                      A                      A
 Frequencies --    200.3380               229.8317               244.6156
 Red. masses --      1.0939                 2.6394                 2.5151
 Frc consts  --      0.0259                 0.0821                 0.0887
 IR Inten    --      0.1814                 1.4285                 1.4056

                      7                      8                      9
                      A                      A                      A
 Frequencies --    350.7979               393.7241               447.9300
 Red. masses --      3.5700                 5.0449                 2.7426
 Frc consts  --      0.2588                 0.4608                 0.3242
 IR Inten    --      4.2134                 3.5070                 4.2335

                     10                     11                     12
                      A                      A                      A
 Frequencies --    468.4222               562.5528               654.9164
 Red. masses --      3.5210                 4.6933                 3.8891
 Frc consts  --      0.4552                 0.8751                 0.9828
 IR Inten    --      0.0643                14.3998                 5.5984

                     13                     14                     15
                      A                      A                      A
 Frequencies --    746.8164               792.7515               843.5028
 Red. masses --      5.7582                 1.3310                 3.2342
 Frc consts  --      1.8922                 0.4928                 1.3558
 IR Inten    --      1.3978                10.3874                19.4301

                     16                     17                     18
                      A                      A                      A
 Frequencies --    858.9863               871.5426               893.4220
 Red. masses --      2.4830                 2.4821                 3.2738
 Frc consts  --      1.0795                 1.1108                 1.5396
 IR Inten    --      1.9895                13.1422                11.0283

                     19                     20                     21
                      A                      A                      A
 Frequencies --    957.9969               978.8119              1005.0401
 Red. masses --      2.0781                 1.6613                 1.7733
 Frc consts  --      1.1237                 0.9378                 1.0554
 IR Inten    --     12.4203                 4.1721                 0.6078

                     22                     23                     24
                      A                      A                      A
 Frequencies --   1026.8721              1059.3760              1093.8607
 Red. masses --      2.9985                 2.3308                 1.7176
 Frc consts  --      1.8629                 1.5412                 1.2108
 IR Inten    --     22.1667                 5.3506                24.9449

                     25                     26                     27
                      A                      A                      A
 Frequencies --   1109.1427              1138.2749              1166.3002
 Red. masses --      1.3819                 1.5036                 2.3118
 Frc consts  --      1.0016                 1.1478                 1.8528
 IR Inten    --     22.3687                15.6653                50.6433

                     28                     29                     30
                      A                      A                      A
 Frequencies --   1176.9581              1183.6453              1225.6184
 Red. masses --      2.0213                 1.2936                 1.8513
 Frc consts  --      1.6497                 1.0678                 1.6385
 IR Inten    --     36.5566                 5.2782                24.3542

                     31                     32                     33
                      A                      A                      A
 Frequencies --   1246.1680              1262.0780              1271.2872
 Red. masses --      2.0186                 1.6159                 1.8584
 Frc consts  --      1.8469                 1.5165                 1.7696
 IR Inten    --      4.3479                24.1821                52.3003

                     34                     35                     36
                      A                      A                      A
 Frequencies --   1386.2037              1406.8871              1468.2710
 Red. masses --      1.9587                 1.3441                 1.6665
 Frc consts  --      2.2175                 1.5675                 2.1168
 IR Inten    --     55.9045                 4.2175                10.7422

                     37                     38                     39
                      A                      A                      A
 Frequencies --   1481.8382              1484.8577              1484.9413
 Red. masses --      1.1652                 1.1750                 1.0574
 Frc consts  --      1.5075                 1.5264                 1.3738
 IR Inten    --      1.9787                12.8683                 1.4927

                     40                     41                     42
                      A                      A                      A
 Frequencies --   1499.2030              1508.4907              2985.2529
 Red. masses --      1.6315                 1.0644                 1.0356
 Frc consts  --      2.1606                 1.4271                 5.4374
 IR Inten    --      9.7973                 6.3550                56.2800

                     43                     44                     45
                      A                      A                      A
 Frequencies --   3032.1964              3035.6542              3094.3349
 Red. masses --      1.0363                 1.1034                 1.0996
 Frc consts  --      5.6140                 5.9906                 6.2032
 IR Inten    --     21.6438                50.6588                15.4898

                     46                     47                     48
                      A                      A                      A
 Frequencies --   3120.3033              3122.0313              3134.7609
 Red. masses --      1.0977                 1.1010                 1.0874
 Frc consts  --      6.2969                 6.3227                 6.2959
 IR Inten    --     30.9937                11.4407                13.8921

                     49                     50                     51
                      A                      A                      A
 Frequencies --   3180.1470              3202.8536              3215.6199
 Red. masses --      1.0938                 1.0902                 1.0961
 Frc consts  --      6.5174                 6.5890                 6.6779
 IR Inten    --     19.6359                 7.0502                 4.5738

 - Thermochemistry -
 -------------------
 Temperature   298.150 Kelvin.  Pressure   1.00000 Atm.
 Atom     1 has atomic number  6 and mass  12.00000

 Molecular mass:   126.06808 amu.
 Principal axes and moments of inertia in atomic units:
                           1         2         3
     Eigenvalues --   470.023111706.875681857.88687
           X            0.99985  -0.00166  -0.01708
           Y            0.00206   0.99972   0.02375
           Z            0.01704  -0.02378   0.99957
 This molecule is an asymmetric top.
 Rotational symmetry number  1.
 Warning -- assumption of classical behavior for rotation
           may cause significant error
 Rotational temperatures (Kelvin)      0.18428     0.05074     0.04662
 Rotational constants (GHZ):           3.83969     1.05734     0.97139
 Zero-point vibrational energy     411051.8 (Joules/Mol)
                                   98.24374 (Kcal/Mol)
 Warning -- explicit consideration of  11 degrees of freedom as
           vibrations may cause significant error
 Vibrational temperatures:    132.93   218.69   248.45   288.24   330.68
          (Kelvin)            351.95   504.72   566.48   644.47   673.95
                              809.39   942.28  1074.50  1140.59  1213.61
                             1235.89  1253.95  1285.43  1378.34  1408.29
                             1446.03  1477.44  1524.20  1573.82  1595.81
                             1637.72  1678.04  1693.38  1703.00  1763.39
                             1792.96  1815.85  1829.10  1994.44  2024.19
                             2112.51  2132.03  2136.38  2136.50  2157.02
                             2170.38  4295.11  4362.65  4367.62  4452.05
                             4489.41  4491.90  4510.22  4575.52  4608.19
                             4626.55

 Zero-point correction=                           0.156561 (Hartree/Particle)
 Thermal correction to Energy=                    0.165292
 Thermal correction to Enthalpy=                  0.166236
 Thermal correction to Gibbs Free Energy=         0.123310
 Sum of electronic and zero-point Energies=           -422.935052
 Sum of electronic and thermal Energies=              -422.926322
 Sum of electronic and thermal Enthalpies=            -422.925377
 Sum of electronic and thermal Free Energies=         -422.968303

                     E (Thermal)             CV                S
                      KCal/Mol        Cal/Mol-Kelvin    Cal/Mol-Kelvin
 Total                  103.722             33.181             90.344
 Electronic               0.000              0.000              0.000
 Translational            0.889              2.981             40.409
 Rotational               0.889              2.981             28.790
 Vibrational            101.945             27.220             21.146
 Vibration     1          0.602              1.955              3.609
 Vibration     2          0.619              1.900              2.647
 Vibration     3          0.626              1.876              2.406
 Vibration     4          0.638              1.839              2.130
 Vibration     5          0.652              1.795              1.880
 Vibration     6          0.660              1.772              1.769
 Vibration     7          0.728              1.574              1.163
 Vibration     8          0.761              1.484              0.986
 Vibration     9          0.807              1.365              0.802
 Vibration    10          0.826              1.320              0.742
 Vibration    11          0.918              1.112              0.519

 Optimization completed.
    -- Stationary point found.
 Normal termination of Gaussian 09 at Tue Jan 28 15:24:12 2020.
