 Gaussian 09, Revision D.01,
 Gaussian 09:  ES64L-G09RevD.01 24-Apr-2013

 -----------------------------
 # b3lyp 6-31G(2df,p) opt Freq
 -----------------------------

 -----
 titel
 -----
 Symbolic Z-matrix:
 Charge =  0 Multiplicity = 1

 SCF Done:  E(RB3LYP) =  -423.155654539     A.U. after   15 cycles
 Optimization completed.
    -- Stationary point found.
 Normal termination of Gaussian 09 at Tue Jan 28 12:10:01 2020.

 ----------------------------------------------------------------------
 #N Geom=AllCheck Guess=TCheck SCRF=Check GenChk RB3LYP/6-31G(2df,p) Fr
 eq
 ----------------------------------------------------------------------

 Structure from the checkpoint file:  "/scratch/puck/g09_7b1dfc16-9ba0-4de6-bcf3-a84ecef0c0b4/Gau-27573.chk"
 -----
 titel
 -----
 Charge =  0 Multiplicity = 1

                         Standard orientation:
 ---------------------------------------------------------------------
 Center     Atomic      Atomic             Coordinates (Angstroms)
 Number     Number       Type             X           Y           Z
 ---------------------------------------------------------------------
      1          6           0        3.197449   -1.522050   -0.270595
      2          6           0        1.987079   -0.920082    0.421152
      3          8           0        1.689268    0.319373   -0.205712
      4          6           0        0.598359    1.017323    0.362102
      5          6           0        0.582114    2.419980   -0.253453
      6          6           0       -0.682978    0.329958    0.147567
      7          6           0       -1.746297   -0.217141   -0.029421
      8          6           0       -2.995763   -0.894217   -0.260891
      9          8           0       -4.071106   -0.501401    0.129941
     10          1           0        3.459120   -2.479026    0.190323
     11          1           0        2.987955   -1.692600   -1.330230
     12          1           0        4.058433   -0.852091   -0.194470
     13          1           0        1.122704   -1.597272    0.352446
     14          1           0        2.190449   -0.756094    1.492468
     15          1           0        0.743123    1.106818    1.453375
     16          1           0       -0.227353    3.016408    0.173244
     17          1           0        1.538015    2.908930   -0.052202
     18          1           0        0.441320    2.351847   -1.334544
     19          1           0       -2.898835   -1.833319   -0.843004
 ---------------------------------------------------------------------

 SCF Done:  E(RB3LYP) =  -423.155654539     A.U. after    1 cycles

 The electronic state is 1-A.
 Alpha  occ. eigenvalues --  -19.15361 -19.14530 -10.29124 -10.27250 -10.23664
 Alpha  occ. eigenvalues --  -10.21206 -10.19846 -10.19291 -10.18274  -1.05113
 Alpha  occ. eigenvalues --   -1.04873  -0.81436  -0.77089  -0.73850  -0.67634
 Alpha  occ. eigenvalues --   -0.63437  -0.61787  -0.53150  -0.51553  -0.50725
 Alpha  occ. eigenvalues --   -0.46255  -0.44866  -0.44739  -0.41056  -0.40556
 Alpha  occ. eigenvalues --   -0.39490  -0.38727  -0.37148  -0.36410  -0.33735
 Alpha  occ. eigenvalues --   -0.29308  -0.28632  -0.27530  -0.26777
 Alpha virt. eigenvalues --   -0.06317   0.01669   0.08200   0.10451   0.11045
 Alpha virt. eigenvalues --    0.12613   0.12940   0.14483   0.15103   0.16098
 Alpha virt. eigenvalues --    0.16499   0.17734   0.18690   0.18985   0.20617

 Mulliken charges:
               1
     1  C   -0.384421
     2  C   -0.041560
     3  O   -0.236840
     4  C   -0.045708
     5  C   -0.396002
     6  C    0.172003
     7  C   -0.039276
     8  C    0.021074
     9  O   -0.228680
    10  H    0.118771
    11  H    0.130514
    12  H    0.128011
    13  H    0.099809
    14  H    0.089335
    15  H    0.104424
    16  H    0.134899
    17  H    0.131842
    18  H    0.140994
    19  H    0.100813
 Sum of Mulliken charges =   0.00000

 Dipole moment (field-independent basis, Debye):
    X=              3.0662    Y=             -0.3110    Z=              0.2179  Tot=              3.0896
 Quadrupole moment (field-independent basis, Debye-Ang):
   XX=            -67.5396   YY=            -48.3628   ZZ=            -52.4693
   XY=             -0.1032   XZ=              4.2114   YZ=              1.0360

  Exact polarizability: 115.184   9.271  80.378   2.095   3.533  59.366
 Approx polarizability: 169.906  21.681 108.403   2.123   6.286  89.875

                      1                      2                      3
                      A                      A                      A
 Frequencies --     43.8358                54.3584                78.8956
 Red. masses --      4.1835                 3.1566                 1.9674
 Frc consts  --      0.0047                 0.0055                 0.0072
 IR Inten    --      8.5592                 0.7516                 0.7807

                      4                      5                      6
                      A                      A                      A
 Frequencies --    118.4673               129.3152               178.0320
 Red. masses --      4.2432                 2.7209                 2.7264
 Frc consts  --      0.0351                 0.0268                 0.0509
 IR Inten    --      7.8558                 3.8676                 0.2868

                      7                      8                      9
                      A                      A                      A
 Frequencies --    220.7069               230.6972               252.3722
 Red. masses --      3.1479                 1.1928                 1.3615
 Frc consts  --      0.0903                 0.0374                 0.0511
 IR Inten    --      0.5672                 0.1900                 0.2967

                     10                     11                     12
                      A                      A                      A
 Frequencies --    287.0573               389.5257               414.7864
 Red. masses --      3.6647                 3.3458                 4.2603
 Frc consts  --      0.1779                 0.2991                 0.4319
 IR Inten    --      2.5703                 3.9990                 0.2640

                     13                     14                     15
                      A                      A                      A
 Frequencies --    520.9238               584.2665               637.4562
 Red. masses --      4.3110                 5.0188                 5.2188
 Frc consts  --      0.6893                 1.0094                 1.2495
 IR Inten    --      1.5014                 6.1477                13.8432

                     16                     17                     18
                      A                      A                      A
 Frequencies --    786.2293               824.6622               860.8848
 Red. masses --      3.5499                 1.0996                 2.0336
 Frc consts  --      1.2929                 0.4406                 0.8880
 IR Inten    --     22.4656                 0.8268                 5.4317

                     19                     20                     21
                      A                      A                      A
 Frequencies --    948.2379              1014.4988              1021.5199
 Red. masses --      2.2656                 2.0750                 1.7668
 Frc consts  --      1.2002                 1.2583                 1.0863
 IR Inten    --      8.2357                30.7427                 0.7407

                     22                     23                     24
                      A                      A                      A
 Frequencies --   1078.5856              1100.1433              1129.8085
 Red. masses --      2.5987                 2.1470                 3.8943
 Frc consts  --      1.7812                 1.5310                 2.9288
 IR Inten    --     24.5500                 4.1574                94.1233

                     25                     26                     27
                      A                      A                      A
 Frequencies --   1149.0511              1184.2255              1191.5140
 Red. masses --      3.5710                 1.9305                 1.8950
 Frc consts  --      2.7779                 1.5951                 1.5851
 IR Inten    --    200.5484                41.1219                20.6676

                     28                     29                     30
                      A                      A                      A
 Frequencies --   1299.1424              1323.7430              1351.2938
 Red. masses --      1.1010                 1.3367                 1.2399
 Frc consts  --      1.0948                 1.3800                 1.3340
 IR Inten    --      2.3566                12.9895                73.9844

                     31                     32                     33
                      A                      A                      A
 Frequencies --   1401.0840              1402.7040              1421.7733
 Red. masses --      1.2253                 1.2355                 1.1917
 Frc consts  --      1.4172                 1.4323                 1.4193
 IR Inten    --      3.7586                 2.4856                12.5661

                     34                     35                     36
                      A                      A                      A
 Frequencies --   1434.7143              1481.7725              1483.6357
 Red. masses --      1.4115                 1.0451                 1.0401
 Frc consts  --      1.7118                 1.3520                 1.3489
 IR Inten    --     13.9444                 3.2299                 4.5425

                     37                     38                     39
                      A                      A                      A
 Frequencies --   1495.0835              1500.2527              1527.8209
 Red. masses --      1.0502                 1.0468                 1.0873
 Frc consts  --      1.3832                 1.3882                 1.4954
 IR Inten    --      1.8941                 2.1616                 2.5082

                     40                     41                     42
                      A                      A                      A
 Frequencies --   1767.7476              2316.7117              2918.4275
 Red. masses --     10.5317                11.9498                 1.0816
 Frc consts  --     19.3905                37.7880                 5.4278
 IR Inten    --    256.3205               111.0741                86.9188

                     43                     44                     45
                      A                      A                      A
 Frequencies --   2948.0653              2968.1184              3010.7876
 Red. masses --      1.0796                 1.0620                 1.0984
 Frc consts  --      5.5284                 5.5124                 5.8664
 IR Inten    --     21.4048                52.9344                34.7888

                     46                     47                     48
                      A                      A                      A
 Frequencies --   3046.6407              3056.6517              3121.7299
 Red. masses --      1.0347                 1.0333                 1.1016
 Frc consts  --      5.6583                 5.6883                 6.3248
 IR Inten    --     17.4224                12.0170                21.3711

                     49                     50                     51
                      A                      A                      A
 Frequencies --   3124.0051              3139.7369              3141.7298
 Red. masses --      1.1028                 1.1034                 1.1030
 Frc consts  --      6.3412                 6.4089                 6.4147
 IR Inten    --     23.9923                14.3321                12.6823

 - Thermochemistry -
 -------------------
 Temperature   298.150 Kelvin.  Pressure   1.00000 Atm.
 Atom     1 has atomic number  6 and mass  12.00000

 Molecular mass:   126.06808 amu.
 Principal axes and moments of inertia in atomic units:
                           1         2         3
     Eigenvalues --   695.405022533.797223112.94689
           X            0.99982  -0.01842   0.00341
           Y            0.01840   0.99982   0.00371
           Z           -0.00348  -0.00365   0.99999
 This molecule is an asymmetric top.
 Rotational symmetry number  1.
 Warning -- assumption of classical behavior for rotation
           may cause significant error
 Rotational temperatures (Kelvin)      0.12455     0.03418     0.02782
 Rotational constants (GHZ):           2.59524     0.71227     0.57975
 Zero-point vibrational energy     407408.8 (Joules/Mol)
                                   97.37304 (Kcal/Mol)
 Warning -- explicit consideration of  14 degrees of freedom as
           vibrations may cause significant error
 Vibrational temperatures:     63.07    78.21   113.51   170.45   186.06
          (Kelvin)            256.15   317.55   331.92   363.11   413.01
                              560.44   596.78   749.49   840.63   917.16
                             1131.21  1186.50  1238.62  1364.30  1459.64
                             1469.74  1551.84  1582.86  1625.54  1653.23
                             1703.83  1714.32  1869.17  1904.57  1944.21
                             2015.84  2018.18  2045.61  2064.23  2131.94
                             2134.62  2151.09  2158.53  2198.19  2543.39
                             3333.23  4198.96  4241.60  4270.46  4331.85
                             4383.43  4397.83  4491.47  4494.74  4517.38
                             4520.24

 Zero-point correction=                           0.155174 (Hartree/Particle)
 Thermal correction to Energy=                    0.166073
 Thermal correction to Enthalpy=                  0.167017
 Thermal correction to Gibbs Free Energy=         0.117424
 Sum of electronic and zero-point Energies=           -423.000481
 Sum of electronic and thermal Energies=              -422.989581
 Sum of electronic and thermal Enthalpies=            -422.988637
 Sum of electronic and thermal Free Energies=         -423.038231

                     E (Thermal)             CV                S
                      KCal/Mol        Cal/Mol-Kelvin    Cal/Mol-Kelvin
 Total                  104.213             36.540            104.379
 Electronic               0.000              0.000              0.000
 Translational            0.889              2.981             40.409
 Rotational               0.889              2.981             30.085
 Vibrational            102.435             30.578             33.885
 Vibration     1          0.595              1.980              5.078
 Vibration     2          0.596              1.976              4.652
 Vibration     3          0.600              1.963              3.918
 Vibration     4          0.609              1.934              3.125
 Vibration     5          0.612              1.924              2.956
 Vibration     6          0.628              1.869              2.349
 Vibration     7          0.647              1.810              1.953
 Vibration     8          0.652              1.794              1.874
 Vibration     9          0.664              1.759              1.714
 Vibration    10          0.684              1.698              1.491
 Vibration    11          0.757              1.493              1.002
 Vibration    12          0.778              1.438              0.910
 Vibration    13          0.876              1.204              0.608
 Vibration    14          0.941              1.065              0.478

 Optimization completed.
    -- Stationary point found.
 Normal termination of Gaussian 09 at Tue Jan 28 12:41:22 2020.
