 Gaussian 09, Revision D.01,
 Gaussian 09:  ES64L-G09RevD.01 24-Apr-2013

 -----------------------------
 # b3lyp 6-31G(2df,p) opt Freq
 -----------------------------

 -----
 titel
 -----
 Symbolic Z-matrix:
 Charge =  0 Multiplicity = 1

 SCF Done:  E(RB3LYP) =  -423.151238897     A.U. after   13 cycles
 Optimization completed.
    -- Stationary point found.
 Normal termination of Gaussian 09 at Tue Jan 28 12:09:09 2020.

 ----------------------------------------------------------------------
 #N Geom=AllCheck Guess=TCheck SCRF=Check GenChk RB3LYP/6-31G(2df,p) Fr
 eq
 ----------------------------------------------------------------------

 Structure from the checkpoint file:  "/scratch/puck/g09_f239ac77-d929-40dc-b350-624807659b25/Gau-85232.chk"
 -----
 titel
 -----
 Charge =  0 Multiplicity = 1

                         Standard orientation:
 ---------------------------------------------------------------------
 Center     Atomic      Atomic             Coordinates (Angstroms)
 Number     Number       Type             X           Y           Z
 ---------------------------------------------------------------------
      1          8           0        2.820054    0.372736   -0.653353
      2          6           0        2.097465   -0.179869    0.440060
      3          6           0        0.618557   -0.217487    0.197641
      4          6           0       -0.102485   -1.130751   -0.801408
      5          6           0       -1.389585   -0.976473    0.071899
      6          8           0       -2.237723    0.053681   -0.411699
      7          6           0       -1.476709    1.265559   -0.366898
      8          6           0       -0.289434    0.964589    0.542711
      9          6           0       -0.521604   -0.363037    1.199886
     10          1           0        2.458207    1.249169   -0.821707
     11          1           0        2.487460   -1.197284    0.559257
     12          1           0        2.308080    0.361301    1.377734
     13          1           0       -0.183141   -0.817161   -1.846700
     14          1           0        0.298674   -2.147963   -0.759324
     15          1           0       -1.993045   -1.862637    0.261274
     16          1           0       -1.171078    1.560003   -1.380506
     17          1           0       -2.109279    2.061903    0.042521
     18          1           0        0.153914    1.767720    1.121379
     19          1           0       -0.525669   -0.561566    2.263142
 ---------------------------------------------------------------------

 SCF Done:  E(RB3LYP) =  -423.151238897     A.U. after    1 cycles

 The electronic state is 1-A.
 Alpha  occ. eigenvalues --  -19.13491 -19.13450 -10.23581 -10.23048 -10.22912
 Alpha  occ. eigenvalues --  -10.20271 -10.20057 -10.19280 -10.18196  -1.03886
 Alpha  occ. eigenvalues --   -1.01522  -0.89309  -0.75395  -0.70795  -0.67948
 Alpha  occ. eigenvalues --   -0.60737  -0.58229  -0.53601  -0.52844  -0.48123
 Alpha  occ. eigenvalues --   -0.47046  -0.46338  -0.43427  -0.42236  -0.40751
 Alpha  occ. eigenvalues --   -0.39013  -0.37523  -0.35224  -0.34627  -0.30784
 Alpha  occ. eigenvalues --   -0.28497  -0.27770  -0.26018  -0.24159
 Alpha virt. eigenvalues --    0.06855   0.09006   0.10218   0.11178   0.13167
 Alpha virt. eigenvalues --    0.13759   0.14039   0.14996   0.15411   0.16393
 Alpha virt. eigenvalues --    0.17289   0.18263   0.18725   0.19888   0.21933

 Mulliken charges:
               1
     1  O   -0.412908
     2  C   -0.181670
     3  C    0.310777
     4  C   -0.302040
     5  C    0.085428
     6  O   -0.262209
     7  C   -0.104025
     8  C   -0.133432
     9  C   -0.146175
    10  H    0.280758
    11  H    0.110206
    12  H    0.083418
    13  H    0.100365
    14  H    0.101154
    15  H    0.085454
    16  H    0.097112
    17  H    0.106823
    18  H    0.089783
    19  H    0.091180
 Sum of Mulliken charges =   0.00000

 Dipole moment (field-independent basis, Debye):
    X=              0.1351    Y=              0.7969    Z=              1.2997  Tot=              1.5306
 Quadrupole moment (field-independent basis, Debye-Ang):
   XX=            -64.3805   YY=            -47.2700   ZZ=            -52.5356
   XY=              1.3761   XZ=              1.0237   YZ=             -1.2151

  Exact polarizability:  78.330  -2.134  75.824  -0.115  -0.774  68.212
 Approx polarizability: 108.464  -2.089 113.293  -3.045  -2.708 104.604

                      1                      2                      3
                      A                      A                      A
 Frequencies --     88.7222               130.7869               234.2572
 Red. masses --      3.4291                 4.8228                 2.3500
 Frc consts  --      0.0159                 0.0486                 0.0760
 IR Inten    --      2.7457                 1.3190                 2.8783

                      4                      5                      6
                      A                      A                      A
 Frequencies --    271.6426               325.1223               380.4553
 Red. masses --      1.6312                 1.6737                 2.3507
 Frc consts  --      0.0709                 0.1042                 0.2005
 IR Inten    --     40.3636                38.1734                42.7048

                      7                      8                      9
                      A                      A                      A
 Frequencies --    417.6448               451.3483               642.8398
 Red. masses --      3.5608                 2.1959                 3.5008
 Frc consts  --      0.3659                 0.2636                 0.8524
 IR Inten    --      0.1625                 1.3894                 9.9890

                     10                     11                     12
                      A                      A                      A
 Frequencies --    700.1562               723.6954               754.3299
 Red. masses --      3.8358                 2.7743                 4.4867
 Frc consts  --      1.1079                 0.8561                 1.5042
 IR Inten    --      5.5961                 4.2810                 1.5014

                     13                     14                     15
                      A                      A                      A
 Frequencies --    845.8859               871.2513               897.7717
 Red. masses --      2.5213                 2.3276                 2.5716
 Frc consts  --      1.0629                 1.0410                 1.2212
 IR Inten    --     16.1425                 2.9513                 3.8588

                     16                     17                     18
                      A                      A                      A
 Frequencies --    899.5151               940.4567               945.1966
 Red. masses --      1.3767                 2.2017                 2.1374
 Frc consts  --      0.6563                 1.1473                 1.1251
 IR Inten    --      7.1441                 7.2746                29.6953

                     19                     20                     21
                      A                      A                      A
 Frequencies --    987.4982               999.8257              1025.3351
 Red. masses --      2.1943                 1.9192                 1.8250
 Frc consts  --      1.2607                 1.1304                 1.1304
 IR Inten    --     11.6013                 3.2727                10.3888

                     22                     23                     24
                      A                      A                      A
 Frequencies --   1036.7375              1057.0763              1077.5019
 Red. masses --      2.2311                 4.9348                 2.3416
 Frc consts  --      1.4129                 3.2488                 1.6018
 IR Inten    --      9.3799               100.8520                29.4604

                     25                     26                     27
                      A                      A                      A
 Frequencies --   1111.3995              1153.4180              1163.5482
 Red. masses --      2.0625                 1.5510                 1.4666
 Frc consts  --      1.5010                 1.2157                 1.1698
 IR Inten    --     11.6874                28.9926                 2.3971

                     28                     29                     30
                      A                      A                      A
 Frequencies --   1198.5761              1218.9555              1225.8226
 Red. masses --      1.7532                 1.1687                 1.3338
 Frc consts  --      1.4840                 1.0231                 1.1809
 IR Inten    --      1.8435                 3.2045                14.5823

                     31                     32                     33
                      A                      A                      A
 Frequencies --   1235.9009              1280.1754              1298.7269
 Red. masses --      1.7975                 1.4200                 2.1754
 Frc consts  --      1.6177                 1.3711                 2.1618
 IR Inten    --     10.4436                 3.0949                10.6635

                     34                     35                     36
                      A                      A                      A
 Frequencies --   1330.8359              1364.4678              1378.7169
 Red. masses --      1.5249                 1.4279                 1.3890
 Frc consts  --      1.5912                 1.5663                 1.5556
 IR Inten    --      6.2831                 5.6914                13.4197

                     37                     38                     39
                      A                      A                      A
 Frequencies --   1416.9490              1436.5059              1491.3355
 Red. masses --      1.3906                 2.1907                 1.1795
 Frc consts  --      1.6450                 2.6635                 1.5456
 IR Inten    --     32.3871                31.7129                 1.6016

                     40                     41                     42
                      A                      A                      A
 Frequencies --   1500.8038              1525.2748              2963.8107
 Red. masses --      1.0898                 1.0881                 1.0707
 Frc consts  --      1.4463                 1.4914                 5.5414
 IR Inten    --      1.1395                 0.7177                59.3648

                     43                     44                     45
                      A                      A                      A
 Frequencies --   3003.1948              3045.8436              3050.8537
 Red. masses --      1.0638                 1.0582                 1.0996
 Frc consts  --      5.6529                 5.7838                 6.0299
 IR Inten    --     62.3391                23.9871                52.4401

                     46                     47                     48
                      A                      A                      A
 Frequencies --   3059.8183              3098.3618              3134.0468
 Red. masses --      1.0909                 1.1084                 1.0907
 Frc consts  --      6.0177                 6.2693                 6.3118
 IR Inten    --     33.3324                22.6270                34.9507

                     49                     50                     51
                      A                      A                      A
 Frequencies --   3175.9311              3205.6841              3809.1285
 Red. masses --      1.0895                 1.0958                 1.0660
 Frc consts  --      6.4746                 6.6347                 9.1129
 IR Inten    --      9.0433                10.4744                11.3230

 - Thermochemistry -
 -------------------
 Temperature   298.150 Kelvin.  Pressure   1.00000 Atm.
 Atom     1 has atomic number  8 and mass  15.99491

 Molecular mass:   126.06808 amu.
 Principal axes and moments of inertia in atomic units:
                           1         2         3
     Eigenvalues --   507.035261443.634661537.53477
           X            0.99994  -0.00552   0.00912
           Y            0.00549   0.99998   0.00334
           Z           -0.00914  -0.00329   0.99995
 This molecule is an asymmetric top.
 Rotational symmetry number  1.
 Warning -- assumption of classical behavior for rotation
           may cause significant error
 Rotational temperatures (Kelvin)      0.17082     0.06000     0.05633
 Rotational constants (GHZ):           3.55940     1.25014     1.17379
 Zero-point vibrational energy     422180.9 (Joules/Mol)
                                  100.90366 (Kcal/Mol)
 Warning -- explicit consideration of   8 degrees of freedom as
           vibrations may cause significant error
 Vibrational temperatures:    127.65   188.17   337.04   390.83   467.78
          (Kelvin)            547.39   600.90   649.39   924.90  1007.37
                             1041.23  1085.31  1217.04  1253.53  1291.69
                             1294.20  1353.11  1359.93  1420.79  1438.52
                             1475.23  1491.63  1520.90  1550.28  1599.05
                             1659.51  1674.08  1724.48  1753.80  1763.68
                             1778.18  1841.88  1868.58  1914.77  1963.16
                             1983.66  2038.67  2066.81  2145.70  2159.32
                             2194.53  4264.26  4320.92  4382.28  4389.49
                             4402.39  4457.85  4509.19  4569.45  4612.26
                             5480.48

 Zero-point correction=                           0.160800 (Hartree/Particle)
 Thermal correction to Energy=                    0.168480
 Thermal correction to Enthalpy=                  0.169424
 Thermal correction to Gibbs Free Energy=         0.128541
 Sum of electronic and zero-point Energies=           -422.990439
 Sum of electronic and thermal Energies=              -422.982759
 Sum of electronic and thermal Enthalpies=            -422.981814
 Sum of electronic and thermal Free Energies=         -423.022698

                     E (Thermal)             CV                S
                      KCal/Mol        Cal/Mol-Kelvin    Cal/Mol-Kelvin
 Total                  105.723             30.250             86.046
 Electronic               0.000              0.000              0.000
 Translational            0.889              2.981             40.409
 Rotational               0.889              2.981             28.511
 Vibrational            103.945             24.288             17.126
 Vibration     1          0.602              1.957              3.688
 Vibration     2          0.612              1.923              2.934
 Vibration     3          0.654              1.788              1.846
 Vibration     4          0.675              1.726              1.586
 Vibration     5          0.709              1.625              1.284
 Vibration     6          0.750              1.512              1.037
 Vibration     7          0.781              1.432              0.900
 Vibration     8          0.810              1.358              0.792

 Optimization completed.
    -- Stationary point found.
 Normal termination of Gaussian 09 at Tue Jan 28 12:56:42 2020.
