 Gaussian 09, Revision D.01,
 Gaussian 09:  ES64L-G09RevD.01 24-Apr-2013

 -----------------------------
 # b3lyp 6-31G(2df,p) opt Freq
 -----------------------------

 -----
 titel
 -----
 Symbolic Z-matrix:
 Charge =  0 Multiplicity = 1

 SCF Done:  E(RB3LYP) =  -423.095369723     A.U. after   13 cycles
 Optimization completed.
    -- Stationary point found.
 Normal termination of Gaussian 09 at Tue Jan 28 09:41:12 2020.

 ----------------------------------------------------------------------
 #N Geom=AllCheck Guess=TCheck SCRF=Check GenChk RB3LYP/6-31G(2df,p) Fr
 eq
 ----------------------------------------------------------------------

 Structure from the checkpoint file:  "/scratch/puck/g09_5b234624-fd9c-4fba-bcb6-31e48d4d285f/Gau-106351.chk"
 -----
 titel
 -----
 Charge =  0 Multiplicity = 1

                         Standard orientation:
 ---------------------------------------------------------------------
 Center     Atomic      Atomic             Coordinates (Angstroms)
 Number     Number       Type             X           Y           Z
 ---------------------------------------------------------------------
      1          6           0       -2.564342    0.508301    0.326582
      2          8           0       -1.638001    0.059327   -0.653177
      3          6           0       -0.436555   -0.353360   -0.126121
      4          6           0       -0.237529   -1.636525    0.634186
      5          6           0        0.491082   -1.409767   -0.678950
      6          6           0        1.678999   -0.415264   -0.502593
      7          8           0        1.768373   -0.003798    0.876530
      8          6           0        0.800429    0.626056    0.021901
      9          6           0        0.765175    2.111749   -0.103985
     10          1           0       -2.184753    1.380080    0.876619
     11          1           0       -3.475071    0.792305   -0.205244
     12          1           0       -2.796534   -0.285879    1.048247
     13          1           0        0.304940   -1.668939    1.570517
     14          1           0       -1.073273   -2.324404    0.546090
     15          1           0        0.353933   -2.043666   -1.544173
     16          1           0        2.584060   -0.363326   -1.096461
     17          1           0        1.772833    2.506412   -0.259579
     18          1           0        0.134163    2.402065   -0.949378
     19          1           0        0.353174    2.573988    0.800429
 ---------------------------------------------------------------------

 SCF Done:  E(RB3LYP) =  -423.095369723     A.U. after    1 cycles

 The electronic state is 1-A.
 Alpha  occ. eigenvalues --  -19.15338 -19.14795 -10.23861 -10.23750 -10.23385
 Alpha  occ. eigenvalues --  -10.22811 -10.19103 -10.18663 -10.18533  -1.07511
 Alpha  occ. eigenvalues --   -1.04401  -0.86128  -0.74784  -0.69831  -0.68160
 Alpha  occ. eigenvalues --   -0.61517  -0.56538  -0.53813  -0.51290  -0.49181
 Alpha  occ. eigenvalues --   -0.46008  -0.45253  -0.43933  -0.42404  -0.41355
 Alpha  occ. eigenvalues --   -0.39007  -0.37469  -0.36840  -0.34558  -0.33019
 Alpha  occ. eigenvalues --   -0.31329  -0.27005  -0.24265  -0.22634
 Alpha virt. eigenvalues --    0.06806   0.08658   0.10139   0.11632   0.13388
 Alpha virt. eigenvalues --    0.13754   0.13998   0.14851   0.15728   0.16380
 Alpha virt. eigenvalues --    0.17149   0.18394   0.19730   0.19881   0.21111

 Mulliken charges:
               1
     1  C   -0.256579
     2  O   -0.277080
     3  C    0.377890
     4  C   -0.351277
     5  C   -0.197349
     6  C   -0.060800
     7  O   -0.285556
     8  C    0.346934
     9  C   -0.510247
    10  H    0.112672
    11  H    0.127476
    12  H    0.116598
    13  H    0.134048
    14  H    0.114539
    15  H    0.103191
    16  H    0.105394
    17  H    0.133363
    18  H    0.137943
    19  H    0.128841
 Sum of Mulliken charges =   0.00000

 Dipole moment (field-independent basis, Debye):
    X=             -0.9418    Y=              0.5495    Z=             -0.5133  Tot=              1.2052
 Quadrupole moment (field-independent basis, Debye-Ang):
   XX=            -51.7713   YY=            -50.4080   ZZ=            -54.3755
   XY=              0.0053   XZ=             -5.6910   YZ=              0.7741

  Exact polarizability:  82.358  -1.391  79.774  -4.486   1.342  63.090
 Approx polarizability: 113.601  -5.461 110.193  -2.780   3.493 103.868

                      1                      2                      3
                      A                      A                      A
 Frequencies --     96.6823               144.0765               163.2396
 Red. masses --      2.5570                 2.4983                 1.2053
 Frc consts  --      0.0141                 0.0306                 0.0189
 IR Inten    --      2.1539                 1.5507                 0.6365

                      4                      5                      6
                      A                      A                      A
 Frequencies --    199.4615               228.1879               248.1879
 Red. masses --      1.1140                 2.7394                 2.7549
 Frc consts  --      0.0261                 0.0840                 0.1000
 IR Inten    --      0.3454                 4.6227                 3.8216

                      7                      8                      9
                      A                      A                      A
 Frequencies --    387.3414               419.6533               431.4198
 Red. masses --      3.3360                 3.4016                 3.1070
 Frc consts  --      0.2949                 0.3529                 0.3407
 IR Inten    --      1.2168                11.7963                 1.7267

                     10                     11                     12
                      A                      A                      A
 Frequencies --    444.1881               556.9588               604.2033
 Red. masses --      3.9148                 3.3576                 3.6894
 Frc consts  --      0.4551                 0.6137                 0.7935
 IR Inten    --      1.6696                 6.4051                 1.1009

                     13                     14                     15
                      A                      A                      A
 Frequencies --    677.9448               765.1072               803.6213
 Red. masses --      3.4721                 3.9357                 2.9079
 Frc consts  --      0.9402                 1.3574                 1.1065
 IR Inten    --     13.6628                 7.5135                 6.0870

                     16                     17                     18
                      A                      A                      A
 Frequencies --    849.4789               870.0972               922.5165
 Red. masses --      2.2756                 2.3584                 1.6444
 Frc consts  --      0.9675                 1.0520                 0.8245
 IR Inten    --      7.2136                19.6068                 8.8942

                     19                     20                     21
                      A                      A                      A
 Frequencies --    949.8588               980.9597              1005.7649
 Red. masses --      2.2943                 2.2402                 2.2254
 Frc consts  --      1.2196                 1.2701                 1.3263
 IR Inten    --      5.6325                 7.2068                 9.6729

                     22                     23                     24
                      A                      A                      A
 Frequencies --   1016.8984              1052.3663              1068.1588
 Red. masses --      1.5654                 1.8560                 3.4293
 Frc consts  --      0.9537                 1.2111                 2.3053
 IR Inten    --      3.5706                17.5319                43.4736

                     25                     26                     27
                      A                      A                      A
 Frequencies --   1090.8477              1101.7233              1152.3186
 Red. masses --      1.4418                 1.8310                 2.0342
 Frc consts  --      1.0108                 1.3094                 1.5915
 IR Inten    --     11.8782                16.2870                20.0194

                     28                     29                     30
                      A                      A                      A
 Frequencies --   1180.0315              1216.9220              1225.2848
 Red. masses --      1.2824                 1.4620                 1.7782
 Frc consts  --      1.0521                 1.2756                 1.5729
 IR Inten    --      2.7768                 3.8550                19.5103

                     31                     32                     33
                      A                      A                      A
 Frequencies --   1249.6102              1267.5275              1357.2831
 Red. masses --      2.3434                 2.0323                 2.6474
 Frc consts  --      2.1560                 1.9238                 2.8735
 IR Inten    --     21.3063                 5.7325               115.9744

                     34                     35                     36
                      A                      A                      A
 Frequencies --   1400.5424              1453.0317              1469.2383
 Red. masses --      1.2611                 1.3853                 1.5978
 Frc consts  --      1.4574                 1.7232                 2.0321
 IR Inten    --      5.4062                19.8837                 3.9385

                     37                     38                     39
                      A                      A                      A
 Frequencies --   1481.7342              1486.5639              1491.2723
 Red. masses --      1.2145                 1.0845                 1.1374
 Frc consts  --      1.5711                 1.4120                 1.4903
 IR Inten    --     13.0810                 2.7571                 3.4583

                     40                     41                     42
                      A                      A                      A
 Frequencies --   1503.0143              1505.7666              3000.3305
 Red. masses --      1.7892                 1.0564                 1.0340
 Frc consts  --      2.3814                 1.4112                 5.4842
 IR Inten    --      4.1216                 6.6364                47.4823

                     43                     44                     45
                      A                      A                      A
 Frequencies --   3033.6977              3057.4068              3098.2568
 Red. masses --      1.0371                 1.1037                 1.0978
 Frc consts  --      5.6237                 6.0789                 6.2087
 IR Inten    --     20.0700                43.7751                13.6323

                     46                     47                     48
                      A                      A                      A
 Frequencies --   3123.1435              3123.7768              3136.0554
 Red. masses --      1.1017                 1.0999                 1.0536
 Frc consts  --      6.3313                 6.3233                 6.1049
 IR Inten    --     22.2543                17.5936                11.6474

                     49                     50                     51
                      A                      A                      A
 Frequencies --   3184.1051              3213.7443              3232.2886
 Red. masses --      1.0938                 1.0952                 1.1147
 Frc consts  --      6.5336                 6.6644                 6.8617
 IR Inten    --     17.7075                 6.1179                 3.3769

 - Thermochemistry -
 -------------------
 Temperature   298.150 Kelvin.  Pressure   1.00000 Atm.
 Atom     1 has atomic number  6 and mass  12.00000

 Molecular mass:   126.06808 amu.
 Principal axes and moments of inertia in atomic units:
                           1         2         3
     Eigenvalues --   709.475441094.386011491.28280
           X            0.99932   0.00830  -0.03601
           Y           -0.00845   0.99996  -0.00424
           Z            0.03598   0.00454   0.99934
 This molecule is an asymmetric top.
 Rotational symmetry number  1.
 Warning -- assumption of classical behavior for rotation
           may cause significant error
 Rotational temperatures (Kelvin)      0.12208     0.07914     0.05808
 Rotational constants (GHZ):           2.54377     1.64909     1.21019
 Zero-point vibrational energy     411048.2 (Joules/Mol)
                                   98.24287 (Kcal/Mol)
 Warning -- explicit consideration of  12 degrees of freedom as
           vibrations may cause significant error
 Vibrational temperatures:    139.10   207.29   234.87   286.98   328.31
          (Kelvin)            357.09   557.30   603.79   620.72   639.09
                              801.34   869.31   975.41  1100.82  1156.23
                             1222.21  1251.87  1327.29  1366.63  1411.38
                             1447.07  1463.09  1514.12  1536.84  1569.48
                             1585.13  1657.93  1697.80  1750.88  1762.91
                             1797.91  1823.69  1952.83  2015.07  2090.59
                             2113.90  2131.88  2138.83  2145.61  2162.50
                             2166.46  4316.80  4364.81  4398.92  4457.69
                             4493.50  4494.41  4512.08  4581.21  4623.86
                             4650.54

 Zero-point correction=                           0.156560 (Hartree/Particle)
 Thermal correction to Energy=                    0.165357
 Thermal correction to Enthalpy=                  0.166301
 Thermal correction to Gibbs Free Energy=         0.123392
 Sum of electronic and zero-point Energies=           -422.938810
 Sum of electronic and thermal Energies=              -422.930013
 Sum of electronic and thermal Enthalpies=            -422.929069
 Sum of electronic and thermal Free Energies=         -422.971977

                     E (Thermal)             CV                S
                      KCal/Mol        Cal/Mol-Kelvin    Cal/Mol-Kelvin
 Total                  103.763             33.498             90.309
 Electronic               0.000              0.000              0.000
 Translational            0.889              2.981             40.409
 Rotational               0.889              2.981             28.539
 Vibrational            101.986             27.537             21.361
 Vibration     1          0.603              1.952              3.520
 Vibration     2          0.616              1.909              2.749
 Vibration     3          0.623              1.888              2.512
 Vibration     4          0.638              1.841              2.138
 Vibration     5          0.651              1.798              1.893
 Vibration     6          0.662              1.766              1.743
 Vibration     7          0.756              1.497              1.010
 Vibration     8          0.782              1.428              0.893
 Vibration     9          0.792              1.402              0.854
 Vibration    10          0.804              1.374              0.814
 Vibration    11          0.912              1.124              0.530
 Vibration    12          0.963              1.023              0.442

 Optimization completed.
    -- Stationary point found.
 Normal termination of Gaussian 09 at Tue Jan 28 10:24:58 2020.
