 Gaussian 09, Revision D.01,
 Gaussian 09:  ES64L-G09RevD.01 24-Apr-2013

 -----------------------------
 # b3lyp 6-31G(2df,p) opt Freq
 -----------------------------

 -----
 titel
 -----
 Symbolic Z-matrix:
 Charge =  0 Multiplicity = 1

 SCF Done:  E(RB3LYP) =  -423.140318700     A.U. after   13 cycles
 Optimization completed.
    -- Stationary point found.
 Normal termination of Gaussian 09 at Mon Jan 27 16:10:04 2020.

 ----------------------------------------------------------------------
 #N Geom=AllCheck Guess=TCheck SCRF=Check GenChk RB3LYP/6-31G(2df,p) Fr
 eq
 ----------------------------------------------------------------------

 Structure from the checkpoint file:  "/scratch/puck/g09_b34de34c-5db6-4d48-b23d-f0d1e0d4a2b7/Gau-59896.chk"
 -----
 titel
 -----
 Charge =  0 Multiplicity = 1

                         Standard orientation:
 ---------------------------------------------------------------------
 Center     Atomic      Atomic             Coordinates (Angstroms)
 Number     Number       Type             X           Y           Z
 ---------------------------------------------------------------------
      1          6           0        1.963343    1.115896   -0.279741
      2          6           0        1.055592   -0.075773   -0.044512
      3          8           0        1.796610   -1.268031    0.180537
      4          6           0       -0.052122    0.001757    1.044337
      5          8           0       -0.743683    1.205584    0.692982
      6          6           0       -1.255298    0.751552   -0.578967
      7          6           0       -2.213456   -0.378747   -0.148746
      8          6           0       -0.896846   -1.071318    0.234406
      9          6           0       -0.168495   -0.338391   -0.953767
     10          1           0        2.500071    1.012030   -1.231183
     11          1           0        1.388383    2.043328   -0.308626
     12          1           0        2.707354    1.185898    0.520136
     13          1           0        2.290587   -1.465755   -0.621961
     14          1           0        0.162000   -0.048867    2.110720
     15          1           0       -1.536417    1.593920   -1.208770
     16          1           0       -2.951973   -0.132489    0.618303
     17          1           0       -2.683734   -0.879612   -0.999501
     18          1           0       -0.781173   -2.124127    0.469983
     19          1           0       -0.114811   -0.714600   -1.975314
 ---------------------------------------------------------------------

 SCF Done:  E(RB3LYP) =  -423.140318700     A.U. after    1 cycles

 The electronic state is 1-A.
 Alpha  occ. eigenvalues --  -19.13818 -19.13690 -10.23608 -10.23387 -10.22899
 Alpha  occ. eigenvalues --  -10.19052 -10.18987 -10.18072 -10.16942  -1.05535
 Alpha  occ. eigenvalues --   -1.01886  -0.84151  -0.76478  -0.70970  -0.66678
 Alpha  occ. eigenvalues --   -0.59131  -0.55770  -0.55173  -0.52324  -0.49147
 Alpha  occ. eigenvalues --   -0.46460  -0.45083  -0.41463  -0.39809  -0.39390
 Alpha  occ. eigenvalues --   -0.38545  -0.35539  -0.35179  -0.33160  -0.32016
 Alpha  occ. eigenvalues --   -0.31371  -0.28029  -0.26430  -0.23691
 Alpha virt. eigenvalues --    0.07003   0.09143   0.10959   0.12305   0.13598
 Alpha virt. eigenvalues --    0.14942   0.15179   0.15939   0.16741   0.17229
 Alpha virt. eigenvalues --    0.17917   0.18604   0.19011   0.19947   0.21888

 Mulliken charges:
               1
     1  C   -0.474292
     2  C    0.431512
     3  O   -0.483545
     4  C    0.031424
     5  O   -0.271123
     6  C    0.066936
     7  C   -0.246521
     8  C   -0.062871
     9  C   -0.140830
    10  H    0.100604
    11  H    0.136191
    12  H    0.122605
    13  H    0.278264
    14  H    0.080158
    15  H    0.078872
    16  H    0.101503
    17  H    0.099483
    18  H    0.086957
    19  H    0.064674
 Sum of Mulliken charges =   0.00000

 Dipole moment (field-independent basis, Debye):
    X=              0.2228    Y=             -0.6926    Z=             -1.9429  Tot=              2.0746
 Quadrupole moment (field-independent basis, Debye-Ang):
   XX=            -51.2542   YY=            -55.2829   ZZ=            -50.9412
   XY=              0.8152   XZ=             -1.4756   YZ=              0.2779

  Exact polarizability:  84.730   1.238  69.178   0.480  -0.619  68.736
 Approx polarizability: 111.583  -2.845 106.928   0.959  -0.067 109.446

                      1                      2                      3
                      A                      A                      A
 Frequencies --    198.7318               204.1526               231.1830
 Red. masses --      1.0630                 2.9058                 3.3288
 Frc consts  --      0.0247                 0.0714                 0.1048
 IR Inten    --      0.5282                 0.4400                 2.2035

                      4                      5                      6
                      A                      A                      A
 Frequencies --    278.9435               339.4844               375.8081
 Red. masses --      1.0961                 2.7928                 3.8070
 Frc consts  --      0.0502                 0.1896                 0.3168
 IR Inten    --     77.2626                 7.9962                14.2442

                      7                      8                      9
                      A                      A                      A
 Frequencies --    470.2930               514.0068               555.5729
 Red. masses --      1.9663                 3.9736                 5.1548
 Frc consts  --      0.2562                 0.6185                 0.9375
 IR Inten    --      1.7495                14.2908                 1.8868

                     10                     11                     12
                      A                      A                      A
 Frequencies --    606.7650               697.2130               775.2358
 Red. masses --      4.1635                 4.6669                 2.6767
 Frc consts  --      0.9031                 1.3366                 0.9478
 IR Inten    --      1.5665                 0.8300                 4.6046

                     13                     14                     15
                      A                      A                      A
 Frequencies --    816.2346               827.0282               856.7593
 Red. masses --      1.8652                 2.0209                 3.0370
 Frc consts  --      0.7322                 0.8144                 1.3135
 IR Inten    --      5.2423                 0.1053                 3.1572

                     16                     17                     18
                      A                      A                      A
 Frequencies --    900.4600               922.4584               936.2206
 Red. masses --      2.3253                 1.9601                 2.1131
 Frc consts  --      1.1109                 0.9827                 1.0913
 IR Inten    --      8.6233                 8.0271                17.5269

                     19                     20                     21
                      A                      A                      A
 Frequencies --    950.1894               959.5929               994.5983
 Red. masses --      2.1704                 3.3480                 1.9276
 Frc consts  --      1.1545                 1.8164                 1.1235
 IR Inten    --     27.5368                20.0292                 4.0727

                     22                     23                     24
                      A                      A                      A
 Frequencies --   1031.4315              1040.4286              1071.8106
 Red. masses --      3.0647                 2.5774                 1.6789
 Frc consts  --      1.9209                 1.6438                 1.1364
 IR Inten    --      9.5227                35.9344                 5.5360

                     25                     26                     27
                      A                      A                      A
 Frequencies --   1094.8466              1113.5971              1149.5424
 Red. masses --      1.3014                 1.5624                 1.6762
 Frc consts  --      0.9191                 1.1416                 1.3050
 IR Inten    --      1.3336                28.1852                 5.0820

                     28                     29                     30
                      A                      A                      A
 Frequencies --   1163.1284              1176.1848              1196.6139
 Red. masses --      2.1295                 1.6151                 1.6000
 Frc consts  --      1.6974                 1.3164                 1.3499
 IR Inten    --     44.8175                 0.7713                 8.4782

                     31                     32                     33
                      A                      A                      A
 Frequencies --   1209.2973              1238.3295              1253.4074
 Red. masses --      2.1103                 1.5185                 1.6746
 Frc consts  --      1.8182                 1.3720                 1.5501
 IR Inten    --     20.7848                 1.4828                47.4174

                     34                     35                     36
                      A                      A                      A
 Frequencies --   1270.8800              1279.4203              1334.5326
 Red. masses --      1.9075                 1.8842                 1.5323
 Frc consts  --      1.8152                 1.8172                 1.6078
 IR Inten    --     22.2159                 4.4275                 6.0248

                     37                     38                     39
                      A                      A                      A
 Frequencies --   1380.9184              1400.3648              1482.3385
 Red. masses --      1.8036                 1.3606                 1.1169
 Frc consts  --      2.0264                 1.5720                 1.4460
 IR Inten    --     15.6010                18.5580                 1.7624

                     40                     41                     42
                      A                      A                      A
 Frequencies --   1484.7296              1497.7353              3026.6640
 Red. masses --      1.0632                 1.0685                 1.0412
 Frc consts  --      1.3810                 1.4122                 5.6196
 IR Inten    --      2.1777                 7.6102                27.9355

                     43                     44                     45
                      A                      A                      A
 Frequencies --   3057.4883              3091.9219              3117.3169
 Red. masses --      1.0559                 1.0963                 1.0897
 Frc consts  --      5.8157                 6.1749                 6.2393
 IR Inten    --     35.5132                18.8968                19.9785

                     46                     47                     48
                      A                      A                      A
 Frequencies --   3119.4153              3135.2240              3136.4475
 Red. masses --      1.1090                 1.0910                 1.0971
 Frc consts  --      6.3581                 6.3185                 6.3590
 IR Inten    --     30.2514                42.4715                36.2774

                     49                     50                     51
                      A                      A                      A
 Frequencies --   3138.2404              3174.9957              3806.7840
 Red. masses --      1.0939                 1.0921                 1.0662
 Frc consts  --      6.3477                 6.4866                 9.1036
 IR Inten    --      7.7786                18.2844                18.8868

 - Thermochemistry -
 -------------------
 Temperature   298.150 Kelvin.  Pressure   1.00000 Atm.
 Atom     1 has atomic number  6 and mass  12.00000

 Molecular mass:   126.06808 amu.
 Principal axes and moments of inertia in atomic units:
                           1         2         3
     Eigenvalues --   558.383061071.340761259.54852
           X            0.99874   0.04999  -0.00401
           Y           -0.05007   0.99849  -0.02250
           Z            0.00287   0.02267   0.99974
 This molecule is an asymmetric top.
 Rotational symmetry number  1.
 Warning -- assumption of classical behavior for rotation
           may cause significant error
 Rotational temperatures (Kelvin)      0.15512     0.08085     0.06877
 Rotational constants (GHZ):           3.23208     1.68456     1.43285
 Zero-point vibrational energy     419201.2 (Joules/Mol)
                                  100.19149 (Kcal/Mol)
 Warning -- explicit consideration of  10 degrees of freedom as
           vibrations may cause significant error
 Vibrational temperatures:    285.93   293.73   332.62   401.34   488.44
          (Kelvin)            540.70   676.65   739.54   799.34   873.00
                             1003.13  1115.39  1174.38  1189.91  1232.68
                             1295.56  1327.21  1347.01  1367.11  1380.64
                             1431.00  1484.00  1496.94  1542.09  1575.24
                             1602.22  1653.93  1673.48  1692.27  1721.66
                             1739.91  1781.68  1803.37  1828.51  1840.80
                             1920.09  1986.83  2014.81  2132.75  2136.19
                             2154.90  4354.69  4399.04  4448.58  4485.12
                             4488.14  4510.88  4512.64  4515.22  4568.11
                             5477.11

 Zero-point correction=                           0.159665 (Hartree/Particle)
 Thermal correction to Energy=                    0.167095
 Thermal correction to Enthalpy=                  0.168039
 Thermal correction to Gibbs Free Energy=         0.128426
 Sum of electronic and zero-point Energies=           -422.980653
 Sum of electronic and thermal Energies=              -422.973223
 Sum of electronic and thermal Enthalpies=            -422.972279
 Sum of electronic and thermal Free Energies=         -423.011893

                     E (Thermal)             CV                S
                      KCal/Mol        Cal/Mol-Kelvin    Cal/Mol-Kelvin
 Total                  104.854             30.821             83.374
 Electronic               0.000              0.000              0.000
 Translational            0.889              2.981             40.409
 Rotational               0.889              2.981             28.112
 Vibrational            103.076             24.859             14.853
 Vibration     1          0.637              1.842              2.145
 Vibration     2          0.640              1.834              2.095
 Vibration     3          0.653              1.793              1.870
 Vibration     4          0.679              1.712              1.540
 Vibration     5          0.719              1.597              1.215
 Vibration     6          0.747              1.522              1.056
 Vibration     7          0.827              1.316              0.737
 Vibration     8          0.869              1.219              0.624
 Vibration     9          0.911              1.128              0.533
 Vibration    10          0.965              1.017              0.438

 Optimization completed.
    -- Stationary point found.
 Normal termination of Gaussian 09 at Mon Jan 27 16:54:30 2020.
