 Gaussian 09, Revision D.01,
 Gaussian 09:  ES64L-G09RevD.01 24-Apr-2013

 -----------------------------
 # b3lyp 6-31G(2df,p) opt Freq
 -----------------------------

 -----
 titel
 -----
 Symbolic Z-matrix:
 Charge =  0 Multiplicity = 1

 SCF Done:  E(RB3LYP) =  -423.221128943     A.U. after   14 cycles
 Optimization completed.
    -- Stationary point found.
 Normal termination of Gaussian 09 at Mon Jan 27 13:06:12 2020.

 ----------------------------------------------------------------------
 #N Geom=AllCheck Guess=TCheck SCRF=Check GenChk RB3LYP/6-31G(2df,p) Fr
 eq
 ----------------------------------------------------------------------

 Structure from the checkpoint file:  "/scratch/puck/g09_c8722799-fff4-4580-a866-8a525c824a60/Gau-157906.chk"
 -----
 titel
 -----
 Charge =  0 Multiplicity = 1

                         Standard orientation:
 ---------------------------------------------------------------------
 Center     Atomic      Atomic             Coordinates (Angstroms)
 Number     Number       Type             X           Y           Z
 ---------------------------------------------------------------------
      1          8           0        2.460909   -1.243742    0.143321
      2          6           0        1.507542   -0.530100   -0.008681
      3          6           0        0.145043   -1.066755   -0.439674
      4          6           0       -1.025257   -0.140536   -0.177801
      5          6           0       -1.886031   -0.366295    1.043352
      6          6           0       -2.425405   -0.661720   -0.338491
      7          6           0       -0.674368    1.277275   -0.572677
      8          6           0        0.548769    1.715659    0.221768
      9          8           0        1.663081    0.811313    0.117356
     10          1           0        0.237488   -1.254397   -1.519219
     11          1           0        0.021922   -2.044755    0.031639
     12          1           0       -1.652038   -1.205124    1.690278
     13          1           0       -2.275684    0.500798    1.567007
     14          1           0       -2.554788   -1.700748   -0.623860
     15          1           0       -3.176229    0.007037   -0.746694
     16          1           0       -0.461800    1.331948   -1.648362
     17          1           0       -1.497448    1.969648   -0.365765
     18          1           0        0.932547    2.679650   -0.121657
     19          1           0        0.292349    1.810209    1.284451
 ---------------------------------------------------------------------

 SCF Done:  E(RB3LYP) =  -423.221128943     A.U. after    1 cycles

 The electronic state is 1-A.
 Alpha  occ. eigenvalues --  -19.17476 -19.11188 -10.30130 -10.24902 -10.21294
 Alpha  occ. eigenvalues --  -10.20235 -10.20219 -10.19665 -10.19590  -1.08931
 Alpha  occ. eigenvalues --   -1.00866  -0.88314  -0.77789  -0.75428  -0.66881
 Alpha  occ. eigenvalues --   -0.61553  -0.58093  -0.53747  -0.51371  -0.49761
 Alpha  occ. eigenvalues --   -0.48330  -0.47323  -0.44092  -0.42851  -0.41592
 Alpha  occ. eigenvalues --   -0.40796  -0.37782  -0.36318  -0.35150  -0.34145
 Alpha  occ. eigenvalues --   -0.30497  -0.29753  -0.28245  -0.25312
 Alpha virt. eigenvalues --    0.01568   0.07215   0.09681   0.09971   0.11080
 Alpha virt. eigenvalues --    0.12317   0.13777   0.14354   0.15144   0.16279
 Alpha virt. eigenvalues --    0.16866   0.17933   0.19640   0.20885   0.21909

 Mulliken charges:
               1
     1  O   -0.322677
     2  C    0.410604
     3  C   -0.417914
     4  C    0.370522
     5  C   -0.304360
     6  C   -0.335128
     7  C   -0.303206
     8  C   -0.058366
     9  O   -0.231063
    10  H    0.138182
    11  H    0.134109
    12  H    0.120107
    13  H    0.113326
    14  H    0.116821
    15  H    0.114336
    16  H    0.110076
    17  H    0.106298
    18  H    0.121413
    19  H    0.116920
 Sum of Mulliken charges =   0.00000

 Dipole moment (field-independent basis, Debye):
    X=             -4.0669    Y=              1.7519    Z=             -0.5284  Tot=              4.4596
 Quadrupole moment (field-independent basis, Debye-Ang):
   XX=            -64.3853   YY=            -50.8944   ZZ=            -51.5681
   XY=              3.2897   XZ=             -1.0657   YZ=              0.5780

  Exact polarizability:  82.782  -2.328  79.384   0.194   0.539  64.202
 Approx polarizability: 113.665  -8.037 116.043   0.764   0.258  99.363

                      1                      2                      3
                      A                      A                      A
 Frequencies --     81.3874               111.6749               205.4497
 Red. masses --      3.5922                 4.9131                 2.3104
 Frc consts  --      0.0140                 0.0361                 0.0575
 IR Inten    --      3.5026                 1.0742                 2.4780

                      4                      5                      6
                      A                      A                      A
 Frequencies --    264.4211               336.3494               362.6083
 Red. masses --      2.3286                 2.1023                 2.4962
 Frc consts  --      0.0959                 0.1401                 0.1934
 IR Inten    --      1.4429                 1.0340                 0.0613

                      7                      8                      9
                      A                      A                      A
 Frequencies --    440.2376               464.3600               494.6781
 Red. masses --      3.4811                 3.7911                 3.9376
 Frc consts  --      0.3975                 0.4816                 0.5677
 IR Inten    --      0.9602                 3.1733                 2.8876

                     10                     11                     12
                      A                      A                      A
 Frequencies --    576.2861               645.8230               739.3813
 Red. masses --      2.9224                 4.2134                 2.3502
 Frc consts  --      0.5718                 1.0354                 0.7570
 IR Inten    --      6.9702                 4.2819                 2.7400

                     13                     14                     15
                      A                      A                      A
 Frequencies --    777.8249               795.4917               864.9914
 Red. masses --      1.3169                 2.1892                 2.3106
 Frc consts  --      0.4694                 0.8162                 1.0186
 IR Inten    --      2.2589                 7.8608                 1.0527

                     16                     17                     18
                      A                      A                      A
 Frequencies --    908.9608               920.5465               965.2245
 Red. masses --      2.0930                 1.3549                 1.9305
 Frc consts  --      1.0188                 0.6765                 1.0597
 IR Inten    --      2.8745                 2.3860                 3.8136

                     19                     20                     21
                      A                      A                      A
 Frequencies --    978.2457               997.4378              1012.4330
 Red. masses --      2.7395                 2.3228                 1.8852
 Frc consts  --      1.5446                 1.3616                 1.1385
 IR Inten    --     15.5102                11.5502                 6.1014

                     22                     23                     24
                      A                      A                      A
 Frequencies --   1055.7007              1083.6935              1098.4650
 Red. masses --      1.3721                 1.4183                 3.5605
 Frc consts  --      0.9010                 0.9814                 2.5312
 IR Inten    --      2.0612                 0.3790                52.8182

                     25                     26                     27
                      A                      A                      A
 Frequencies --   1105.4550              1174.3113              1186.5888
 Red. masses --      2.2748                 2.1257                 1.2898
 Frc consts  --      1.6379                 1.7271                 1.0699
 IR Inten    --     24.7541               104.5740                 0.1248

                     28                     29                     30
                      A                      A                      A
 Frequencies --   1211.6049              1234.2848              1280.0892
 Red. masses --      1.4527                 1.7374                 1.2734
 Frc consts  --      1.2565                 1.5595                 1.2294
 IR Inten    --      3.7916               123.7478                45.7219

                     31                     32                     33
                      A                      A                      A
 Frequencies --   1302.5394              1326.3808              1367.4431
 Red. masses --      1.4358                 2.1173                 1.7109
 Frc consts  --      1.4352                 2.1947                 1.8849
 IR Inten    --     10.4173                21.6402                 1.5816

                     34                     35                     36
                      A                      A                      A
 Frequencies --   1401.7872              1430.1843              1456.4389
 Red. masses --      2.0632                 1.4025                 1.1008
 Frc consts  --      2.3886                 1.6902                 1.3758
 IR Inten    --      6.6814                20.5063                 3.1413

                     37                     38                     39
                      A                      A                      A
 Frequencies --   1468.3847              1481.5626              1507.8629
 Red. masses --      1.0887                 1.1311                 1.3448
 Frc consts  --      1.3830                 1.4628                 1.8015
 IR Inten    --      3.0336                 3.2567                 1.4397

                     40                     41                     42
                      A                      A                      A
 Frequencies --   1513.6732              1843.2737              3016.3882
 Red. masses --      1.1411                12.5082                 1.0691
 Frc consts  --      1.5404                25.0395                 5.7313
 IR Inten    --      5.7194               339.1160                11.5675

                     43                     44                     45
                      A                      A                      A
 Frequencies --   3023.3213              3030.9699              3079.1340
 Red. masses --      1.0664                 1.0630                 1.0982
 Frc consts  --      5.7432                 5.7535                 6.1349
 IR Inten    --     17.5909                38.8820                26.9283

                     46                     47                     48
                      A                      A                      A
 Frequencies --   3098.1948              3102.6461              3125.6016
 Red. masses --      1.1010                 1.0917                 1.0509
 Frc consts  --      6.2267                 6.1921                 6.0490
 IR Inten    --     32.8358                 6.6625                17.2286

                     49                     50                     51
                      A                      A                      A
 Frequencies --   3130.4048              3204.2081              3218.5440
 Red. masses --      1.0584                 1.1178                 1.1156
 Frc consts  --      6.1111                 6.7619                 6.8086
 IR Inten    --      8.9304                 0.1217                15.4168

 - Thermochemistry -
 -------------------
 Temperature   298.150 Kelvin.  Pressure   1.00000 Atm.
 Atom     1 has atomic number  8 and mass  15.99491

 Molecular mass:   126.06808 amu.
 Principal axes and moments of inertia in atomic units:
                           1         2         3
     Eigenvalues --   629.356821308.736341685.34669
           X            0.99976   0.02153  -0.00375
           Y           -0.02150   0.99975   0.00662
           Z            0.00389  -0.00654   0.99997
 This molecule is an asymmetric top.
 Rotational symmetry number  1.
 Warning -- assumption of classical behavior for rotation
           may cause significant error
 Rotational temperatures (Kelvin)      0.13762     0.06618     0.05139
 Rotational constants (GHZ):           2.86760     1.37900     1.07084
 Zero-point vibrational energy     421701.3 (Joules/Mol)
                                  100.78903 (Kcal/Mol)
 Warning -- explicit consideration of  10 degrees of freedom as
           vibrations may cause significant error
 Vibrational temperatures:    117.10   160.68   295.60   380.44   483.93
          (Kelvin)            521.71   633.40   668.11   711.73   829.15
                              929.19  1063.80  1119.12  1144.53  1244.53
                             1307.79  1324.46  1388.74  1407.48  1435.09
                             1456.66  1518.92  1559.19  1580.44  1590.50
                             1689.57  1707.23  1743.23  1775.86  1841.76
                             1874.06  1908.36  1967.44  2016.86  2057.71
                             2095.49  2112.68  2131.64  2169.48  2177.84
                             2652.06  4339.90  4349.88  4360.88  4430.18
                             4457.61  4464.01  4497.04  4503.95  4610.14
                             4630.76

 Zero-point correction=                           0.160618 (Hartree/Particle)
 Thermal correction to Energy=                    0.168575
 Thermal correction to Enthalpy=                  0.169519
 Thermal correction to Gibbs Free Energy=         0.127922
 Sum of electronic and zero-point Energies=           -423.060511
 Sum of electronic and thermal Energies=              -423.052554
 Sum of electronic and thermal Enthalpies=            -423.051610
 Sum of electronic and thermal Free Energies=         -423.093207

                     E (Thermal)             CV                S
                      KCal/Mol        Cal/Mol-Kelvin    Cal/Mol-Kelvin
 Total                  105.782             30.918             87.550
 Electronic               0.000              0.000              0.000
 Translational            0.889              2.981             40.409
 Rotational               0.889              2.981             28.719
 Vibrational            104.005             24.956             18.422
 Vibration     1          0.600              1.962              3.857
 Vibration     2          0.607              1.940              3.240
 Vibration     3          0.640              1.832              2.084
 Vibration     4          0.671              1.738              1.632
 Vibration     5          0.717              1.603              1.229
 Vibration     6          0.736              1.549              1.111
 Vibration     7          0.800              1.382              0.826
 Vibration     8          0.822              1.329              0.754
 Vibration     9          0.850              1.262              0.672
 Vibration    10          0.933              1.083              0.492

 Normal termination of Gaussian 09 at Mon Jan 27 13:53:42 2020.
