 Gaussian 09, Revision D.01,
 Gaussian 09:  ES64L-G09RevD.01 24-Apr-2013

 -----------------------------
 # b3lyp 6-31G(2df,p) opt Freq
 -----------------------------

 -----
 titel
 -----
 Symbolic Z-matrix:
 Charge =  0 Multiplicity = 1

 SCF Done:  E(RB3LYP) =  -423.206031343     A.U. after   14 cycles
 Optimization completed.
    -- Stationary point found.
 Normal termination of Gaussian 09 at Mon Jan 27 16:14:27 2020.

 ----------------------------------------------------------------------
 #N Geom=AllCheck Guess=TCheck SCRF=Check GenChk RB3LYP/6-31G(2df,p) Fr
 eq
 ----------------------------------------------------------------------

 Structure from the checkpoint file:  "/scratch/puck/g09_0af7bbb1-a0b6-497d-8213-8526a0e964d9/Gau-47083.chk"
 -----
 titel
 -----
 Charge =  0 Multiplicity = 1

                         Standard orientation:
 ---------------------------------------------------------------------
 Center     Atomic      Atomic             Coordinates (Angstroms)
 Number     Number       Type             X           Y           Z
 ---------------------------------------------------------------------
      1          6           0        2.689398   -0.075594    0.534420
      2          6           0        1.265825   -0.127993   -0.019567
      3          8           0        1.157440   -1.203327   -0.974000
      4          6           0        0.182208   -0.396846    1.050760
      5          6           0       -1.068335    0.407648    0.610267
      6          6           0       -2.042795   -0.447562   -0.195486
      7          8           0       -3.237841   -0.437899   -0.054465
      8          6           0       -0.467855    1.461519   -0.299761
      9          6           0        0.787959    1.174527   -0.636979
     10          1           0        2.797084    0.720571    1.277597
     11          1           0        2.949916   -1.030703    1.000045
     12          1           0        3.410715    0.115991   -0.268818
     13          1           0        1.689149   -0.973711   -1.744155
     14          1           0        0.001364   -1.470784    1.146223
     15          1           0        0.517256   -0.023846    2.021990
     16          1           0       -1.626241    0.836105    1.447946
     17          1           0       -1.541682   -1.086396   -0.955363
     18          1           0       -1.045353    2.307326   -0.655839
     19          1           0        1.412576    1.761065   -1.303816
 ---------------------------------------------------------------------

 SCF Done:  E(RB3LYP) =  -423.206031343     A.U. after    1 cycles

 The electronic state is 1-A.
 Alpha  occ. eigenvalues --  -19.14183 -19.13334 -10.26272 -10.24835 -10.19922
 Alpha  occ. eigenvalues --  -10.19875 -10.19124 -10.19111 -10.18335  -1.04017
 Alpha  occ. eigenvalues --   -1.02297  -0.85377  -0.75540  -0.73049  -0.67524
 Alpha  occ. eigenvalues --   -0.60277  -0.56369  -0.55759  -0.51467  -0.48509
 Alpha  occ. eigenvalues --   -0.44843  -0.44145  -0.42816  -0.42343  -0.40317
 Alpha  occ. eigenvalues --   -0.38742  -0.38327  -0.36862  -0.36090  -0.34607
 Alpha  occ. eigenvalues --   -0.32116  -0.28376  -0.27028  -0.23702
 Alpha virt. eigenvalues --   -0.02789   0.01775   0.06982   0.10958   0.12023
 Alpha virt. eigenvalues --    0.12778   0.14266   0.15221   0.15779   0.15908
 Alpha virt. eigenvalues --    0.16818   0.18614   0.19425   0.20475   0.21625

 Mulliken charges:
               1
     1  C   -0.439382
     2  C    0.353708
     3  O   -0.463972
     4  C   -0.269263
     5  C   -0.125830
     6  C    0.152031
     7  O   -0.255257
     8  C   -0.097870
     9  C   -0.111815
    10  H    0.119983
    11  H    0.127844
    12  H    0.105930
    13  H    0.274827
    14  H    0.120157
    15  H    0.110210
    16  H    0.090860
    17  H    0.097918
    18  H    0.113585
    19  H    0.096336
 Sum of Mulliken charges =   0.00000

 Dipole moment (field-independent basis, Debye):
    X=              3.5769    Y=              1.4208    Z=             -0.2293  Tot=              3.8556
 Quadrupole moment (field-independent basis, Debye-Ang):
   XX=            -62.2137   YY=            -53.8000   ZZ=            -49.5025
   XY=             -1.4260   XZ=             -2.3399   YZ=             -1.2891

  Exact polarizability:  99.897  -1.466  68.659  -5.004  -0.986  66.144
 Approx polarizability: 146.119  -2.818 103.947 -13.025   1.140 100.145

                      1                      2                      3
                      A                      A                      A
 Frequencies --     73.8590                77.4570               175.0441
 Red. masses --      5.1520                 4.2634                 2.9550
 Frc consts  --      0.0166                 0.0151                 0.0533
 IR Inten    --      3.3237                 0.8732                 1.4848

                      4                      5                      6
                      A                      A                      A
 Frequencies --    242.7009               262.6193               266.0226
 Red. masses --      1.0702                 2.6723                 1.1015
 Frc consts  --      0.0371                 0.1086                 0.0459
 IR Inten    --      0.4039                 6.9134                94.5767

                      7                      8                      9
                      A                      A                      A
 Frequencies --    337.1366               351.7332               380.3801
 Red. masses --      2.1403                 4.0610                 2.1727
 Frc consts  --      0.1433                 0.2960                 0.1852
 IR Inten    --      0.8340                12.6801                 5.1899

                     10                     11                     12
                      A                      A                      A
 Frequencies --    422.6189               459.5010               552.3760
 Red. masses --      2.6717                 4.3689                 2.8405
 Frc consts  --      0.2811                 0.5435                 0.5106
 IR Inten    --     11.0167                 4.3799                10.0974

                     13                     14                     15
                      A                      A                      A
 Frequencies --    630.4127               777.0360               788.0659
 Red. masses --      4.0351                 5.3833                 1.5286
 Frc consts  --      0.9448                 1.9151                 0.5593
 IR Inten    --      0.6517                 0.6513                41.5819

                     16                     17                     18
                      A                      A                      A
 Frequencies --    804.6435               860.6353               923.4376
 Red. masses --      3.0907                 2.1028                 2.3004
 Frc consts  --      1.1790                 0.9177                 1.1557
 IR Inten    --     11.0439                 0.4086                26.6850

                     19                     20                     21
                      A                      A                      A
 Frequencies --    934.1668               939.3768               980.7078
 Red. masses --      1.9036                 2.4439                 1.3301
 Frc consts  --      0.9787                 1.2706                 0.7537
 IR Inten    --      7.7124                16.8761                 0.5058

                     22                     23                     24
                      A                      A                      A
 Frequencies --    991.4005              1026.7398              1075.5012
 Red. masses --      1.9298                 2.0150                 1.7884
 Frc consts  --      1.1175                 1.2516                 1.2188
 IR Inten    --      2.1150                53.0283                 4.2587

                     25                     26                     27
                      A                      A                      A
 Frequencies --   1105.7932              1135.6411              1150.0673
 Red. masses --      1.3100                 2.0431                 1.5925
 Frc consts  --      0.9438                 1.5525                 1.2410
 IR Inten    --      9.1281                37.5400                 6.1528

                     28                     29                     30
                      A                      A                      A
 Frequencies --   1182.0378              1237.5257              1271.6046
 Red. masses --      2.2414                 1.4825                 1.7492
 Frc consts  --      1.8452                 1.3377                 1.6664
 IR Inten    --     22.6583                22.0187                10.6881

                     31                     32                     33
                      A                      A                      A
 Frequencies --   1276.6526              1310.7888              1359.5249
 Red. masses --      1.4021                 1.3245                 1.7618
 Frc consts  --      1.3464                 1.3408                 1.9186
 IR Inten    --      0.8507                 4.8266                37.1268

                     34                     35                     36
                      A                      A                      A
 Frequencies --   1382.1181              1405.0624              1416.7425
 Red. masses --      1.7628                 1.2559                 1.1776
 Frc consts  --      1.9840                 1.4608                 1.3926
 IR Inten    --      5.3003                 5.2869                 4.4544

                     37                     38                     39
                      A                      A                      A
 Frequencies --   1474.1368              1490.2187              1490.9383
 Red. masses --      1.0898                 1.0576                 1.0643
 Frc consts  --      1.3953                 1.3838                 1.3939
 IR Inten    --      4.0249                 4.1993                 2.1145

                     40                     41                     42
                      A                      A                      A
 Frequencies --   1673.7600              1828.4574              2904.4309
 Red. masses --      6.6806                10.0356                 1.0845
 Frc consts  --     11.0268                19.7679                 5.3903
 IR Inten    --      8.7629               235.8931                50.2381

                     43                     44                     45
                      A                      A                      A
 Frequencies --   3027.9645              3062.7842              3074.0585
 Red. masses --      1.0365                 1.0658                 1.0794
 Frc consts  --      5.5993                 5.8906                 6.0098
 IR Inten    --     19.3582                12.8411                20.4896

                     46                     47                     48
                      A                      A                      A
 Frequencies --   3094.7554              3112.6768              3116.8506
 Red. masses --      1.0990                 1.1044                 1.1031
 Frc consts  --      6.2016                 6.3045                 6.3136
 IR Inten    --     23.7249                 3.6426                26.8349

                     49                     50                     51
                      A                      A                      A
 Frequencies --   3174.6227              3205.3509              3801.9464
 Red. masses --      1.0859                 1.1027                 1.0662
 Frc consts  --      6.4479                 6.6754                 9.0802
 IR Inten    --      5.7671                14.3402                16.7437

 - Thermochemistry -
 -------------------
 Temperature   298.150 Kelvin.  Pressure   1.00000 Atm.
 Atom     1 has atomic number  6 and mass  12.00000

 Molecular mass:   126.06808 amu.
 Principal axes and moments of inertia in atomic units:
                           1         2         3
     Eigenvalues --   532.908221669.783801780.88000
           X            0.99997  -0.00536   0.00538
           Y            0.00564   0.99847  -0.05504
           Z           -0.00508   0.05507   0.99847
 This molecule is an asymmetric top.
 Rotational symmetry number  1.
 Warning -- assumption of classical behavior for rotation
           may cause significant error
 Rotational temperatures (Kelvin)      0.16253     0.05187     0.04864
 Rotational constants (GHZ):           3.38659     1.08082     1.01340
 Zero-point vibrational energy     413310.3 (Joules/Mol)
                                   98.78353 (Kcal/Mol)
 Warning -- explicit consideration of  12 degrees of freedom as
           vibrations may cause significant error
 Vibrational temperatures:    106.27   111.44   251.85   349.19   377.85
          (Kelvin)            382.75   485.06   506.06   547.28   608.05
                              661.12   794.74   907.02  1117.98  1133.85
                             1157.70  1238.26  1328.62  1344.06  1351.55
                             1411.02  1426.40  1477.25  1547.40  1590.99
                             1633.93  1654.69  1700.69  1780.52  1829.55
                             1836.82  1885.93  1956.05  1988.56  2021.57
                             2038.37  2120.95  2144.09  2145.13  2408.16
                             2630.74  4178.82  4356.56  4406.66  4422.88
                             4452.66  4478.44  4484.45  4567.57  4611.78
                             5470.15

 Zero-point correction=                           0.157422 (Hartree/Particle)
 Thermal correction to Energy=                    0.166563
 Thermal correction to Enthalpy=                  0.167508
 Thermal correction to Gibbs Free Energy=         0.123469
 Sum of electronic and zero-point Energies=           -423.048610
 Sum of electronic and thermal Energies=              -423.039468
 Sum of electronic and thermal Enthalpies=            -423.038524
 Sum of electronic and thermal Free Energies=         -423.082562

                     E (Thermal)             CV                S
                      KCal/Mol        Cal/Mol-Kelvin    Cal/Mol-Kelvin
 Total                  104.520             34.301             92.687
 Electronic               0.000              0.000              0.000
 Translational            0.889              2.981             40.409
 Rotational               0.889              2.981             28.851
 Vibrational            102.743             28.340             23.427
 Vibration     1          0.599              1.966              4.048
 Vibration     2          0.599              1.964              3.954
 Vibration     3          0.627              1.873              2.381
 Vibration     4          0.659              1.775              1.783
 Vibration     5          0.670              1.741              1.644
 Vibration     6          0.672              1.735              1.622
 Vibration     7          0.718              1.601              1.226
 Vibration     8          0.728              1.572              1.158
 Vibration     9          0.750              1.512              1.038
 Vibration    10          0.785              1.421              0.883
 Vibration    11          0.817              1.340              0.768
 Vibration    12          0.908              1.134              0.539

 Optimization completed.
    -- Stationary point found.
 Normal termination of Gaussian 09 at Mon Jan 27 16:56:09 2020.
 Normal termination of Gaussian 09 at Mon Jan 27 16:06:45 2020.
