 Gaussian 09, Revision D.01,
 Gaussian 09:  ES64L-G09RevD.01 24-Apr-2013

 -----------------------------
 # b3lyp 6-31G(2df,p) opt Freq
 -----------------------------

 -----
 titel
 -----
 Symbolic Z-matrix:
 Charge =  0 Multiplicity = 1

 SCF Done:  E(RB3LYP) =  -423.173580736     A.U. after   14 cycles
 Optimization completed.
    -- Stationary point found.
 Normal termination of Gaussian 09 at Tue Jan 28 02:41:56 2020.

 ----------------------------------------------------------------------
 #N Geom=AllCheck Guess=TCheck SCRF=Check GenChk RB3LYP/6-31G(2df,p) Fr
 eq
 ----------------------------------------------------------------------

 Structure from the checkpoint file:  "/scratch/puck/g09_de06db5a-905a-47f6-88fa-8dbec24a813f/Gau-6128.chk"
 -----
 titel
 -----
 Charge =  0 Multiplicity = 1

                         Standard orientation:
 ---------------------------------------------------------------------
 Center     Atomic      Atomic             Coordinates (Angstroms)
 Number     Number       Type             X           Y           Z
 ---------------------------------------------------------------------
      1          6           0        2.759279    0.512066   -0.827820
      2          6           0        1.894015   -0.216491    0.191969
      3          6           0        0.885897    0.701126    0.975232
      4          6           0       -0.270141   -0.069922    0.331821
      5          8           0       -0.109408   -1.462405    0.656785
      6          6           0        0.680387   -0.952843   -0.405148
      7          6           0       -1.605777    0.439871   -0.076212
      8          6           0       -2.630635   -0.584527   -0.514213
      9          8           0       -1.828433    1.631516   -0.045202
     10          1           0        3.483514    1.162207   -0.327257
     11          1           0        3.316898   -0.194091   -1.452697
     12          1           0        2.150746    1.138568   -1.489702
     13          1           0        2.501640   -0.867078    0.827799
     14          1           0        0.915571    0.659930    2.065803
     15          1           0        0.918618    1.739629    0.641448
     16          1           0        0.579759   -1.426880   -1.376913
     17          1           0       -2.922526   -1.201390    0.342257
     18          1           0       -3.504584   -0.071103   -0.916355
     19          1           0       -2.215051   -1.268362   -1.260822
 ---------------------------------------------------------------------

 SCF Done:  E(RB3LYP) =  -423.173580736     A.U. after    1 cycles

 The electronic state is 1-A.
 Alpha  occ. eigenvalues --  -19.16837 -19.12995 -10.27372 -10.25222 -10.24790
 Alpha  occ. eigenvalues --  -10.20452 -10.19243 -10.18775 -10.18713  -1.09543
 Alpha  occ. eigenvalues --   -1.03953  -0.82367  -0.75450  -0.72355  -0.66437
 Alpha  occ. eigenvalues --   -0.64777  -0.56937  -0.54920  -0.48600  -0.47285
 Alpha  occ. eigenvalues --   -0.46632  -0.44877  -0.43249  -0.42166  -0.40878
 Alpha  occ. eigenvalues --   -0.40288  -0.38978  -0.36704  -0.35065  -0.35040
 Alpha  occ. eigenvalues --   -0.33631  -0.30102  -0.26609  -0.24863
 Alpha virt. eigenvalues --   -0.02656   0.08893   0.09630   0.10060   0.12440
 Alpha virt. eigenvalues --    0.12778   0.13680   0.14089   0.15337   0.15943
 Alpha virt. eigenvalues --    0.17323   0.17529   0.18840   0.19539   0.20953

 Mulliken charges:
               1
     1  C   -0.410287
     2  C   -0.000128
     3  C   -0.322392
     4  C    0.332427
     5  O   -0.279102
     6  C   -0.046371
     7  C    0.274615
     8  C   -0.485154
     9  O   -0.306983
    10  H    0.126812
    11  H    0.118869
    12  H    0.123249
    13  H    0.088597
    14  H    0.112039
    15  H    0.131917
    16  H    0.108610
    17  H    0.155708
    18  H    0.139173
    19  H    0.138399
 Sum of Mulliken charges =   0.00000

 Dipole moment (field-independent basis, Debye):
    X=              1.5507    Y=             -1.3284    Z=             -1.0449  Tot=              2.2937
 Quadrupole moment (field-independent basis, Debye-Ang):
   XX=            -50.7784   YY=            -59.1791   ZZ=            -51.6669
   XY=              4.5819   XZ=              0.2191   YZ=              2.5712

  Exact polarizability:  92.148  -1.886  74.437   0.242   3.610  64.249
 Approx polarizability: 115.950 -10.583 127.893  -2.586   3.900  97.777

                      1                      2                      3
                      A                      A                      A
 Frequencies --     67.4017                90.2408               120.7563
 Red. masses --      3.4590                 3.1802                 1.0922
 Frc consts  --      0.0093                 0.0153                 0.0094
 IR Inten    --      4.5727                 0.2907                 0.1137

                      4                      5                      6
                      A                      A                      A
 Frequencies --    178.9899               243.2835               261.3122
 Red. masses --      2.7912                 1.7332                 1.6785
 Frc consts  --      0.0527                 0.0604                 0.0675
 IR Inten    --      6.7222                 2.7800                 0.3461

                      7                      8                      9
                      A                      A                      A
 Frequencies --    301.8722               340.2887               440.1337
 Red. masses --      2.6695                 2.9887                 2.0969
 Frc consts  --      0.1433                 0.2039                 0.2393
 IR Inten    --      0.5352                 0.3499                 5.1838

                     10                     11                     12
                      A                      A                      A
 Frequencies --    491.2798               506.7600               588.7386
 Red. masses --      6.1036                 5.6455                 2.7484
 Frc consts  --      0.8680                 0.8542                 0.5613
 IR Inten    --      0.8285                15.4172                 6.7774

                     13                     14                     15
                      A                      A                      A
 Frequencies --    623.2088               736.3049               818.4198
 Red. masses --      2.9644                 3.1803                 3.1053
 Frc consts  --      0.6784                 1.0159                 1.2255
 IR Inten    --     12.1332                 1.6926                14.7251

                     16                     17                     18
                      A                      A                      A
 Frequencies --    857.5964               890.0627               910.7270
 Red. masses --      2.6067                 2.7531                 1.9840
 Frc consts  --      1.1296                 1.2850                 0.9696
 IR Inten    --      8.0328                 3.4396                12.8837

                     19                     20                     21
                      A                      A                      A
 Frequencies --    929.3492               945.7166               982.7563
 Red. masses --      2.1979                 2.2569                 1.4221
 Frc consts  --      1.1184                 1.1893                 0.8092
 IR Inten    --      5.4327                17.4586                 3.8553

                     22                     23                     24
                      A                      A                      A
 Frequencies --   1037.3476              1072.6478              1086.2346
 Red. masses --      1.7814                 1.8565                 1.8304
 Frc consts  --      1.1294                 1.2585                 1.2725
 IR Inten    --      1.2333                 1.4332                 4.3940

                     25                     26                     27
                      A                      A                      A
 Frequencies --   1113.9671              1120.3163              1188.6304
 Red. masses --      1.7439                 2.1518                 1.5985
 Frc consts  --      1.2751                 1.5913                 1.3306
 IR Inten    --      1.6839                30.7299                22.5808

                     28                     29                     30
                      A                      A                      A
 Frequencies --   1218.4849              1227.7402              1269.6191
 Red. masses --      1.6841                 1.4874                 1.4985
 Frc consts  --      1.4732                 1.3209                 1.4231
 IR Inten    --     14.4764                10.3552                 4.0480

                     31                     32                     33
                      A                      A                      A
 Frequencies --   1300.6350              1350.5762              1382.5729
 Red. masses --      2.4737                 1.7014                 1.3931
 Frc consts  --      2.4655                 1.8285                 1.5689
 IR Inten    --     12.0563                15.2671                11.6524

                     34                     35                     36
                      A                      A                      A
 Frequencies --   1409.1868              1418.8020              1456.3942
 Red. masses --      1.6765                 2.2551                 1.0831
 Frc consts  --      1.9615                 2.6745                 1.3536
 IR Inten    --     29.6755                50.5690                13.8062

                     37                     38                     39
                      A                      A                      A
 Frequencies --   1470.5120              1473.5121              1496.4675
 Red. masses --      1.0548                 1.1391                 1.0457
 Frc consts  --      1.3439                 1.4572                 1.3797
 IR Inten    --      8.3238                 5.4035                 2.8664

                     40                     41                     42
                      A                      A                      A
 Frequencies --   1500.2912              1789.4064              3029.2273
 Red. masses --      1.0494                11.2676                 1.0354
 Frc consts  --      1.3917                21.2569                 5.5978
 IR Inten    --      2.8400               162.3351                22.6697

                     43                     44                     45
                      A                      A                      A
 Frequencies --   3046.2020              3063.2958              3078.7309
 Red. masses --      1.0357                 1.0849                 1.0597
 Frc consts  --      5.6626                 5.9980                 5.9178
 IR Inten    --      1.4044                12.3997                18.6955

                     46                     47                     48
                      A                      A                      A
 Frequencies --   3096.7172              3105.2667              3108.1401
 Red. masses --      1.1009                 1.1010                 1.0978
 Frc consts  --      6.2200                 6.2552                 6.2485
 IR Inten    --     33.7453                21.9524                 5.4680

                     49                     50                     51
                      A                      A                      A
 Frequencies --   3140.3709              3156.1680              3166.0051
 Red. masses --      1.1079                 1.1035                 1.0930
 Frc consts  --      6.4377                 6.4763                 6.4551
 IR Inten    --     11.8767                10.6042                15.1685

 - Thermochemistry -
 -------------------
 Temperature   298.150 Kelvin.  Pressure   1.00000 Atm.
 Atom     1 has atomic number  6 and mass  12.00000

 Molecular mass:   126.06808 amu.
 Principal axes and moments of inertia in atomic units:
                           1         2         3
     Eigenvalues --   582.728931528.903311771.05933
           X            0.99905   0.04353   0.00004
           Y           -0.04348   0.99798   0.04634
           Z            0.00198  -0.04630   0.99893
 This molecule is an asymmetric top.
 Rotational symmetry number  1.
 Warning -- assumption of classical behavior for rotation
           may cause significant error
 Rotational temperatures (Kelvin)      0.14863     0.05665     0.04891
 Rotational constants (GHZ):           3.09705     1.18042     1.01902
 Zero-point vibrational energy     410909.3 (Joules/Mol)
                                   98.20967 (Kcal/Mol)
 Warning -- explicit consideration of  12 degrees of freedom as
           vibrations may cause significant error
 Vibrational temperatures:     96.98   129.84   173.74   257.53   350.03
          (Kelvin)            375.97   434.33   489.60   633.25   706.84
                              729.11   847.06   896.66  1059.38  1177.52
                             1233.89  1280.60  1310.33  1337.12  1360.67
                             1413.97  1492.51  1543.30  1562.85  1602.75
                             1611.88  1710.17  1753.13  1766.44  1826.70
                             1871.32  1943.18  1989.21  2027.50  2041.34
                             2095.42  2115.74  2120.05  2153.08  2158.58
                             2574.55  4358.38  4382.80  4407.39  4429.60
                             4455.48  4467.78  4471.91  4518.29  4541.02
                             4555.17

 Zero-point correction=                           0.156507 (Hartree/Particle)
 Thermal correction to Energy=                    0.165715
 Thermal correction to Enthalpy=                  0.166659
 Thermal correction to Gibbs Free Energy=         0.122216
 Sum of electronic and zero-point Energies=           -423.017074
 Sum of electronic and thermal Energies=              -423.007865
 Sum of electronic and thermal Enthalpies=            -423.006921
 Sum of electronic and thermal Free Energies=         -423.051365

                     E (Thermal)             CV                S
                      KCal/Mol        Cal/Mol-Kelvin    Cal/Mol-Kelvin
 Total                  103.988             33.876             93.539
 Electronic               0.000              0.000              0.000
 Translational            0.889              2.981             40.409
 Rotational               0.889              2.981             28.847
 Vibrational            102.210             27.914             24.284
 Vibration     1          0.598              1.970              4.228
 Vibration     2          0.602              1.956              3.655
 Vibration     3          0.609              1.932              3.088
 Vibration     4          0.629              1.868              2.339
 Vibration     5          0.659              1.774              1.779
 Vibration     6          0.669              1.744              1.653
 Vibration     7          0.694              1.670              1.407
 Vibration     8          0.720              1.595              1.211
 Vibration     9          0.800              1.383              0.826
 Vibration    10          0.847              1.269              0.680
 Vibration    11          0.862              1.235              0.641
 Vibration    12          0.946              1.056              0.469

 Optimization completed.
    -- Stationary point found.
 Normal termination of Gaussian 09 at Tue Jan 28 03:22:02 2020.
