 Gaussian 09, Revision D.01,
 Gaussian 09:  ES64L-G09RevD.01 24-Apr-2013

 -----------------------------
 # b3lyp 6-31G(2df,p) opt Freq
 -----------------------------

 -----
 titel
 -----
 Symbolic Z-matrix:
 Charge =  0 Multiplicity = 1

 SCF Done:  E(RB3LYP) =  -423.199597867     A.U. after   14 cycles
 Optimization completed.
    -- Stationary point found.
 Normal termination of Gaussian 09 at Mon Jan 27 17:04:48 2020.

 ----------------------------------------------------------------------
 #N Geom=AllCheck Guess=TCheck SCRF=Check GenChk RB3LYP/6-31G(2df,p) Fr
 eq
 ----------------------------------------------------------------------

 Structure from the checkpoint file:  "/scratch/puck/g09_62a97146-e0cb-40a3-ad55-3c72cb05ce20/Gau-49305.chk"
 -----
 titel
 -----
 Charge =  0 Multiplicity = 1

                         Standard orientation:
 ---------------------------------------------------------------------
 Center     Atomic      Atomic             Coordinates (Angstroms)
 Number     Number       Type             X           Y           Z
 ---------------------------------------------------------------------
      1          6           0        1.746843   -1.518672   -0.562195
      2          6           0        0.745874   -0.556379    0.061264
      3          6           0       -0.413315   -1.220493    0.876426
      4          6           0       -1.429942   -0.462956    0.006692
      5          8           0       -2.617832   -0.332857    0.039698
      6          6           0       -0.302285    0.131023   -0.894764
      7          8           0       -0.135833    1.526541   -0.837510
      8          6           0        0.411253    1.819628    0.448842
      9          6           0        1.388957    0.668825    0.746607
     10          1           0        2.390085   -1.972121    0.200327
     11          1           0        1.240732   -2.333140   -1.092215
     12          1           0        2.393362   -1.001909   -1.279592
     13          1           0       -0.481075   -2.307018    0.756282
     14          1           0       -0.466464   -0.992338    1.945856
     15          1           0       -0.339077   -0.181740   -1.942460
     16          1           0        0.886278    2.801362    0.391157
     17          1           0       -0.388833    1.868809    1.203619
     18          1           0        2.358450    0.879461    0.284121
     19          1           0        1.551545    0.523307    1.818162
 ---------------------------------------------------------------------

 SCF Done:  E(RB3LYP) =  -423.199597867     A.U. after    1 cycles

 The electronic state is 1-A.
 Alpha  occ. eigenvalues --  -19.15112 -19.14198 -10.26772 -10.23535 -10.23452
 Alpha  occ. eigenvalues --  -10.20777 -10.19378 -10.19354 -10.18784  -1.05621
 Alpha  occ. eigenvalues --   -1.04171  -0.84964  -0.76650  -0.72296  -0.68005
 Alpha  occ. eigenvalues --   -0.62252  -0.56325  -0.53120  -0.50769  -0.48589
 Alpha  occ. eigenvalues --   -0.45772  -0.44328  -0.43584  -0.42491  -0.42283
 Alpha  occ. eigenvalues --   -0.41015  -0.38706  -0.36198  -0.34910  -0.34163
 Alpha  occ. eigenvalues --   -0.32746  -0.31088  -0.28484  -0.22736
 Alpha virt. eigenvalues --   -0.03243   0.07354   0.10012   0.11070   0.12707
 Alpha virt. eigenvalues --    0.13644   0.14370   0.14987   0.15449   0.15777
 Alpha virt. eigenvalues --    0.16368   0.17318   0.19413   0.20166   0.21026

 Mulliken charges:
               1
     1  C   -0.480969
     2  C    0.309665
     3  C   -0.416747
     4  C    0.384593
     5  O   -0.289265
     6  C   -0.039468
     7  O   -0.244576
     8  C   -0.102372
     9  C   -0.278225
    10  H    0.122296
    11  H    0.116065
    12  H    0.123441
    13  H    0.131222
    14  H    0.127441
    15  H    0.099211
    16  H    0.117339
    17  H    0.105420
    18  H    0.109091
    19  H    0.105838
 Sum of Mulliken charges =   0.00000

 Dipole moment (field-independent basis, Debye):
    X=              3.2560    Y=             -1.0212    Z=              1.0284  Tot=              3.5640
 Quadrupole moment (field-independent basis, Debye-Ang):
   XX=            -61.5345   YY=            -52.0103   ZZ=            -51.7311
   XY=              0.9270   XZ=              0.1375   YZ=              2.9627

  Exact polarizability:  79.984   0.388  75.883  -0.125   0.723  67.733
 Approx polarizability: 117.702   0.206 106.213   1.061  -2.110 104.354

                      1                      2                      3
                      A                      A                      A
 Frequencies --     50.8729               164.8107               227.9759
 Red. masses --      3.9191                 2.9554                 1.0926
 Frc consts  --      0.0060                 0.0473                 0.0335
 IR Inten    --      2.2015                 1.4834                 0.0319

                      4                      5                      6
                      A                      A                      A
 Frequencies --    249.6408               282.1831               331.5586
 Red. masses --      2.6886                 3.7225                 2.2607
 Frc consts  --      0.0987                 0.1746                 0.1464
 IR Inten    --      4.4026                 2.3545                 0.1954

                      7                      8                      9
                      A                      A                      A
 Frequencies --    366.7203               423.6601               553.9146
 Red. masses --      1.9602                 3.4456                 2.5169
 Frc consts  --      0.1553                 0.3644                 0.4550
 IR Inten    --      1.3660                 1.7686                 4.0862

                     10                     11                     12
                      A                      A                      A
 Frequencies --    581.3844               588.5255               647.5931
 Red. masses --      3.0960                 4.0454                 2.7989
 Frc consts  --      0.6166                 0.8255                 0.6916
 IR Inten    --      2.2365                 0.1335                 2.1185

                     13                     14                     15
                      A                      A                      A
 Frequencies --    752.3710               809.1190               838.1482
 Red. masses --      3.0414                 2.4426                 2.3005
 Frc consts  --      1.0144                 0.9422                 0.9522
 IR Inten    --      3.5449                 8.8756                 3.0475

                     16                     17                     18
                      A                      A                      A
 Frequencies --    895.1397               909.9171               942.2334
 Red. masses --      2.1825                 2.7176                 2.0607
 Frc consts  --      1.0303                 1.3257                 1.0779
 IR Inten    --     21.6765                 2.9399                 1.1017

                     19                     20                     21
                      A                      A                      A
 Frequencies --    979.7707               983.1910              1031.3084
 Red. masses --      2.5525                 1.9224                 1.7355
 Frc consts  --      1.4437                 1.0949                 1.0875
 IR Inten    --     17.7910                 8.4306                19.6437

                     22                     23                     24
                      A                      A                      A
 Frequencies --   1039.2569              1089.1393              1121.7833
 Red. masses --      2.5434                 2.1144                 2.5652
 Frc consts  --      1.6185                 1.4777                 1.9019
 IR Inten    --     30.4076                 5.4378                34.7658

                     25                     26                     27
                      A                      A                      A
 Frequencies --   1150.1167              1159.8850              1192.7059
 Red. masses --      1.9464                 2.3042                 1.5829
 Frc consts  --      1.5170                 1.8264                 1.3267
 IR Inten    --      8.4897                34.3203                 5.5612

                     28                     29                     30
                      A                      A                      A
 Frequencies --   1234.2396              1245.5077              1252.5487
 Red. masses --      1.4791                 2.0241                 1.7016
 Frc consts  --      1.3275                 1.8500                 1.5729
 IR Inten    --      2.1481                 7.1952                 0.2425

                     31                     32                     33
                      A                      A                      A
 Frequencies --   1269.1245              1316.8096              1353.8674
 Red. masses --      1.5887                 1.3773                 1.5720
 Frc consts  --      1.5077                 1.4071                 1.6977
 IR Inten    --      3.3029                 0.7959                 3.9168

                     34                     35                     36
                      A                      A                      A
 Frequencies --   1384.2944              1413.4623              1434.7183
 Red. masses --      1.3679                 1.2353                 1.1116
 Frc consts  --      1.5444                 1.4541                 1.3482
 IR Inten    --      2.7981                 1.8959                11.8555

                     37                     38                     39
                      A                      A                      A
 Frequencies --   1485.1148              1494.8609              1497.8473
 Red. masses --      1.0881                 1.0535                 1.0520
 Frc consts  --      1.4139                 1.3871                 1.3906
 IR Inten    --      3.2842                 2.3129                 3.8145

                     40                     41                     42
                      A                      A                      A
 Frequencies --   1522.6902              1892.5279              2986.0727
 Red. masses --      1.0921                12.8838                 1.0716
 Frc consts  --      1.4919                27.1882                 5.6296
 IR Inten    --      1.4700               229.6547                46.3385

                     43                     44                     45
                      A                      A                      A
 Frequencies --   3024.0492              3046.1815              3051.6353
 Red. masses --      1.0353                 1.0590                 1.0609
 Frc consts  --      5.5782                 5.7897                 5.8210
 IR Inten    --     24.0152                10.0715                22.1798

                     46                     47                     48
                      A                      A                      A
 Frequencies --   3074.1370              3089.3473              3094.4913
 Red. masses --      1.0866                 1.1012                 1.1025
 Frc consts  --      6.0502                 6.1920                 6.2202
 IR Inten    --     19.1914                24.9297                 8.7394

                     49                     50                     51
                      A                      A                      A
 Frequencies --   3098.4527              3099.5469              3108.5026
 Red. masses --      1.1038                 1.0984                 1.0991
 Frc consts  --      6.2435                 6.2174                 6.2574
 IR Inten    --     15.8631                18.3639                38.5973

 - Thermochemistry -
 -------------------
 Temperature   298.150 Kelvin.  Pressure   1.00000 Atm.
 Atom     1 has atomic number  6 and mass  12.00000

 Molecular mass:   126.06808 amu.
 Principal axes and moments of inertia in atomic units:
                           1         2         3
     Eigenvalues --   800.879701025.499301405.81812
           X            0.99810  -0.06121  -0.00696
           Y            0.06146   0.99718   0.04309
           Z            0.00430  -0.04343   0.99905
 This molecule is an asymmetric top.
 Rotational symmetry number  1.
 Warning -- assumption of classical behavior for rotation
           may cause significant error
 Rotational temperatures (Kelvin)      0.10815     0.08446     0.06161
 Rotational constants (GHZ):           2.25345     1.75987     1.28377
 Zero-point vibrational energy     417693.8 (Joules/Mol)
                                   99.83122 (Kcal/Mol)
 Warning -- explicit consideration of  11 degrees of freedom as
           vibrations may cause significant error
 Vibrational temperatures:     73.19   237.13   328.01   359.18   406.00
          (Kelvin)            477.04   527.63   609.55   796.96   836.48
                              846.76   931.74  1082.49  1164.14  1205.91
                             1287.90  1309.17  1355.66  1409.67  1414.59
                             1483.82  1495.26  1567.03  1613.99  1654.76
                             1668.81  1716.04  1775.79  1792.01  1802.14
                             1825.98  1894.59  1947.91  1991.69  2033.65
                             2064.24  2136.75  2150.77  2155.07  2190.81
                             2722.92  4296.29  4350.93  4382.77  4390.62
                             4422.99  4444.88  4452.28  4457.98  4459.55
                             4472.44

 Zero-point correction=                           0.159091 (Hartree/Particle)
 Thermal correction to Energy=                    0.167251
 Thermal correction to Enthalpy=                  0.168195
 Thermal correction to Gibbs Free Energy=         0.126197
 Sum of electronic and zero-point Energies=           -423.040507
 Sum of electronic and thermal Energies=              -423.032347
 Sum of electronic and thermal Enthalpies=            -423.031403
 Sum of electronic and thermal Free Energies=         -423.073401

                     E (Thermal)             CV                S
                      KCal/Mol        Cal/Mol-Kelvin    Cal/Mol-Kelvin
 Total                  104.952             31.550             88.393
 Electronic               0.000              0.000              0.000
 Translational            0.889              2.981             40.409
 Rotational               0.889              2.981             28.536
 Vibrational            103.174             25.588             19.448
 Vibration     1          0.595              1.977              4.783
 Vibration     2          0.623              1.886              2.494
 Vibration     3          0.651              1.798              1.895
 Vibration     4          0.662              1.763              1.733
 Vibration     5          0.681              1.707              1.520
 Vibration     6          0.714              1.612              1.252
 Vibration     7          0.740              1.541              1.093
 Vibration     8          0.786              1.419              0.880
 Vibration     9          0.909              1.131              0.536
 Vibration    10          0.938              1.072              0.483
 Vibration    11          0.946              1.056              0.470

 Optimization completed.
    -- Stationary point found.
 Normal termination of Gaussian 09 at Mon Jan 27 17:49:26 2020.
