 Gaussian 09, Revision D.01,
 Gaussian 09:  ES64L-G09RevD.01 24-Apr-2013

 -----------------------------
 # b3lyp 6-31G(2df,p) opt Freq
 -----------------------------

 -----
 titel
 -----
 Symbolic Z-matrix:
 Charge =  0 Multiplicity = 1

 SCF Done:  E(RB3LYP) =  -423.135258224     A.U. after   14 cycles
 Optimization completed.
    -- Stationary point found.
 Normal termination of Gaussian 09 at Mon Jan 27 22:14:55 2020.

 ----------------------------------------------------------------------
 #N Geom=AllCheck Guess=TCheck SCRF=Check GenChk RB3LYP/6-31G(2df,p) Fr
 eq
 ----------------------------------------------------------------------

 Structure from the checkpoint file:  "/scratch/puck/g09_92069c1c-1a9e-4d03-a402-becabbe91b00/Gau-28530.chk"
 -----
 titel
 -----
 Charge =  0 Multiplicity = 1

                         Standard orientation:
 ---------------------------------------------------------------------
 Center     Atomic      Atomic             Coordinates (Angstroms)
 Number     Number       Type             X           Y           Z
 ---------------------------------------------------------------------
      1          6           0       -2.760130   -0.817684   -0.035652
      2          6           0       -1.724324    0.289640   -0.146182
      3          6           0       -0.380500    0.095169   -0.921206
      4          6           0        0.110403    1.361075   -0.145810
      5          8           0        1.482739    1.559902    0.083557
      6          6           0       -0.597202    0.489032    0.920973
      7          6           0        0.141544   -0.736183    0.289032
      8          6           0        1.628486   -0.946719    0.453321
      9          8           0        2.340422   -1.351835   -0.434429
     10          1           0       -2.338925   -1.793520    0.218002
     11          1           0       -3.500570   -0.568108    0.731997
     12          1           0       -3.297590   -0.928406   -0.983599
     13          1           0       -2.227748    1.229515   -0.402691
     14          1           0       -0.245820   -0.130245   -1.979649
     15          1           0       -0.389415    2.301108   -0.411797
     16          1           0        1.943801    1.592278   -0.761710
     17          1           0       -0.716882    0.722474    1.979868
     18          1           0       -0.343386   -1.704925    0.447241
     19          1           0        2.021590   -0.790687    1.482457
 ---------------------------------------------------------------------

 SCF Done:  E(RB3LYP) =  -423.135258224     A.U. after    1 cycles

 The electronic state is 1-A.
 Alpha  occ. eigenvalues --  -19.15311 -19.12160 -10.26012 -10.24613 -10.20839
 Alpha  occ. eigenvalues --  -10.20778 -10.20597 -10.20072 -10.18354  -1.04121
 Alpha  occ. eigenvalues --   -1.02761  -0.91644  -0.74390  -0.70567  -0.64341
 Alpha  occ. eigenvalues --   -0.62555  -0.58267  -0.53284  -0.50900  -0.50614
 Alpha  occ. eigenvalues --   -0.48433  -0.43359  -0.42806  -0.41273  -0.40089
 Alpha  occ. eigenvalues --   -0.38875  -0.36965  -0.34830  -0.33109  -0.33055
 Alpha  occ. eigenvalues --   -0.31098  -0.30445  -0.27736  -0.23629
 Alpha virt. eigenvalues --   -0.00294   0.07891   0.09473   0.11473   0.12002
 Alpha virt. eigenvalues --    0.13218   0.13665   0.13993   0.14180   0.15188
 Alpha virt. eigenvalues --    0.17424   0.17780   0.19396   0.20041   0.21332

 Mulliken charges:
               1
     1  C   -0.439518
     2  C    0.042599
     3  C   -0.121667
     4  C    0.150198
     5  O   -0.432516
     6  C   -0.114946
     7  C   -0.056217
     8  C    0.119904
     9  O   -0.279971
    10  H    0.122620
    11  H    0.122085
    12  H    0.123117
    13  H    0.069643
    14  H    0.081282
    15  H    0.072849
    16  H    0.295850
    17  H    0.077391
    18  H    0.093330
    19  H    0.073965
 Sum of Mulliken charges =   0.00000

 Dipole moment (field-independent basis, Debye):
    X=             -2.6489    Y=              1.0993    Z=              0.0262  Tot=              2.8681
 Quadrupole moment (field-independent basis, Debye-Ang):
   XX=            -58.0064   YY=            -54.5174   ZZ=            -51.1936
   XY=              3.8783   XZ=              0.1945   YZ=             -4.3815

  Exact polarizability:  89.344  -1.498  72.011  -0.484   0.002  69.165
 Approx polarizability: 119.958  -5.149 108.194  -5.281   3.522 112.927

                      1                      2                      3
                      A                      A                      A
 Frequencies --     92.2374               156.4216               183.7026
 Red. masses --      3.7674                 2.0155                 1.4246
 Frc consts  --      0.0189                 0.0291                 0.0283
 IR Inten    --     23.6706                 4.6133                 2.6031

                      4                      5                      6
                      A                      A                      A
 Frequencies --    216.8341               221.6997               253.3251
 Red. masses --      2.5918                 3.0352                 2.9795
 Frc consts  --      0.0718                 0.0879                 0.1127
 IR Inten    --      0.8793                27.6864                 0.3749

                      7                      8                      9
                      A                      A                      A
 Frequencies --    327.3045               382.8912               427.7622
 Red. masses --      1.3985                 3.6584                 2.8581
 Frc consts  --      0.0883                 0.3160                 0.3081
 IR Inten    --     77.2346                 1.1411                 9.1342

                     10                     11                     12
                      A                      A                      A
 Frequencies --    515.5643               559.2545               690.1908
 Red. masses --      3.9020                 5.1904                 3.2077
 Frc consts  --      0.6111                 0.9565                 0.9003
 IR Inten    --      0.9167                 6.6420                18.7844

                     13                     14                     15
                      A                      A                      A
 Frequencies --    745.2086               780.0720               804.7980
 Red. masses --      2.8273                 2.5734                 2.1721
 Frc consts  --      0.9251                 0.9226                 0.8289
 IR Inten    --      2.1554                 4.8803                 1.2842

                     16                     17                     18
                      A                      A                      A
 Frequencies --    877.4812               899.5743               912.2381
 Red. masses --      2.6830                 1.9528                 2.3808
 Frc consts  --      1.2171                 0.9311                 1.1673
 IR Inten    --      2.9241                 4.8174                 6.4817

                     19                     20                     21
                      A                      A                      A
 Frequencies --   1005.9841              1023.5775              1035.6431
 Red. masses --      1.3554                 1.7272                 1.4437
 Frc consts  --      0.8082                 1.0662                 0.9123
 IR Inten    --      1.5043                 4.3197                 1.1242

                     22                     23                     24
                      A                      A                      A
 Frequencies --   1057.4824              1068.3926              1094.5850
 Red. masses --      1.5292                 2.3555                 2.0752
 Frc consts  --      1.0075                 1.5841                 1.4649
 IR Inten    --     15.8356                35.4219                 6.5078

                     25                     26                     27
                      A                      A                      A
 Frequencies --   1099.3838              1141.0369              1155.3209
 Red. masses --      2.2468                 1.5544                 1.7579
 Frc consts  --      1.6000                 1.1924                 1.3824
 IR Inten    --      0.1327                15.5951                26.9242

                     28                     29                     30
                      A                      A                      A
 Frequencies --   1178.8107              1187.8066              1229.0183
 Red. masses --      2.8480                 1.6945                 1.4897
 Frc consts  --      2.3318                 1.4086                 1.3257
 IR Inten    --     49.6087                 2.7406                27.9018

                     31                     32                     33
                      A                      A                      A
 Frequencies --   1237.1072              1270.6440              1317.2668
 Red. masses --      1.7140                 1.9327                 1.3393
 Frc consts  --      1.5455                 1.8385                 1.3692
 IR Inten    --      5.9829                20.2038                23.0754

                     34                     35                     36
                      A                      A                      A
 Frequencies --   1342.9356              1401.7680              1418.0603
 Red. masses --      1.5819                 1.2903                 1.2238
 Frc consts  --      1.6809                 1.4938                 1.4500
 IR Inten    --      0.2680                 9.3042                10.7797

                     37                     38                     39
                      A                      A                      A
 Frequencies --   1420.7885              1437.2223              1494.8264
 Red. masses --      1.2659                 1.3707                 1.0464
 Frc consts  --      1.5056                 1.6682                 1.3777
 IR Inten    --      4.1153                 0.4075                 3.0065

                     40                     41                     42
                      A                      A                      A
 Frequencies --   1501.7528              1805.3351              2880.5660
 Red. masses --      1.0561                10.6393                 1.0834
 Frc consts  --      1.4033                20.4306                 5.2965
 IR Inten    --      4.0811               185.6143               120.3239

                     43                     44                     45
                      A                      A                      A
 Frequencies --   3021.6937              3032.1226              3037.7302
 Red. masses --      1.0840                 1.0775                 1.0434
 Frc consts  --      5.8316                 5.8365                 5.6727
 IR Inten    --      9.6106                83.7426                34.1868

                     46                     47                     48
                      A                      A                      A
 Frequencies --   3060.9158              3094.3846              3106.4566
 Red. masses --      1.0807                 1.1007                 1.0906
 Frc consts  --      5.9657                 6.2099                 6.2010
 IR Inten    --     19.1421                19.5486                66.5322

                     49                     50                     51
                      A                      A                      A
 Frequencies --   3112.5296              3116.9911              3812.1107
 Red. masses --      1.0929                 1.0982                 1.0663
 Frc consts  --      6.2384                 6.2866                 9.1298
 IR Inten    --     13.0577                36.0155                41.8904

 - Thermochemistry -
 -------------------
 Temperature   298.150 Kelvin.  Pressure   1.00000 Atm.
 Atom     1 has atomic number  6 and mass  12.00000

 Molecular mass:   126.06808 amu.
 Principal axes and moments of inertia in atomic units:
                           1         2         3
     Eigenvalues --   634.262821323.217131670.36912
           X            0.99929   0.03731   0.00489
           Y           -0.03716   0.99892  -0.02807
           Z           -0.00593   0.02787   0.99959
 This molecule is an asymmetric top.
 Rotational symmetry number  1.
 Warning -- assumption of classical behavior for rotation
           may cause significant error
 Rotational temperatures (Kelvin)      0.13656     0.06546     0.05185
 Rotational constants (GHZ):           2.84542     1.36390     1.08044
 Zero-point vibrational energy     414187.9 (Joules/Mol)
                                   98.99328 (Kcal/Mol)
 Warning -- explicit consideration of  11 degrees of freedom as
           vibrations may cause significant error
 Vibrational temperatures:    132.71   225.06   264.31   311.98   318.98
          (Kelvin)            364.48   470.92   550.89   615.45   741.78
                              804.64   993.03  1072.19  1122.35  1157.92
                             1262.50  1294.29  1312.51  1447.38  1472.70
                             1490.06  1521.48  1537.18  1574.86  1581.77
                             1641.70  1662.25  1696.04  1708.99  1768.28
                             1779.92  1828.17  1895.25  1932.18  2016.83
                             2040.27  2044.20  2067.84  2150.72  2160.68
                             2597.47  4144.49  4347.54  4362.54  4370.61
                             4403.97  4452.12  4469.49  4478.23  4484.65
                             5484.77

 Zero-point correction=                           0.157756 (Hartree/Particle)
 Thermal correction to Energy=                    0.166420
 Thermal correction to Enthalpy=                  0.167364
 Thermal correction to Gibbs Free Energy=         0.124614
 Sum of electronic and zero-point Energies=           -422.977502
 Sum of electronic and thermal Energies=              -422.968838
 Sum of electronic and thermal Enthalpies=            -422.967894
 Sum of electronic and thermal Free Energies=         -423.010644

                     E (Thermal)             CV                S
                      KCal/Mol        Cal/Mol-Kelvin    Cal/Mol-Kelvin
 Total                  104.430             32.905             89.976
 Electronic               0.000              0.000              0.000
 Translational            0.889              2.981             40.409
 Rotational               0.889              2.981             28.729
 Vibrational            102.653             26.944             20.838
 Vibration     1          0.602              1.955              3.612
 Vibration     2          0.620              1.895              2.593
 Vibration     3          0.631              1.862              2.290
 Vibration     4          0.646              1.815              1.985
 Vibration     5          0.648              1.808              1.945
 Vibration     6          0.664              1.757              1.707
 Vibration     7          0.711              1.621              1.273
 Vibration     8          0.752              1.507              1.028
 Vibration     9          0.789              1.410              0.866
 Vibration    10          0.871              1.216              0.620
 Vibration    11          0.915              1.119              0.525

 Normal termination of Gaussian 09 at Tue Jan 28 00:29:29 2020.
