 Gaussian 09, Revision D.01,
 Gaussian 09:  ES64L-G09RevD.01 24-Apr-2013

 -----------------------------
 # b3lyp 6-31G(2df,p) opt Freq
 -----------------------------

 -----
 titel
 -----
 Symbolic Z-matrix:
 Charge =  0 Multiplicity = 1

 SCF Done:  E(RB3LYP) =  -423.196301062     A.U. after   14 cycles
 Optimization completed.
    -- Stationary point found.
 Normal termination of Gaussian 09 at Mon Jan 27 17:14:59 2020.

 ----------------------------------------------------------------------
 #N Geom=AllCheck Guess=TCheck SCRF=Check GenChk RB3LYP/6-31G(2df,p) Fr
 eq
 ----------------------------------------------------------------------

 Structure from the checkpoint file:  "/scratch/puck/g09_36145972-c9e0-43e0-97fb-ce183b3ba9ce/Gau-179347.chk"
 -----
 titel
 -----
 Charge =  0 Multiplicity = 1

                         Standard orientation:
 ---------------------------------------------------------------------
 Center     Atomic      Atomic             Coordinates (Angstroms)
 Number     Number       Type             X           Y           Z
 ---------------------------------------------------------------------
      1          6           0        2.192913   -0.898326    0.115917
      2          6           0        0.758562   -0.411162    0.137445
      3          6           0       -0.016266   -0.115477    1.467772
      4          6           0       -0.801135    0.975693    0.673008
      5          6           0       -1.910076    0.268329   -0.149017
      6          8           0       -1.551751   -1.076225   -0.418324
      7          6           0       -0.189304   -1.271694   -0.752444
      8          6           0        0.437844    1.044904   -0.221191
      9          8           0        0.994176    1.898981   -0.851738
     10          1           0        2.580482   -0.917145   -0.908349
     11          1           0        2.839218   -0.235707    0.698800
     12          1           0        2.276459   -1.909637    0.528125
     13          1           0       -0.605023   -0.935723    1.880710
     14          1           0        0.633853    0.316023    2.231478
     15          1           0       -1.165316    1.882015    1.158918
     16          1           0       -2.842899    0.221827    0.421671
     17          1           0       -2.103325    0.828090   -1.077582
     18          1           0        0.010467   -2.336237   -0.587592
     19          1           0        0.001459   -1.049159   -1.814614
 ---------------------------------------------------------------------

 SCF Done:  E(RB3LYP) =  -423.196301062     A.U. after    1 cycles

 The electronic state is 1-A.
 Alpha  occ. eigenvalues --  -19.15178 -19.13540 -10.26295 -10.24388 -10.24204
 Alpha  occ. eigenvalues --  -10.20612 -10.20151 -10.19777 -10.18637  -1.05098
 Alpha  occ. eigenvalues --   -1.04073  -0.86446  -0.78002  -0.71244  -0.66279
 Alpha  occ. eigenvalues --   -0.61989  -0.60950  -0.51323  -0.49551  -0.47872
 Alpha  occ. eigenvalues --   -0.46461  -0.45999  -0.45560  -0.41402  -0.39952
 Alpha  occ. eigenvalues --   -0.39054  -0.38538  -0.38314  -0.37287  -0.34464
 Alpha  occ. eigenvalues --   -0.32230  -0.30482  -0.26506  -0.23565
 Alpha virt. eigenvalues --   -0.01325   0.08258   0.10350   0.11667   0.12611
 Alpha virt. eigenvalues --    0.12959   0.14687   0.14926   0.15858   0.16450
 Alpha virt. eigenvalues --    0.17259   0.18029   0.18431   0.19321   0.20604

 Mulliken charges:
               1
     1  C   -0.484834
     2  C    0.154605
     3  C   -0.276658
     4  C   -0.170684
     5  C   -0.088743
     6  O   -0.246632
     7  C   -0.112979
     8  C    0.408799
     9  O   -0.332335
    10  H    0.133520
    11  H    0.128141
    12  H    0.120387
    13  H    0.117839
    14  H    0.109868
    15  H    0.091053
    16  H    0.118358
    17  H    0.109276
    18  H    0.114025
    19  H    0.106992
 Sum of Mulliken charges =   0.00000

 Dipole moment (field-independent basis, Debye):
    X=             -0.4168    Y=             -1.2875    Z=              1.4620  Tot=              1.9922
 Quadrupole moment (field-independent basis, Debye-Ang):
   XX=            -53.5807   YY=            -57.6623   ZZ=            -52.7140
   XY=             -6.4069   XZ=              0.7748   YZ=              3.1287

  Exact polarizability:  80.844  -3.598  75.607  -2.779  -0.459  68.907
 Approx polarizability: 112.075   2.960 116.563  -7.102  -5.769 105.550

                      1                      2                      3
                      A                      A                      A
 Frequencies --    126.8639               165.6706               203.9732
 Red. masses --      4.6640                 1.1658                 2.3670
 Frc consts  --      0.0442                 0.0189                 0.0580
 IR Inten    --      4.6649                 0.9325                 0.9469

                      4                      5                      6
                      A                      A                      A
 Frequencies --    233.6166               256.2714               297.4829
 Red. masses --      2.5901                 2.5245                 2.6933
 Frc consts  --      0.0833                 0.0977                 0.1404
 IR Inten    --      2.7328                 4.7572                 1.5876

                      7                      8                      9
                      A                      A                      A
 Frequencies --    408.1905               438.5856               503.3142
 Red. masses --      2.0632                 4.5588                 3.4992
 Frc consts  --      0.2025                 0.5167                 0.5223
 IR Inten    --      0.6313                 2.8730                 1.1302

                     10                     11                     12
                      A                      A                      A
 Frequencies --    553.8392               677.5897               740.4890
 Red. masses --      6.2053                 3.9538                 2.7308
 Frc consts  --      1.1214                 1.0696                 0.8822
 IR Inten    --      2.4220                 0.7183                 1.9522

                     13                     14                     15
                      A                      A                      A
 Frequencies --    782.0197               819.0153               862.4788
 Red. masses --      3.4202                 3.1016                 2.9490
 Frc consts  --      1.2324                 1.2258                 1.2925
 IR Inten    --      0.6656                 5.5074                21.4482

                     16                     17                     18
                      A                      A                      A
 Frequencies --    891.5837               902.8245               942.7969
 Red. masses --      2.5694                 2.3819                 2.5161
 Frc consts  --      1.2034                 1.1439                 1.3177
 IR Inten    --      9.0118                 2.5716                15.7788

                     19                     20                     21
                      A                      A                      A
 Frequencies --    982.0647              1006.9220              1042.0315
 Red. masses --      1.3879                 1.9031                 2.1222
 Frc consts  --      0.7887                 1.1369                 1.3577
 IR Inten    --      3.7766                11.1576                 3.9473

                     22                     23                     24
                      A                      A                      A
 Frequencies --   1056.7449              1099.1279              1135.4385
 Red. masses --      1.7295                 1.6483                 1.7461
 Frc consts  --      1.1379                 1.1732                 1.3263
 IR Inten    --     10.3047                26.9067                 1.3212

                     25                     26                     27
                      A                      A                      A
 Frequencies --   1143.0717              1201.7527              1212.2619
 Red. masses --      2.9079                 2.0136                 2.0166
 Frc consts  --      2.2386                 1.7133                 1.7461
 IR Inten    --     85.5589                 1.8759                13.9964

                     28                     29                     30
                      A                      A                      A
 Frequencies --   1225.6666              1261.4450              1266.0223
 Red. masses --      1.8836                 1.4247                 1.4873
 Frc consts  --      1.6671                 1.3357                 1.4045
 IR Inten    --      7.5305                13.1085                 9.2816

                     31                     32                     33
                      A                      A                      A
 Frequencies --   1290.7381              1302.3223              1380.7533
 Red. masses --      2.0669                 1.3231                 1.3785
 Frc consts  --      2.0289                 1.3222                 1.5484
 IR Inten    --     10.5623                 3.0905                 1.6931

                     34                     35                     36
                      A                      A                      A
 Frequencies --   1407.2244              1412.4091              1484.1621
 Red. masses --      1.3588                 1.2512                 1.1144
 Frc consts  --      1.5854                 1.4707                 1.4463
 IR Inten    --      1.4936                 8.2788                 1.6524

                     37                     38                     39
                      A                      A                      A
 Frequencies --   1489.5990              1491.7885              1507.2163
 Red. masses --      1.0539                 1.0499                 1.0763
 Frc consts  --      1.3778                 1.3766                 1.4406
 IR Inten    --      7.3417                 4.6834                 0.2005

                     40                     41                     42
                      A                      A                      A
 Frequencies --   1517.9463              1882.0743              2977.0413
 Red. masses --      1.0910                12.1531                 1.0675
 Frc consts  --      1.4811                25.3637                 5.5743
 IR Inten    --      0.9652               264.3895                55.8107

                     43                     44                     45
                      A                      A                      A
 Frequencies --   2985.0441              3032.7861              3063.6985
 Red. masses --      1.0691                 1.0356                 1.0953
 Frc consts  --      5.6126                 5.6120                 6.0570
 IR Inten    --     67.0473                22.5782                26.4340

                     46                     47                     48
                      A                      A                      A
 Frequencies --   3074.3975              3076.0557              3099.3973
 Red. masses --      1.0930                 1.0591                 1.1010
 Frc consts  --      6.0868                 5.9046                 6.2316
 IR Inten    --     28.0106                16.9938                17.0573

                     49                     50                     51
                      A                      A                      A
 Frequencies --   3109.4740              3110.1838              3140.5852
 Red. masses --      1.0998                 1.0901                 1.1095
 Frc consts  --      6.2650                 6.2126                 6.4476
 IR Inten    --      9.0657                29.5173                11.2754

 - Thermochemistry -
 -------------------
 Temperature   298.150 Kelvin.  Pressure   1.00000 Atm.
 Atom     1 has atomic number  6 and mass  12.00000

 Molecular mass:   126.06808 amu.
 Principal axes and moments of inertia in atomic units:
                           1         2         3
     Eigenvalues --   776.333061000.270481275.89103
           X            0.98343  -0.18128   0.00299
           Y            0.18103   0.98269   0.03938
           Z           -0.01008  -0.03818   0.99922
 This molecule is an asymmetric top.
 Rotational symmetry number  1.
 Warning -- assumption of classical behavior for rotation
           may cause significant error
 Rotational temperatures (Kelvin)      0.11157     0.08659     0.06788
 Rotational constants (GHZ):           2.32470     1.80425     1.41449
 Zero-point vibrational energy     420332.2 (Joules/Mol)
                                  100.46180 (Kcal/Mol)
 Warning -- explicit consideration of  10 degrees of freedom as
           vibrations may cause significant error
 Vibrational temperatures:    182.53   238.36   293.47   336.12   368.72
          (Kelvin)            428.01   587.29   631.03   724.16   796.85
                              974.90  1065.40  1125.15  1178.38  1240.91
                             1282.79  1298.96  1356.47  1412.97  1448.73
                             1499.25  1520.42  1581.40  1633.64  1644.62
                             1729.05  1744.17  1763.46  1814.94  1821.52
                             1857.08  1873.75  1986.59  2024.68  2032.14
                             2135.38  2143.20  2146.35  2168.55  2183.98
                             2707.88  4283.29  4294.81  4363.50  4407.97
                             4423.37  4425.75  4459.34  4473.83  4474.86
                             4518.60

 Zero-point correction=                           0.160096 (Hartree/Particle)
 Thermal correction to Energy=                    0.168121
 Thermal correction to Enthalpy=                  0.169065
 Thermal correction to Gibbs Free Energy=         0.127860
 Sum of electronic and zero-point Energies=           -423.036205
 Sum of electronic and thermal Energies=              -423.028180
 Sum of electronic and thermal Enthalpies=            -423.027236
 Sum of electronic and thermal Free Energies=         -423.068441

                     E (Thermal)             CV                S
                      KCal/Mol        Cal/Mol-Kelvin    Cal/Mol-Kelvin
 Total                  105.498             31.106             86.725
 Electronic               0.000              0.000              0.000
 Translational            0.889              2.981             40.409
 Rotational               0.889              2.981             28.384
 Vibrational            103.720             25.144             17.932
 Vibration     1          0.611              1.926              2.993
 Vibration     2          0.624              1.885              2.484
 Vibration     3          0.640              1.834              2.097
 Vibration     4          0.654              1.789              1.851
 Vibration     5          0.666              1.752              1.687
 Vibration     6          0.691              1.678              1.431
 Vibration     7          0.773              1.452              0.933
 Vibration     8          0.799              1.386              0.831
 Vibration     9          0.859              1.243              0.650
 Vibration    10          0.909              1.131              0.536

 Normal termination of Gaussian 09 at Mon Jan 27 18:01:03 2020.
