 Gaussian 09, Revision D.01,
 Gaussian 09:  ES64L-G09RevD.01 24-Apr-2013

 -----------------------------
 # b3lyp 6-31G(2df,p) opt Freq
 -----------------------------

 -----
 titel
 -----
 Symbolic Z-matrix:
 Charge =  0 Multiplicity = 1

 SCF Done:  E(RB3LYP) =  -423.166767126     A.U. after   14 cycles
 Optimization completed.
    -- Stationary point found.
 Normal termination of Gaussian 09 at Mon Jan 27 18:52:26 2020.

 ----------------------------------------------------------------------
 #N Geom=AllCheck Guess=TCheck SCRF=Check GenChk RB3LYP/6-31G(2df,p) Fr
 eq
 ----------------------------------------------------------------------

 Structure from the checkpoint file:  "/scratch/puck/g09_09d51717-5bd5-4f29-88be-86d8eb5e8c0c/Gau-20140.chk"
 -----
 titel
 -----
 Charge =  0 Multiplicity = 1

                         Standard orientation:
 ---------------------------------------------------------------------
 Center     Atomic      Atomic             Coordinates (Angstroms)
 Number     Number       Type             X           Y           Z
 ---------------------------------------------------------------------
      1          6           0       -1.311924    1.838306   -0.555702
      2          6           0       -0.888530    0.435237   -0.235643
      3          6           0       -1.549925   -0.834879   -0.797351
      4          6           0       -1.320162   -1.550549    0.575556
      5          6           0       -0.650225   -0.278463    1.097967
      6          6           0        0.541221    0.151164    0.254183
      7          8           0        1.198655    1.268315    0.761706
      8          6           0        1.467007   -0.774327   -0.428846
      9          8           0        2.647182   -0.506264   -0.541240
     10          1           0       -2.370533    1.989899   -0.316243
     11          1           0       -0.717397    2.560512    0.006494
     12          1           0       -1.179726    2.048171   -1.623927
     13          1           0       -2.612075   -0.672577   -0.997887
     14          1           0       -1.105197   -1.284217   -1.690116
     15          1           0       -2.261819   -1.758377    1.087997
     16          1           0       -0.724104   -2.467657    0.578452
     17          1           0       -0.690878    0.119661    2.105423
     18          1           0        2.117848    1.159050    0.467275
     19          1           0        1.052423   -1.709805   -0.842179
 ---------------------------------------------------------------------

 SCF Done:  E(RB3LYP) =  -423.166767126     A.U. after    1 cycles

 The electronic state is 1-A.
 Alpha  occ. eigenvalues --  -19.14778 -19.14212 -10.27476 -10.25016 -10.21216
 Alpha  occ. eigenvalues --  -10.20328 -10.19867 -10.19719 -10.18038  -1.06397
 Alpha  occ. eigenvalues --   -1.02377  -0.90130  -0.74330  -0.72846  -0.66902
 Alpha  occ. eigenvalues --   -0.64088  -0.55773  -0.54047  -0.52709  -0.49226
 Alpha  occ. eigenvalues --   -0.46503  -0.43951  -0.43610  -0.42715  -0.40851
 Alpha  occ. eigenvalues --   -0.39674  -0.37260  -0.36755  -0.35336  -0.34029
 Alpha  occ. eigenvalues --   -0.32866  -0.29261  -0.25178  -0.24018
 Alpha virt. eigenvalues --   -0.03313   0.08122   0.09229   0.09786   0.11143
 Alpha virt. eigenvalues --    0.13990   0.14879   0.15103   0.16558   0.16933
 Alpha virt. eigenvalues --    0.17804   0.18722   0.19333   0.21336   0.21484

 Mulliken charges:
               1
     1  C   -0.493022
     2  C    0.258927
     3  C   -0.299936
     4  C   -0.246996
     5  C   -0.153727
     6  C    0.320159
     7  O   -0.481219
     8  C    0.072990
     9  O   -0.297452
    10  H    0.117227
    11  H    0.149468
    12  H    0.121017
    13  H    0.112986
    14  H    0.101748
    15  H    0.114991
    16  H    0.104009
    17  H    0.104978
    18  H    0.296025
    19  H    0.097827
 Sum of Mulliken charges =   0.00000

 Dipole moment (field-independent basis, Debye):
    X=             -2.5584    Y=             -0.9227    Z=             -0.2492  Tot=              2.7311
 Quadrupole moment (field-independent basis, Debye-Ang):
   XX=            -57.6178   YY=            -52.8869   ZZ=            -53.1864
   XY=              1.1700   XZ=              0.8915   YZ=             -1.0869

  Exact polarizability:  90.776   0.070  76.928  -1.399   0.511  66.068
 Approx polarizability: 138.586   0.049 108.154  -4.932   2.243 102.809

                      1                      2                      3
                      A                      A                      A
 Frequencies --     87.2190               174.2724               202.2347
 Red. masses --      5.9466                 1.0929                 2.7765
 Frc consts  --      0.0267                 0.0196                 0.0669
 IR Inten    --      0.0038                 0.5015                 1.5709

                      4                      5                      6
                      A                      A                      A
 Frequencies --    225.0639               235.3183               295.9152
 Red. masses --      2.3496                 2.7233                 2.4028
 Frc consts  --      0.0701                 0.0888                 0.1240
 IR Inten    --      0.6202                 3.7421                 2.0612

                      7                      8                      9
                      A                      A                      A
 Frequencies --    333.3092               345.5248               425.9413
 Red. masses --      3.8535                 2.9072                 2.0979
 Frc consts  --      0.2522                 0.2045                 0.2242
 IR Inten    --     11.4389                 9.6601                21.1795

                     10                     11                     12
                      A                      A                      A
 Frequencies --    460.3410               505.3882               526.0834
 Red. masses --      1.4686                 3.0648                 4.7215
 Frc consts  --      0.1834                 0.4612                 0.7699
 IR Inten    --     44.8890                 2.8748                 9.0871

                     13                     14                     15
                      A                      A                      A
 Frequencies --    657.2554               674.9710               787.0788
 Red. masses --      3.6702                 3.6724                 1.2631
 Frc consts  --      0.9341                 0.9858                 0.4610
 IR Inten    --      5.1860                 5.8270                 2.9628

                     16                     17                     18
                      A                      A                      A
 Frequencies --    824.0297               888.6626               923.2168
 Red. masses --      3.8747                 3.2929                 2.0853
 Frc consts  --      1.5502                 1.5321                 1.0472
 IR Inten    --      6.1382                45.9662                 4.9235

                     19                     20                     21
                      A                      A                      A
 Frequencies --    942.3416               962.1542               975.4257
 Red. masses --      1.9022                 1.6361                 1.8447
 Frc consts  --      0.9952                 0.8924                 1.0341
 IR Inten    --      2.4954                13.7060                 3.5296

                     22                     23                     24
                      A                      A                      A
 Frequencies --   1011.1604              1039.4644              1097.2023
 Red. masses --      1.4616                 1.8492                 1.9118
 Frc consts  --      0.8805                 1.1772                 1.3560
 IR Inten    --      3.9244                 4.6005                37.6799

                     25                     26                     27
                      A                      A                      A
 Frequencies --   1113.7147              1142.7984              1205.4723
 Red. masses --      1.8223                 1.6077                 1.8262
 Frc consts  --      1.3318                 1.2371                 1.5635
 IR Inten    --     19.4916                12.0692                27.8549

                     28                     29                     30
                      A                      A                      A
 Frequencies --   1215.6879              1228.1738              1238.1612
 Red. masses --      2.2720                 1.3681                 1.5371
 Frc consts  --      1.9783                 1.2159                 1.3884
 IR Inten    --     22.9779                 3.3210                 6.8921

                     31                     32                     33
                      A                      A                      A
 Frequencies --   1284.0673              1323.3118              1353.7099
 Red. masses --      1.7474                 3.7416                 1.7686
 Frc consts  --      1.6975                 3.8604                 1.9096
 IR Inten    --      8.9886                10.2965                88.6351

                     34                     35                     36
                      A                      A                      A
 Frequencies --   1394.5362              1411.6421              1482.4209
 Red. masses --      1.2814                 1.3468                 1.5181
 Frc consts  --      1.4683                 1.5813                 1.9656
 IR Inten    --     35.2777                 2.4764                24.6665

                     37                     38                     39
                      A                      A                      A
 Frequencies --   1486.3841              1490.8660              1495.8971
 Red. masses --      1.0789                 1.2212                 1.0744
 Frc consts  --      1.4044                 1.5992                 1.4165
 IR Inten    --      0.7478                13.2541                 1.1341

                     40                     41                     42
                      A                      A                      A
 Frequencies --   1511.1430              1767.9360              2983.8153
 Red. masses --      1.1605                 9.6714                 1.0853
 Frc consts  --      1.5613                17.8104                 5.6931
 IR Inten    --      0.9680               241.7624                41.7539

                     43                     44                     45
                      A                      A                      A
 Frequencies --   3027.2493              3051.8835              3059.8789
 Red. masses --      1.0389                 1.0584                 1.0622
 Frc consts  --      5.6095                 5.8082                 5.8595
 IR Inten    --     33.2186                41.8009                51.0705

                     46                     47                     48
                      A                      A                      A
 Frequencies --   3081.2087              3093.6715              3113.5764
 Red. masses --      1.1004                 1.1068                 1.1050
 Frc consts  --      6.1551                 6.2412                 6.3112
 IR Inten    --     20.5708                 2.3173                34.1920

                     49                     50                     51
                      A                      A                      A
 Frequencies --   3137.5551              3183.2586              3678.1543
 Red. masses --      1.0968                 1.0920                 1.0646
 Frc consts  --      6.3614                 6.5193                 8.4856
 IR Inten    --      4.6835                 8.5992                86.3434

 - Thermochemistry -
 -------------------
 Temperature   298.150 Kelvin.  Pressure   1.00000 Atm.
 Atom     1 has atomic number  6 and mass  12.00000

 Molecular mass:   126.06808 amu.
 Principal axes and moments of inertia in atomic units:
                           1         2         3
     Eigenvalues --   748.818551204.107061518.26795
           X            0.99989   0.00481   0.01367
           Y           -0.00447   0.99968  -0.02471
           Z           -0.01379   0.02464   0.99960
 This molecule is an asymmetric top.
 Rotational symmetry number  1.
 Warning -- assumption of classical behavior for rotation
           may cause significant error
 Rotational temperatures (Kelvin)      0.11567     0.07193     0.05705
 Rotational constants (GHZ):           2.41012     1.49882     1.18868
 Zero-point vibrational energy     413643.2 (Joules/Mol)
                                   98.86311 (Kcal/Mol)
 Warning -- explicit consideration of  12 degrees of freedom as
           vibrations may cause significant error
 Vibrational temperatures:    125.49   250.74   290.97   323.82   338.57
          (Kelvin)            425.76   479.56   497.13   612.83   662.33
                              727.14   756.92   945.64   971.13  1132.43
                             1185.59  1278.59  1328.30  1355.82  1384.32
                             1403.42  1454.83  1495.56  1578.63  1602.39
                             1644.23  1734.40  1749.10  1767.07  1781.44
                             1847.48  1903.95  1947.68  2006.42  2031.04
                             2132.87  2138.57  2145.02  2152.26  2174.20
                             2543.66  4293.04  4355.53  4390.97  4402.48
                             4433.17  4451.10  4479.74  4514.24  4579.99
                             5292.04

 Zero-point correction=                           0.157548 (Hartree/Particle)
 Thermal correction to Energy=                    0.166381
 Thermal correction to Enthalpy=                  0.167325
 Thermal correction to Gibbs Free Energy=         0.124459
 Sum of electronic and zero-point Energies=           -423.009219
 Sum of electronic and thermal Energies=              -423.000386
 Sum of electronic and thermal Enthalpies=            -422.999442
 Sum of electronic and thermal Free Energies=         -423.042308

                     E (Thermal)             CV                S
                      KCal/Mol        Cal/Mol-Kelvin    Cal/Mol-Kelvin
 Total                  104.406             33.909             90.220
 Electronic               0.000              0.000              0.000
 Translational            0.889              2.981             40.409
 Rotational               0.889              2.981             28.706
 Vibrational            102.628             27.948             21.106
 Vibration     1          0.601              1.958              3.722
 Vibration     2          0.627              1.874              2.389
 Vibration     3          0.639              1.837              2.113
 Vibration     4          0.650              1.803              1.918
 Vibration     5          0.655              1.787              1.838
 Vibration     6          0.690              1.681              1.440
 Vibration     7          0.715              1.609              1.244
 Vibration     8          0.724              1.584              1.187
 Vibration     9          0.788              1.414              0.872
 Vibration    10          0.818              1.338              0.765
 Vibration    11          0.861              1.238              0.645
 Vibration    12          0.881              1.192              0.596

 Normal termination of Gaussian 09 at Mon Jan 27 20:30:56 2020.
