 Gaussian 09, Revision D.01,
 Gaussian 09:  ES64L-G09RevD.01 24-Apr-2013

 -----------------------------
 # b3lyp 6-31G(2df,p) opt Freq
 -----------------------------

 -----
 titel
 -----
 Symbolic Z-matrix:
 Charge =  0 Multiplicity = 1

 SCF Done:  E(RB3LYP) =  -423.211658491     A.U. after   14 cycles
 Optimization completed.
    -- Stationary point found.
 Normal termination of Gaussian 09 at Mon Jan 27 13:12:14 2020.

 ----------------------------------------------------------------------
 #N Geom=AllCheck Guess=TCheck SCRF=Check GenChk RB3LYP/6-31G(2df,p) Fr
 eq
 ----------------------------------------------------------------------

 Structure from the checkpoint file:  "/scratch/puck/g09_a05331f8-665a-49f1-b419-bb26494f450b/Gau-168281.chk"
 -----
 titel
 -----
 Charge =  0 Multiplicity = 1

                         Standard orientation:
 ---------------------------------------------------------------------
 Center     Atomic      Atomic             Coordinates (Angstroms)
 Number     Number       Type             X           Y           Z
 ---------------------------------------------------------------------
      1          8           0        2.750925   -0.000126   -0.588947
      2          6           0        1.979310    0.000216    0.332364
      3          6           0        0.480549    0.000112    0.222896
      4          6           0       -0.201568    1.265784    0.827252
      5          6           0       -1.547412    1.265607    0.042866
      6          6           0       -1.386081   -0.000150   -0.828379
      7          6           0       -1.547182   -1.265794    0.043071
      8          6           0       -0.201350   -1.265589    0.827477
      9          8           0        0.018981   -0.000050   -1.122638
     10          1           0        2.334091    0.000484    1.390455
     11          1           0       -0.327163    1.197288    1.910190
     12          1           0        0.386969    2.160092    0.608672
     13          1           0       -2.424449    1.221481    0.693681
     14          1           0       -1.635287    2.154863   -0.584820
     15          1           0       -1.952293   -0.000278   -1.759642
     16          1           0       -2.424237   -1.221740    0.693866
     17          1           0       -1.634867   -2.155166   -0.584479
     18          1           0       -0.326974   -1.196908    1.910400
     19          1           0        0.387355   -2.159827    0.609071
 ---------------------------------------------------------------------

 SCF Done:  E(RB3LYP) =  -423.211658491     A.U. after    1 cycles

 The electronic state is 1-A.
 Alpha  occ. eigenvalues --  -19.14179 -19.13900 -10.26958 -10.24451 -10.23625
 Alpha  occ. eigenvalues --  -10.19653 -10.19652 -10.19127 -10.19127  -1.06072
 Alpha  occ. eigenvalues --   -1.03974  -0.80704  -0.76652  -0.75881  -0.63658
 Alpha  occ. eigenvalues --   -0.62023  -0.58150  -0.55395  -0.51417  -0.48695
 Alpha  occ. eigenvalues --   -0.47361  -0.44588  -0.42101  -0.41376  -0.40570
 Alpha  occ. eigenvalues --   -0.40201  -0.37034  -0.35864  -0.35355  -0.35159
 Alpha  occ. eigenvalues --   -0.32818  -0.31015  -0.26491  -0.24982
 Alpha virt. eigenvalues --   -0.02153   0.06360   0.08433   0.11525   0.13252
 Alpha virt. eigenvalues --    0.13488   0.14477   0.15043   0.15383   0.15888
 Alpha virt. eigenvalues --    0.17181   0.19056   0.19940   0.20075   0.22293

 Mulliken charges:
               1
     1  O   -0.245185
     2  C    0.074234
     3  C    0.311585
     4  C   -0.270386
     5  C   -0.215523
     6  C    0.075234
     7  C   -0.215520
     8  C   -0.270385
     9  O   -0.274301
    10  H    0.072516
    11  H    0.105303
    12  H    0.118302
    13  H    0.101625
    14  H    0.113021
    15  H    0.081217
    16  H    0.101625
    17  H    0.113024
    18  H    0.105304
    19  H    0.118310
 Sum of Mulliken charges =   0.00000

 Dipole moment (field-independent basis, Debye):
    X=             -3.0481    Y=              0.0004    Z=              2.6185  Tot=              4.0184
 Quadrupole moment (field-independent basis, Debye-Ang):
   XX=            -58.2350   YY=            -51.0000   ZZ=            -54.0411
   XY=              0.0014   XZ=              5.2000   YZ=             -0.0002

  Exact polarizability:  83.490   0.000  69.720   1.328   0.002  69.789
 Approx polarizability: 116.413  -0.001  97.526  -6.727   0.005 113.557

                      1                      2                      3
                      A                      A                      A
 Frequencies --     76.2807               141.7117               186.7200
 Red. masses --      4.7079                 1.7914                 4.5078
 Frc consts  --      0.0161                 0.0212                 0.0926
 IR Inten    --      3.0532                 0.1853                 2.4796

                      4                      5                      6
                      A                      A                      A
 Frequencies --    279.2183               324.4918               372.2464
 Red. masses --      2.1984                 1.9121                 2.5272
 Frc consts  --      0.1010                 0.1186                 0.2063
 IR Inten    --      2.1363                 2.5242                 0.2044

                      7                      8                      9
                      A                      A                      A
 Frequencies --    468.7721               556.4945               586.2337
 Red. masses --      4.3938                 4.0255                 3.8237
 Frc consts  --      0.5689                 0.7345                 0.7742
 IR Inten    --      1.4116                10.3959                 0.0092

                     10                     11                     12
                      A                      A                      A
 Frequencies --    709.7474               770.8821               812.9333
 Red. masses --      4.6375                 2.9980                 1.3051
 Frc consts  --      1.3764                 1.0497                 0.5082
 IR Inten    --     38.0746                 9.6111                 2.0090

                     13                     14                     15
                      A                      A                      A
 Frequencies --    826.1537               843.9523               870.6208
 Red. masses --      2.2497                 4.3533                 1.9808
 Frc consts  --      0.9047                 1.8269                 0.8846
 IR Inten    --      7.0704                17.7805                 3.0017

                     16                     17                     18
                      A                      A                      A
 Frequencies --    912.0119               931.3342               952.8830
 Red. masses --      2.3580                 2.4017                 2.9019
 Frc consts  --      1.1556                 1.2274                 1.5524
 IR Inten    --      3.0395                 1.2991                 3.2093

                     19                     20                     21
                      A                      A                      A
 Frequencies --    959.6558              1002.2785              1008.4887
 Red. masses --      2.0351                 4.7072                 1.6469
 Frc consts  --      1.1043                 2.7861                 0.9869
 IR Inten    --      2.3681                56.4135                 3.0549

                     22                     23                     24
                      A                      A                      A
 Frequencies --   1030.0272              1084.9001              1113.9061
 Red. masses --      2.7585                 1.4944                 2.1739
 Frc consts  --      1.7243                 1.0363                 1.5893
 IR Inten    --     14.3900                 0.0234                 4.8981

                     25                     26                     27
                      A                      A                      A
 Frequencies --   1177.8358              1180.4759              1212.4288
 Red. masses --      1.6266                 1.8024                 1.5852
 Frc consts  --      1.3295                 1.4799                 1.3729
 IR Inten    --      3.1862                10.6680                 5.1820

                     28                     29                     30
                      A                      A                      A
 Frequencies --   1219.8580              1246.8124              1251.8908
 Red. masses --      1.3416                 1.2389                 1.2286
 Frc consts  --      1.1762                 1.1347                 1.1345
 IR Inten    --      5.8439                 1.3065                 2.2533

                     31                     32                     33
                      A                      A                      A
 Frequencies --   1301.5740              1312.4080              1334.7587
 Red. masses --      1.4514                 1.5790                 1.4645
 Frc consts  --      1.4487                 1.6024                 1.5373
 IR Inten    --      0.3370                 4.7972                 4.1620

                     34                     35                     36
                      A                      A                      A
 Frequencies --   1335.7638              1353.7574              1432.2159
 Red. masses --      1.4393                 1.9235                 1.2609
 Frc consts  --      1.5131                 2.0769                 1.5239
 IR Inten    --      0.3864                 1.2562                 7.2261

                     37                     38                     39
                      A                      A                      A
 Frequencies --   1478.9232              1491.8621              1496.1394
 Red. masses --      1.0805                 1.0834                 1.1020
 Frc consts  --      1.3924                 1.4207                 1.4534
 IR Inten    --      0.0001                 0.9506                 3.2589

                     40                     41                     42
                      A                      A                      A
 Frequencies --   1513.7772              1842.7385              2850.0601
 Red. masses --      1.1030                10.7506                 1.0811
 Frc consts  --      1.4892                21.5085                 5.1740
 IR Inten    --      2.4382               171.9450               108.4383

                     43                     44                     45
                      A                      A                      A
 Frequencies --   3061.4070              3063.6576              3069.8029
 Red. masses --      1.0583                 1.0591                 1.0605
 Frc consts  --      5.8437                 5.8567                 5.8882
 IR Inten    --      0.0911                42.1160                36.3017

                     46                     47                     48
                      A                      A                      A
 Frequencies --   3073.5446              3102.5036              3106.2613
 Red. masses --      1.0608                 1.1070                 1.1061
 Frc consts  --      5.9041                 6.2781                 6.2882
 IR Inten    --     16.9235                 0.4299                 3.7492

                     49                     50                     51
                      A                      A                      A
 Frequencies --   3120.3588              3123.2868              3128.3837
 Red. masses --      1.1069                 1.0947                 1.1023
 Frc consts  --      6.3500                 6.2917                 6.3560
 IR Inten    --     22.4141                25.2378                53.7837

 - Thermochemistry -
 -------------------
 Temperature   298.150 Kelvin.  Pressure   1.00000 Atm.
 Atom     1 has atomic number  8 and mass  15.99491

 Molecular mass:   126.06808 amu.
 Principal axes and moments of inertia in atomic units:
                           1         2         3
     Eigenvalues --   601.572751235.355691359.11119
           X            0.99981   0.00000   0.01942
           Y            0.00000   1.00000   0.00000
           Z           -0.01942   0.00000   0.99981
 This molecule is an asymmetric top.
 Rotational symmetry number  1.
 Warning -- assumption of classical behavior for rotation
           may cause significant error
 Rotational temperatures (Kelvin)      0.14398     0.07011     0.06373
 Rotational constants (GHZ):           3.00004     1.46091     1.32788
 Zero-point vibrational energy     422906.4 (Joules/Mol)
                                  101.07706 (Kcal/Mol)
 Warning -- explicit consideration of   9 degrees of freedom as
           vibrations may cause significant error
 Vibrational temperatures:    109.75   203.89   268.65   401.73   466.87
          (Kelvin)            535.58   674.46   800.67   843.46  1021.17
                             1109.13  1169.63  1188.65  1214.26  1252.63
                             1312.18  1339.98  1370.98  1380.73  1442.05
                             1450.99  1481.98  1560.93  1602.66  1694.64
                             1698.44  1744.41  1755.10  1793.88  1801.19
                             1872.67  1888.26  1920.42  1921.86  1947.75
                             2060.64  2127.84  2146.45  2152.61  2177.99
                             2651.29  4100.60  4404.68  4407.91  4416.76
                             4422.14  4463.81  4469.21  4489.49  4493.71
                             4501.04

 Zero-point correction=                           0.161077 (Hartree/Particle)
 Thermal correction to Energy=                    0.168690
 Thermal correction to Enthalpy=                  0.169634
 Thermal correction to Gibbs Free Energy=         0.128765
 Sum of electronic and zero-point Energies=           -423.050582
 Sum of electronic and thermal Energies=              -423.042969
 Sum of electronic and thermal Enthalpies=            -423.042024
 Sum of electronic and thermal Free Energies=         -423.082893

                     E (Thermal)             CV                S
                      KCal/Mol        Cal/Mol-Kelvin    Cal/Mol-Kelvin
 Total                  105.854             29.664             86.016
 Electronic               0.000              0.000              0.000
 Translational            0.889              2.981             40.409
 Rotational               0.889              2.981             28.404
 Vibrational            104.077             23.703             17.204
 Vibration     1          0.599              1.965              3.984
 Vibration     2          0.615              1.912              2.781
 Vibration     3          0.632              1.858              2.260
 Vibration     4          0.680              1.712              1.538
 Vibration     5          0.709              1.626              1.287
 Vibration     6          0.744              1.529              1.071
 Vibration     7          0.826              1.319              0.741
 Vibration     8          0.912              1.125              0.531
 Vibration     9          0.943              1.061              0.474

 Optimization completed.
    -- Stationary point found.
 Normal termination of Gaussian 09 at Mon Jan 27 13:54:46 2020.
