 Gaussian 09, Revision D.01,
 Gaussian 09:  ES64L-G09RevD.01 24-Apr-2013

 -----------------------------
 # b3lyp 6-31G(2df,p) opt Freq
 -----------------------------

 -----
 titel
 -----
 Symbolic Z-matrix:
 Charge =  0 Multiplicity = 1

 SCF Done:  E(RB3LYP) =  -423.085533723     A.U. after   14 cycles
 SCF Done:  E(RB3LYP) =  -423.085534064     A.U. after    7 cycles
 SCF Done:  E(RB3LYP) =  -423.085534380     A.U. after    6 cycles
 Optimization completed.
    -- Stationary point found.
 Normal termination of Gaussian 09 at Mon Jan 27 23:12:28 2020.

 ----------------------------------------------------------------------
 #N Geom=AllCheck Guess=TCheck SCRF=Check GenChk RB3LYP/6-31G(2df,p) Fr
 eq
 ----------------------------------------------------------------------

 Structure from the checkpoint file:  "/scratch/puck/g09_7835178e-428e-487d-bdba-1ba1c3f2d4d7/Gau-29548.chk"
 -----
 titel
 -----
 Charge =  0 Multiplicity = 1

                         Standard orientation:
 ---------------------------------------------------------------------
 Center     Atomic      Atomic             Coordinates (Angstroms)
 Number     Number       Type             X           Y           Z
 ---------------------------------------------------------------------
      1          6           0        2.503813   -1.431271   -0.017466
      2          6           0        2.001860    0.002581    0.002396
      3          6           0        0.828626    0.524871   -0.876462
      4          8           0        0.731700    1.694646    0.030844
      5          6           0        0.845648    0.508359    0.914111
      6          6           0       -0.201876   -0.217494    0.023333
      7          6           0       -1.616667    0.275759    0.037125
      8          6           0       -2.702049   -0.533471    0.608081
      9          8           0       -2.530529   -0.444166   -0.804819
     10          1           0        3.119464   -1.603705   -0.906619
     11          1           0        3.133847   -1.624537    0.857316
     12          1           0        1.702661   -2.174254   -0.020854
     13          1           0        2.826154    0.720508    0.003323
     14          1           0        0.791123    0.718491   -1.949202
     15          1           0        0.833494    0.684631    1.991073
     16          1           0       -0.171998   -1.309005    0.006594
     17          1           0       -1.734923    1.356148    0.010469
     18          1           0       -2.476614   -1.505878    1.046054
     19          1           0       -3.588709   -0.042246    1.006936
 ---------------------------------------------------------------------

 SCF Done:  E(RB3LYP) =  -423.085534380     A.U. after    1 cycles

 The electronic state is 1-A.
 Alpha  occ. eigenvalues --  -19.14734 -19.13566 -10.25140 -10.24938 -10.23371
 Alpha  occ. eigenvalues --  -10.23203 -10.20280 -10.20209 -10.18609  -1.06760
 Alpha  occ. eigenvalues --   -1.05781  -0.80675  -0.74489  -0.68412  -0.65772
 Alpha  occ. eigenvalues --   -0.65016  -0.59798  -0.54172  -0.52302  -0.48961
 Alpha  occ. eigenvalues --   -0.47095  -0.43970  -0.42870  -0.42583  -0.40117
 Alpha  occ. eigenvalues --   -0.38764  -0.37572  -0.35322  -0.34412  -0.32442
 Alpha  occ. eigenvalues --   -0.31257  -0.29081  -0.26754  -0.24036
 Alpha virt. eigenvalues --    0.08195   0.08263   0.10160   0.11549   0.11861
 Alpha virt. eigenvalues --    0.12242   0.13229   0.13840   0.14324   0.15155
 Alpha virt. eigenvalues --    0.16445   0.17558   0.17922   0.18661   0.19741

 Mulliken charges:
               1
     1  C   -0.444281
     2  C    0.046415
     3  C    0.014476
     4  O   -0.314652
     5  C    0.008828
     6  C   -0.004070
     7  C    0.055051
     8  C   -0.187099
     9  O   -0.240971
    10  H    0.127482
    11  H    0.125396
    12  H    0.124983
    13  H    0.087714
    14  H    0.098345
    15  H    0.092751
    16  H    0.075510
    17  H    0.111174
    18  H    0.107382
    19  H    0.115568
 Sum of Mulliken charges =   0.00000

 Dipole moment (field-independent basis, Debye):
    X=              1.2094    Y=             -1.4533    Z=              1.4892  Tot=              2.4068
 Quadrupole moment (field-independent basis, Debye-Ang):
   XX=            -53.0360   YY=            -56.5508   ZZ=            -51.6099
   XY=             -2.7214   XZ=             -4.8128   YZ=             -1.3226

  Exact polarizability:  91.666  -0.098  70.030  -3.774  -1.761  67.367
 Approx polarizability: 114.287   3.586 108.996  -2.257  -1.463 109.439

                      1                      2                      3
                      A                      A                      A
 Frequencies --     78.2576               148.0565               153.7705
 Red. masses --      3.4387                 3.9411                 2.3713
 Frc consts  --      0.0124                 0.0509                 0.0330
 IR Inten    --      2.8072                 3.1093                 1.4728

                      4                      5                      6
                      A                      A                      A
 Frequencies --    179.4028               302.3362               306.0879
 Red. masses --      1.1615                 2.5789                 4.8734
 Frc consts  --      0.0220                 0.1389                 0.2690
 IR Inten    --      0.3967                 0.3908                 2.4702

                      7                      8                      9
                      A                      A                      A
 Frequencies --    365.8570               467.8846               570.2503
 Red. masses --      3.3313                 3.7684                 3.1515
 Frc consts  --      0.2627                 0.4861                 0.6038
 IR Inten    --      2.6564                 6.0168                 5.9718

                     10                     11                     12
                      A                      A                      A
 Frequencies --    599.5194               750.7068               793.5657
 Red. masses --      5.1663                 4.9666                 3.0237
 Frc consts  --      1.0940                 1.6491                 1.1219
 IR Inten    --      3.8718                11.9174                 5.2171

                     13                     14                     15
                      A                      A                      A
 Frequencies --    804.0681               850.5886               864.9542
 Red. masses --      2.0741                 5.7293                 2.0162
 Frc consts  --      0.7901                 2.4423                 0.8887
 IR Inten    --     13.6935                14.0986                10.7323

                     16                     17                     18
                      A                      A                      A
 Frequencies --    877.9492               884.6227               929.9682
 Red. masses --      2.3877                 2.7897                 3.4611
 Frc consts  --      1.0844                 1.2862                 1.7636
 IR Inten    --      7.0975                37.6989                13.7502

                     19                     20                     21
                      A                      A                      A
 Frequencies --    994.5335              1032.1819              1043.3680
 Red. masses --      2.2263                 1.1223                 1.5136
 Frc consts  --      1.2974                 0.7045                 0.9708
 IR Inten    --     10.0425                 0.4909                 1.1176

                     22                     23                     24
                      A                      A                      A
 Frequencies --   1098.0533              1106.1833              1116.7015
 Red. masses --      1.2902                 2.8766                 1.5886
 Frc consts  --      0.9165                 2.0739                 1.1672
 IR Inten    --      1.1821                 4.0968                 3.4501

                     25                     26                     27
                      A                      A                      A
 Frequencies --   1128.6042              1150.8619              1155.5739
 Red. masses --      1.4704                 1.8224                 1.7886
 Frc consts  --      1.1035                 1.4221                 1.4072
 IR Inten    --     10.5991                 4.8199                 1.3283

                     28                     29                     30
                      A                      A                      A
 Frequencies --   1178.7568              1179.6875              1199.1941
 Red. masses --      1.4434                 1.3979                 2.1787
 Frc consts  --      1.1816                 1.1462                 1.8460
 IR Inten    --      2.2935                 0.6138                 1.2078

                     31                     32                     33
                      A                      A                      A
 Frequencies --   1227.9023              1258.9773              1265.5329
 Red. masses --      1.4918                 1.4648                 1.5088
 Frc consts  --      1.3252                 1.3679                 1.4238
 IR Inten    --      5.4812                 3.4725                 3.6033

                     34                     35                     36
                      A                      A                      A
 Frequencies --   1280.4950              1330.8381              1389.1357
 Red. masses --      1.4662                 1.7979                 1.5036
 Frc consts  --      1.4164                 1.8761                 1.7095
 IR Inten    --      5.4077                 4.3878                 6.7699

                     37                     38                     39
                      A                      A                      A
 Frequencies --   1416.5180              1462.2079              1494.1874
 Red. masses --      1.2972                 1.7361                 1.0464
 Frc consts  --      1.5336                 2.1869                 1.3765
 IR Inten    --      7.5962                 5.8472                 3.5545

                     40                     41                     42
                      A                      A                      A
 Frequencies --   1500.8768              1528.7897              3038.4535
 Red. masses --      1.0570                 1.3751                 1.0371
 Frc consts  --      1.4028                 1.8935                 5.6414
 IR Inten    --      4.2939                 2.9803                20.2105

                     43                     44                     45
                      A                      A                      A
 Frequencies --   3076.3795              3080.6472              3089.6926
 Red. masses --      1.0506                 1.0851                 1.0845
 Frc consts  --      5.8581                 6.0674                 6.0996
 IR Inten    --     27.3122                12.3462                20.0631

                     46                     47                     48
                      A                      A                      A
 Frequencies --   3097.6707              3104.9670              3116.0894
 Red. masses --      1.1006                 1.0907                 1.0954
 Frc consts  --      6.2225                 6.1955                 6.2669
 IR Inten    --     17.4142                72.2494                14.8265

                     49                     50                     51
                      A                      A                      A
 Frequencies --   3121.9544              3148.8801              3164.5957
 Red. masses --      1.0974                 1.0937                 1.1134
 Frc consts  --      6.3020                 6.3893                 6.5694
 IR Inten    --     39.9010                 2.1520                36.3264

 - Thermochemistry -
 -------------------
 Temperature   298.150 Kelvin.  Pressure   1.00000 Atm.
 Atom     1 has atomic number  6 and mass  12.00000

 Molecular mass:   126.06808 amu.
 Principal axes and moments of inertia in atomic units:
                           1         2         3
     Eigenvalues --   526.442701680.024851881.97003
           X            0.99948  -0.02820  -0.01558
           Y            0.02779   0.99928  -0.02576
           Z            0.01630   0.02532   0.99955
 This molecule is an asymmetric top.
 Rotational symmetry number  1.
 Warning -- assumption of classical behavior for rotation
           may cause significant error
 Rotational temperatures (Kelvin)      0.16453     0.05156     0.04602
 Rotational constants (GHZ):           3.42818     1.07423     0.95896
 Zero-point vibrational energy     415740.2 (Joules/Mol)
                                   99.36430 (Kcal/Mol)
 Warning -- explicit consideration of  10 degrees of freedom as
           vibrations may cause significant error
 Vibrational temperatures:    112.60   213.02   221.24   258.12   434.99
          (Kelvin)            440.39   526.39   673.18   820.46   862.57
                             1080.10  1141.76  1156.87  1223.81  1244.47
                             1263.17  1272.77  1338.02  1430.91  1485.08
                             1501.17  1579.85  1591.55  1606.68  1623.81
                             1655.83  1662.61  1695.97  1697.31  1725.37
                             1766.68  1811.39  1820.82  1842.34  1914.78
                             1998.65  2038.05  2103.79  2149.80  2159.42
                             2199.58  4371.65  4426.22  4432.36  4445.37
                             4456.85  4467.35  4483.35  4491.79  4530.53
                             4553.14

 Zero-point correction=                           0.158347 (Hartree/Particle)
 Thermal correction to Energy=                    0.166524
 Thermal correction to Enthalpy=                  0.167468
 Thermal correction to Gibbs Free Energy=         0.125244
 Sum of electronic and zero-point Energies=           -422.927187
 Sum of electronic and thermal Energies=              -422.919010
 Sum of electronic and thermal Enthalpies=            -422.918066
 Sum of electronic and thermal Free Energies=         -422.960290

                     E (Thermal)             CV                S
                      KCal/Mol        Cal/Mol-Kelvin    Cal/Mol-Kelvin
 Total                  104.495             31.179             88.868
 Electronic               0.000              0.000              0.000
 Translational            0.889              2.981             40.409
 Rotational               0.889              2.981             28.900
 Vibrational            102.718             25.217             19.560
 Vibration     1          0.600              1.964              3.934
 Vibration     2          0.617              1.905              2.697
 Vibration     3          0.619              1.898              2.625
 Vibration     4          0.629              1.868              2.335
 Vibration     5          0.694              1.669              1.404
 Vibration     6          0.696              1.662              1.383
 Vibration     7          0.739              1.543              1.097
 Vibration     8          0.825              1.321              0.744
 Vibration     9          0.926              1.096              0.504
 Vibration    10          0.958              1.033              0.450

 Optimization completed.
    -- Stationary point found.
 Normal termination of Gaussian 09 at Mon Jan 27 23:55:09 2020.
