 Gaussian 09, Revision D.01,
 Gaussian 09:  ES64L-G09RevD.01 24-Apr-2013

 -----------------------------
 # b3lyp 6-31G(2df,p) opt Freq
 -----------------------------

 -----
 titel
 -----
 Symbolic Z-matrix:
 Charge =  0 Multiplicity = 1

 SCF Done:  E(RB3LYP) =  -423.170282670     A.U. after   14 cycles
 Optimization completed.
    -- Stationary point found.
 Normal termination of Gaussian 09 at Mon Jan 27 14:03:16 2020.

 ----------------------------------------------------------------------
 #N Geom=AllCheck Guess=TCheck SCRF=Check GenChk RB3LYP/6-31G(2df,p) Fr
 eq
 ----------------------------------------------------------------------

 Structure from the checkpoint file:  "/scratch/puck/g09_cfd768dd-1b14-4e40-8610-a852e8cedb0d/Gau-103035.chk"
 -----
 titel
 -----
 Charge =  0 Multiplicity = 1

                         Standard orientation:
 ---------------------------------------------------------------------
 Center     Atomic      Atomic             Coordinates (Angstroms)
 Number     Number       Type             X           Y           Z
 ---------------------------------------------------------------------
      1          6           0        2.745005   -0.632987   -0.731167
      2          6           0        1.612442   -0.121157    0.139553
      3          8           0        1.813714    0.624925    1.080026
      4          6           0        0.247113   -0.577824   -0.232316
      5          6           0       -0.794670   -0.562940    0.889705
      6          6           0       -2.097478   -1.107168    0.329857
      7          8           0       -2.058168   -0.143771   -0.762287
      8          6           0       -0.889513    0.458198   -0.198354
      9          6           0       -0.748867    1.939320   -0.294576
     10          1           0        2.567631   -0.371876   -1.780676
     11          1           0        3.691072   -0.206162   -0.396712
     12          1           0        2.795947   -1.726850   -0.681326
     13          1           0        0.178357   -1.341170   -1.003031
     14          1           0       -0.488685   -0.460205    1.921260
     15          1           0       -2.114656   -2.143486   -0.026206
     16          1           0       -2.964662   -0.918072    0.971793
     17          1           0       -0.699128    2.249339   -1.344207
     18          1           0       -1.612107    2.431485    0.163559
     19          1           0        0.157674    2.265121    0.217422
 ---------------------------------------------------------------------

 SCF Done:  E(RB3LYP) =  -423.170282670     A.U. after    1 cycles

 The electronic state is 1-A.
 Alpha  occ. eigenvalues --  -19.14484 -19.12286 -10.26964 -10.25724 -10.24231
 Alpha  occ. eigenvalues --  -10.20408 -10.19948 -10.18863 -10.18280  -1.06101
 Alpha  occ. eigenvalues --   -1.03327  -0.84284  -0.75047  -0.74631  -0.68662
 Alpha  occ. eigenvalues --   -0.63089  -0.54921  -0.51994  -0.50048  -0.49008
 Alpha  occ. eigenvalues --   -0.46746  -0.44205  -0.43395  -0.42431  -0.41478
 Alpha  occ. eigenvalues --   -0.39961  -0.38782  -0.38690  -0.35725  -0.34061
 Alpha  occ. eigenvalues --   -0.31991  -0.28307  -0.25117  -0.23560
 Alpha virt. eigenvalues --   -0.01562   0.08324   0.09793   0.11488   0.11567
 Alpha virt. eigenvalues --    0.12521   0.13665   0.14569   0.15378   0.16602
 Alpha virt. eigenvalues --    0.17650   0.17899   0.18811   0.21755   0.22380

 Mulliken charges:
               1
     1  C   -0.484904
     2  C    0.372024
     3  O   -0.334749
     4  C   -0.206938
     5  C   -0.175250
     6  C   -0.112814
     7  O   -0.318071
     8  C    0.479733
     9  C   -0.502000
    10  H    0.141115
    11  H    0.140737
    12  H    0.140733
    13  H    0.088833
    14  H    0.123961
    15  H    0.109091
    16  H    0.117948
    17  H    0.129078
    18  H    0.129910
    19  H    0.161563
 Sum of Mulliken charges =   0.00000

 Dipole moment (field-independent basis, Debye):
    X=             -0.1443    Y=             -1.4481    Z=             -0.6088  Tot=              1.5775
 Quadrupole moment (field-independent basis, Debye-Ang):
   XX=            -54.6598   YY=            -50.5043   ZZ=            -54.8615
   XY=             -1.7753   XZ=             -7.6308   YZ=             -1.7739

  Exact polarizability:  93.585   1.287  74.297  -3.887   1.457  66.261
 Approx polarizability: 124.330   2.918 108.633   2.206   5.317 109.462

                      1                      2                      3
                      A                      A                      A
 Frequencies --     65.5081               137.6809               162.2794
 Red. masses --      3.5165                 1.0711                 3.1280
 Frc consts  --      0.0089                 0.0120                 0.0485
 IR Inten    --      4.0296                 0.5757                 5.5003

                      4                      5                      6
                      A                      A                      A
 Frequencies --    170.1526               211.4298               242.7112
 Red. masses --      4.3320                 1.1094                 2.4164
 Frc consts  --      0.0739                 0.0292                 0.0839
 IR Inten    --      2.9791                 1.1960                 3.7738

                      7                      8                      9
                      A                      A                      A
 Frequencies --    324.9871               348.9403               368.6108
 Red. masses --      3.6476                 3.0145                 2.9364
 Frc consts  --      0.2270                 0.2163                 0.2351
 IR Inten    --      2.0396                 1.0845                 0.5551

                     10                     11                     12
                      A                      A                      A
 Frequencies --    436.1960               577.6280               597.8898
 Red. masses --      3.1600                 2.7718                 3.8091
 Frc consts  --      0.3542                 0.5449                 0.8023
 IR Inten    --      6.8441                 0.8388                 9.2377

                     13                     14                     15
                      A                      A                      A
 Frequencies --    675.4683               732.0289               838.3906
 Red. masses --      3.0336                 3.4253                 3.1162
 Frc consts  --      0.8155                 1.0815                 1.2905
 IR Inten    --      3.4752                14.6238                37.8725

                     16                     17                     18
                      A                      A                      A
 Frequencies --    899.2076               913.2277               947.4333
 Red. masses --      2.1727                 2.2571                 2.4981
 Frc consts  --      1.0351                 1.1091                 1.3212
 IR Inten    --      5.8803                37.6160                75.5111

                     19                     20                     21
                      A                      A                      A
 Frequencies --    967.3242               981.3933              1000.8234
 Red. masses --      2.0022                 3.4502                 1.8998
 Frc consts  --      1.1038                 1.9579                 1.1212
 IR Inten    --     11.0767                27.0826                 9.2989

                     22                     23                     24
                      A                      A                      A
 Frequencies --   1014.5928              1046.6334              1057.3212
 Red. masses --      1.4193                 1.7130                 1.8272
 Frc consts  --      0.8608                 1.1056                 1.2035
 IR Inten    --     12.5531                 5.4748                 4.7511

                     25                     26                     27
                      A                      A                      A
 Frequencies --   1088.1068              1119.7903              1154.5620
 Red. masses --      1.9844                 1.8135                 1.2192
 Frc consts  --      1.3843                 1.3398                 0.9576
 IR Inten    --     17.5947                26.3783                11.3847

                     28                     29                     30
                      A                      A                      A
 Frequencies --   1179.2860              1190.9319              1250.3309
 Red. masses --      1.7657                 1.9250                 2.1024
 Frc consts  --      1.4468                 1.6086                 1.9365
 IR Inten    --    111.0839                16.2565                 3.2916

                     31                     32                     33
                      A                      A                      A
 Frequencies --   1333.6528              1350.7602              1381.1757
 Red. masses --      1.5700                 1.7278                 1.3960
 Frc consts  --      1.6453                 1.8574                 1.5691
 IR Inten    --      9.0251                59.1816                31.4181

                     34                     35                     36
                      A                      A                      A
 Frequencies --   1398.0331              1445.9850              1463.7111
 Red. masses --      1.4257                 3.0867                 1.0638
 Frc consts  --      1.6418                 3.8026                 1.3428
 IR Inten    --     58.2107                41.9672                11.6659

                     37                     38                     39
                      A                      A                      A
 Frequencies --   1475.4096              1484.5744              1497.4082
 Red. masses --      1.0503                 1.0495                 1.1065
 Frc consts  --      1.3470                 1.3629                 1.4618
 IR Inten    --      6.1784                 2.5144                 9.7762

                     40                     41                     42
                      A                      A                      A
 Frequencies --   1515.1142              1771.6690              3029.7403
 Red. masses --      1.1363                10.0604                 1.0549
 Frc consts  --      1.5368                18.6050                 5.7051
 IR Inten    --      1.4040               131.1690                73.1268

                     43                     44                     45
                      A                      A                      A
 Frequencies --   3034.2082              3040.6659              3080.7004
 Red. masses --      1.0370                 1.0380                 1.1115
 Frc consts  --      5.6251                 5.6546                 6.2154
 IR Inten    --      2.3400                22.0227                29.4573

                     46                     47                     48
                      A                      A                      A
 Frequencies --   3094.3591              3101.8004              3141.0948
 Red. masses --      1.0982                 1.1003                 1.0892
 Frc consts  --      6.1956                 6.2370                 6.3318
 IR Inten    --      7.1317                15.5502                 9.4019

                     49                     50                     51
                      A                      A                      A
 Frequencies --   3150.1901              3153.2649              3219.6260
 Red. masses --      1.0985                 1.1016                 1.0942
 Frc consts  --      6.4225                 6.4534                 6.6827
 IR Inten    --      1.8489                11.5835                 2.2637

 - Thermochemistry -
 -------------------
 Temperature   298.150 Kelvin.  Pressure   1.00000 Atm.
 Atom     1 has atomic number  6 and mass  12.00000

 Molecular mass:   126.06808 amu.
 Principal axes and moments of inertia in atomic units:
                           1         2         3
     Eigenvalues --   596.779751511.786721690.50297
           X            0.99919  -0.01753  -0.03613
           Y            0.01724   0.99982  -0.00831
           Z            0.03627   0.00768   0.99931
 This molecule is an asymmetric top.
 Rotational symmetry number  1.
 Warning -- assumption of classical behavior for rotation
           may cause significant error
 Rotational temperatures (Kelvin)      0.14514     0.05729     0.05124
 Rotational constants (GHZ):           3.02413     1.19378     1.06758
 Zero-point vibrational energy     411898.2 (Joules/Mol)
                                   98.44604 (Kcal/Mol)
 Warning -- explicit consideration of  12 degrees of freedom as
           vibrations may cause significant error
 Vibrational temperatures:     94.25   198.09   233.48   244.81   304.20
          (Kelvin)            349.21   467.58   502.05   530.35   627.59
                              831.08   860.23   971.85  1053.23  1206.26
                             1293.76  1313.93  1363.14  1391.76  1412.00
                             1439.96  1459.77  1505.87  1521.25  1565.54
                             1611.13  1661.16  1696.73  1713.48  1798.95
                             1918.83  1943.44  1987.20  2011.46  2080.45
                             2105.95  2122.78  2135.97  2154.43  2179.91
                             2549.03  4359.12  4365.54  4374.83  4432.44
                             4452.09  4462.79  4519.33  4532.42  4536.84
                             4632.32

 Zero-point correction=                           0.156884 (Hartree/Particle)
 Thermal correction to Energy=                    0.166000
 Thermal correction to Enthalpy=                  0.166944
 Thermal correction to Gibbs Free Energy=         0.122943
 Sum of electronic and zero-point Energies=           -423.013399
 Sum of electronic and thermal Energies=              -423.004283
 Sum of electronic and thermal Enthalpies=            -423.003338
 Sum of electronic and thermal Free Energies=         -423.047339

                     E (Thermal)             CV                S
                      KCal/Mol        Cal/Mol-Kelvin    Cal/Mol-Kelvin
 Total                  104.167             33.699             92.608
 Electronic               0.000              0.000              0.000
 Translational            0.889              2.981             40.409
 Rotational               0.889              2.981             28.813
 Vibrational            102.389             27.738             23.386
 Vibration     1          0.597              1.971              4.284
 Vibration     2          0.614              1.916              2.836
 Vibration     3          0.622              1.889              2.523
 Vibration     4          0.625              1.879              2.434
 Vibration     5          0.643              1.823              2.031
 Vibration     6          0.659              1.775              1.783
 Vibration     7          0.709              1.625              1.285
 Vibration     8          0.726              1.577              1.171
 Vibration     9          0.741              1.537              1.086
 Vibration    10          0.797              1.391              0.839
 Vibration    11          0.934              1.080              0.490
 Vibration    12          0.956              1.036              0.453

 Normal termination of Gaussian 09 at Mon Jan 27 14:43:15 2020.
