 Gaussian 09, Revision D.01,
 Gaussian 09:  ES64L-G09RevD.01 24-Apr-2013

 -----------------------------
 # b3lyp 6-31G(2df,p) opt Freq
 -----------------------------

 -----
 titel
 -----
 Symbolic Z-matrix:
 Charge =  0 Multiplicity = 1

 SCF Done:  E(RB3LYP) =  -423.159520473     A.U. after   14 cycles
 Optimization completed.
    -- Stationary point found.
 Normal termination of Gaussian 09 at Mon Jan 27 13:50:21 2020.

 ----------------------------------------------------------------------
 #N Geom=AllCheck Guess=TCheck SCRF=Check GenChk RB3LYP/6-31G(2df,p) Fr
 eq
 ----------------------------------------------------------------------

 Structure from the checkpoint file:  "/scratch/puck/g09_b0ec230b-481c-46a9-8479-6131baaf217a/Gau-53305.chk"
 -----
 titel
 -----
 Charge =  0 Multiplicity = 1

                         Standard orientation:
 ---------------------------------------------------------------------
 Center     Atomic      Atomic             Coordinates (Angstroms)
 Number     Number       Type             X           Y           Z
 ---------------------------------------------------------------------
      1          8           0        3.688561    0.121364   -0.392247
      2          6           0        2.623173   -0.326982   -0.051570
      3          6           0        1.495470    0.497509    0.533762
      4          6           0        0.182456    0.287651   -0.222136
      5          8           0       -0.252466   -1.096680   -0.153196
      6          6           0       -1.439601   -0.739438    0.587509
      7          6           0       -2.676768   -0.536893   -0.315903
      8          6           0       -2.316197    0.977182   -0.454515
      9          6           0       -1.096066    0.775580    0.485220
     10          1           0        2.391842   -1.408940   -0.151169
     11          1           0        1.349274    0.180839    1.575953
     12          1           0        1.784289    1.553337    0.523812
     13          1           0        0.290845    0.616648   -1.264894
     14          1           0       -1.542668   -1.321031    1.507127
     15          1           0       -2.654325   -1.133543   -1.230077
     16          1           0       -3.625286   -0.710820    0.199198
     17          1           0       -2.069805    1.324633   -1.461651
     18          1           0       -3.075900    1.643643   -0.040972
     19          1           0       -0.971825    1.450111    1.332015
 ---------------------------------------------------------------------

 SCF Done:  E(RB3LYP) =  -423.159520473     A.U. after    1 cycles

 The electronic state is 1-A.
 Alpha  occ. eigenvalues --  -19.14170 -19.13607 -10.26777 -10.24862 -10.24028
 Alpha  occ. eigenvalues --  -10.19963 -10.19566 -10.19397 -10.18830  -1.04908
 Alpha  occ. eigenvalues --   -1.04180  -0.83047  -0.78505  -0.69729  -0.65757
 Alpha  occ. eigenvalues --   -0.61780  -0.57321  -0.52782  -0.51818  -0.48971
 Alpha  occ. eigenvalues --   -0.48796  -0.45383  -0.43351  -0.42405  -0.41374
 Alpha  occ. eigenvalues --   -0.38878  -0.37621  -0.36697  -0.35057  -0.33861
 Alpha  occ. eigenvalues --   -0.31421  -0.29072  -0.25960  -0.24140
 Alpha virt. eigenvalues --   -0.02137   0.06930   0.08613   0.09226   0.10769
 Alpha virt. eigenvalues --    0.11958   0.13729   0.13803   0.15328   0.16329
 Alpha virt. eigenvalues --    0.16937   0.18006   0.18676   0.19947   0.21001

 Mulliken charges:
               1
     1  O   -0.241580
     2  C    0.152867
     3  C   -0.300461
     4  C    0.127982
     5  O   -0.311857
     6  C    0.124414
     7  C   -0.229766
     8  C   -0.246487
     9  C   -0.090239
    10  H    0.098455
    11  H    0.120004
    12  H    0.119070
    13  H    0.087304
    14  H    0.078311
    15  H    0.115177
    16  H    0.104990
    17  H    0.105741
    18  H    0.108537
    19  H    0.077537
 Sum of Mulliken charges =   0.00000

 Dipole moment (field-independent basis, Debye):
    X=             -3.4372    Y=              0.8417    Z=              1.3105  Tot=              3.7736
 Quadrupole moment (field-independent basis, Debye-Ang):
   XX=            -64.0282   YY=            -53.7186   ZZ=            -51.3919
   XY=             -1.4852   XZ=              1.9930   YZ=             -0.6417

  Exact polarizability:  96.018   2.617  69.882  -2.194  -1.044  63.444
 Approx polarizability: 122.649   6.289 106.216  -7.459  -2.024  97.742

                      1                      2                      3
                      A                      A                      A
 Frequencies --     50.4483                79.4086                93.7025
 Red. masses --      5.0197                 4.1162                 2.6581
 Frc consts  --      0.0075                 0.0153                 0.0138
 IR Inten    --      3.0720                 3.0523                 3.6139

                      4                      5                      6
                      A                      A                      A
 Frequencies --    157.1570               247.8121               306.1650
 Red. masses --      2.5419                 2.1120                 4.0844
 Frc consts  --      0.0370                 0.0764                 0.2256
 IR Inten    --      1.3773                 0.7839                 1.2783

                      7                      8                      9
                      A                      A                      A
 Frequencies --    381.8209               451.5186               529.9098
 Red. masses --      3.1664                 3.8525                 1.9481
 Frc consts  --      0.2720                 0.4627                 0.3223
 IR Inten    --      4.8209                10.4461                 9.7754

                     10                     11                     12
                      A                      A                      A
 Frequencies --    698.3417               729.4753               817.1671
 Red. masses --      3.7299                 1.2573                 1.6897
 Frc consts  --      1.0717                 0.3942                 0.6648
 IR Inten    --      0.7012                 0.2489                 9.2099

                     13                     14                     15
                      A                      A                      A
 Frequencies --    820.2065               839.6471               857.2264
 Red. masses --      2.5369                 1.7720                 2.5182
 Frc consts  --      1.0055                 0.7361                 1.0902
 IR Inten    --      3.7200                 1.7555                 0.4199

                     16                     17                     18
                      A                      A                      A
 Frequencies --    922.0455               936.6865               952.2743
 Red. masses --      3.6918                 2.5985                 2.6569
 Frc consts  --      1.8492                 1.3432                 1.4196
 IR Inten    --     12.3268                27.9735                 1.1403

                     19                     20                     21
                      A                      A                      A
 Frequencies --    972.8024              1027.4553              1044.6329
 Red. masses --      2.3160                 1.8867                 3.9395
 Frc consts  --      1.2913                 1.1735                 2.5329
 IR Inten    --     11.2820                31.8778                89.4633

                     22                     23                     24
                      A                      A                      A
 Frequencies --   1066.7950              1084.7688              1105.2059
 Red. masses --      1.8736                 2.6261                 2.0152
 Frc consts  --      1.2563                 1.8207                 1.4503
 IR Inten    --      7.6811                34.1096                 2.9462

                     25                     26                     27
                      A                      A                      A
 Frequencies --   1148.7754              1171.4300              1204.2641
 Red. masses --      1.8354                 1.7305                 1.3937
 Frc consts  --      1.4271                 1.3992                 1.1909
 IR Inten    --      2.9734                15.2412                 1.1252

                     28                     29                     30
                      A                      A                      A
 Frequencies --   1220.4010              1238.8859              1246.8110
 Red. masses --      1.3424                 1.3574                 1.2517
 Frc consts  --      1.1780                 1.2275                 1.1464
 IR Inten    --      2.9719                 0.6207                 0.7250

                     31                     32                     33
                      A                      A                      A
 Frequencies --   1269.4774              1277.6565              1298.6403
 Red. masses --      1.6189                 1.4276                 1.5368
 Frc consts  --      1.5371                 1.3731                 1.5270
 IR Inten    --      3.3235                 1.0667                 0.3023

                     34                     35                     36
                      A                      A                      A
 Frequencies --   1314.3907              1343.7523              1390.3883
 Red. masses --      1.3412                 1.5148                 1.4364
 Frc consts  --      1.3652                 1.6116                 1.6361
 IR Inten    --     13.6623                13.0310                23.3485

                     37                     38                     39
                      A                      A                      A
 Frequencies --   1422.8580              1450.9102              1462.4667
 Red. masses --      1.2044                 1.0974                 1.0903
 Frc consts  --      1.4366                 1.3611                 1.3739
 IR Inten    --      7.2009                 4.7264                 1.1448

                     40                     41                     42
                      A                      A                      A
 Frequencies --   1489.6476              1829.1681              2911.0699
 Red. masses --      1.1077                 9.7705                 1.0835
 Frc consts  --      1.4482                19.2608                 5.4100
 IR Inten    --      2.9939               192.2698                69.5751

                     43                     44                     45
                      A                      A                      A
 Frequencies --   3007.1558              3021.2042              3059.2813
 Red. masses --      1.0813                 1.0658                 1.0587
 Frc consts  --      5.7611                 5.7317                 5.8382
 IR Inten    --     24.3499                20.0833                23.8805

                     46                     47                     48
                      A                      A                      A
 Frequencies --   3062.9770              3076.7993              3095.2688
 Red. masses --      1.0654                 1.0846                 1.0990
 Frc consts  --      5.8891                 6.0495                 6.2037
 IR Inten    --     43.9774                52.0448                14.4998

                     49                     50                     51
                      A                      A                      A
 Frequencies --   3105.6099              3115.8670              3128.7640
 Red. masses --      1.1034                 1.0944                 1.1061
 Frc consts  --      6.2700                 6.2599                 6.3796
 IR Inten    --      5.4298                15.4082                39.7155

 - Thermochemistry -
 -------------------
 Temperature   298.150 Kelvin.  Pressure   1.00000 Atm.
 Atom     1 has atomic number  8 and mass  15.99491

 Molecular mass:   126.06808 amu.
 Principal axes and moments of inertia in atomic units:
                           1         2         3
     Eigenvalues --   350.273502127.477392265.69273
           X            0.99996  -0.00371   0.00805
           Y            0.00377   0.99997  -0.00708
           Z           -0.00802   0.00711   0.99994
 This molecule is an asymmetric top.
 Rotational symmetry number  1.
 Rotational temperatures (Kelvin)      0.24727     0.04071     0.03823
 Rotational constants (GHZ):           5.15238     0.84830     0.79655
 Zero-point vibrational energy     415921.2 (Joules/Mol)
                                   99.40755 (Kcal/Mol)
 Warning -- explicit consideration of   9 degrees of freedom as
           vibrations may cause significant error
 Vibrational temperatures:     72.58   114.25   134.82   226.11   356.55
          (Kelvin)            440.50   549.35   649.63   762.42  1004.76
                             1049.55  1175.72  1180.09  1208.06  1233.36
                             1326.62  1347.68  1370.11  1399.64  1478.28
                             1502.99  1534.88  1560.74  1590.14  1652.83
                             1685.42  1732.67  1755.88  1782.48  1793.88
                             1826.49  1838.26  1868.45  1891.11  1933.36
                             2000.46  2047.17  2087.53  2104.16  2143.27
                             2631.76  4188.38  4326.62  4346.83  4401.62
                             4406.94  4426.82  4453.40  4468.27  4483.03
                             4501.59

 Zero-point correction=                           0.158416 (Hartree/Particle)
 Thermal correction to Energy=                    0.166936
 Thermal correction to Enthalpy=                  0.167880
 Thermal correction to Gibbs Free Energy=         0.124011
 Sum of electronic and zero-point Energies=           -423.001104
 Sum of electronic and thermal Energies=              -422.992585
 Sum of electronic and thermal Enthalpies=            -422.991641
 Sum of electronic and thermal Free Energies=         -423.035509

                     E (Thermal)             CV                S
                      KCal/Mol        Cal/Mol-Kelvin    Cal/Mol-Kelvin
 Total                  104.754             30.986             92.329
 Electronic               0.000              0.000              0.000
 Translational            0.889              2.981             40.409
 Rotational               0.889              2.981             28.914
 Vibrational            102.976             25.024             23.007
 Vibration     1          0.595              1.977              4.800
 Vibration     2          0.600              1.963              3.905
 Vibration     3          0.603              1.954              3.581
 Vibration     4          0.621              1.895              2.584
 Vibration     5          0.661              1.766              1.746
 Vibration     6          0.697              1.662              1.383
 Vibration     7          0.751              1.509              1.032
 Vibration     8          0.810              1.358              0.791
 Vibration     9          0.885              1.184              0.587

 Optimization completed.
    -- Stationary point found.
 Normal termination of Gaussian 09 at Mon Jan 27 14:27:33 2020.
