 Gaussian 09, Revision D.01,
 Gaussian 09:  ES64L-G09RevD.01 24-Apr-2013

 -----------------------------
 # b3lyp 6-31G(2df,p) opt Freq
 -----------------------------

 -----
 titel
 -----
 Symbolic Z-matrix:
 Charge =  0 Multiplicity = 1

 SCF Done:  E(RB3LYP) =  -423.113736108     A.U. after   14 cycles
 Optimization completed.
    -- Stationary point found.
 Normal termination of Gaussian 09 at Tue Jan 28 09:18:22 2020.

 ----------------------------------------------------------------------
 #N Geom=AllCheck Guess=TCheck SCRF=Check GenChk RB3LYP/6-31G(2df,p) Fr
 eq
 ----------------------------------------------------------------------

 Structure from the checkpoint file:  "/scratch/puck/g09_7a025d5f-60b9-4c26-90e4-a0b5730a50fd/Gau-109334.chk"
 -----
 titel
 -----
 Charge =  0 Multiplicity = 1

                         Standard orientation:
 ---------------------------------------------------------------------
 Center     Atomic      Atomic             Coordinates (Angstroms)
 Number     Number       Type             X           Y           Z
 ---------------------------------------------------------------------
      1          6           0       -1.752140    1.781151    0.228309
      2          6           0       -1.091129    0.453588    0.006434
      3          6           0       -1.466141   -0.641395   -0.997338
      4          6           0       -0.124197   -1.299924   -0.595034
      5          8           0       -0.343879   -1.703449    0.788300
      6          6           0       -0.330569   -0.313915    1.105380
      7          6           0        0.402020    0.115650   -0.131326
      8          6           0        1.634708    0.913792   -0.385517
      9          8           0        2.826269    0.227064   -0.027128
     10          1           0       -1.206148    2.383390    0.962890
     11          1           0       -1.810967    2.363923   -0.697864
     12          1           0       -2.773244    1.649714    0.604635
     13          1           0       -2.369764   -1.235625   -0.825125
     14          1           0       -1.444210   -0.262882   -2.023296
     15          1           0        0.386201   -2.051212   -1.193194
     16          1           0       -0.271936   -0.005284    2.142325
     17          1           0        1.739727    1.140902   -1.452862
     18          1           0        1.550054    1.880547    0.139071
     19          1           0        2.705863   -0.106071    0.868588
 ---------------------------------------------------------------------

 SCF Done:  E(RB3LYP) =  -423.113736108     A.U. after    1 cycles

 The electronic state is 1-A.
 Alpha  occ. eigenvalues --  -19.13601 -19.13422 -10.24182 -10.23886 -10.23618
 Alpha  occ. eigenvalues --  -10.20510 -10.19663 -10.18874 -10.18732  -1.06133
 Alpha  occ. eigenvalues --   -1.01532  -0.86489  -0.73640  -0.73110  -0.69522
 Alpha  occ. eigenvalues --   -0.62783  -0.55440  -0.53481  -0.51517  -0.48326
 Alpha  occ. eigenvalues --   -0.46472  -0.44600  -0.43865  -0.42142  -0.40815
 Alpha  occ. eigenvalues --   -0.39741  -0.38509  -0.35776  -0.34882  -0.32623
 Alpha  occ. eigenvalues --   -0.29472  -0.27409  -0.25101  -0.22828
 Alpha virt. eigenvalues --    0.07120   0.07974   0.09872   0.10835   0.12383
 Alpha virt. eigenvalues --    0.12760   0.13370   0.14508   0.15278   0.16425
 Alpha virt. eigenvalues --    0.17605   0.18044   0.18538   0.19481   0.22076

 Mulliken charges:
               1
     1  C   -0.507874
     2  C    0.224100
     3  C   -0.282311
     4  C    0.020064
     5  O   -0.296152
     6  C   -0.015516
     7  C    0.227526
     8  C   -0.214590
     9  O   -0.410807
    10  H    0.119388
    11  H    0.122989
    12  H    0.128233
    13  H    0.098702
    14  H    0.101333
    15  H    0.092760
    16  H    0.102881
    17  H    0.113531
    18  H    0.090342
    19  H    0.285399
 Sum of Mulliken charges =   0.00000

 Dipole moment (field-independent basis, Debye):
    X=             -1.1593    Y=              1.6870    Z=              0.0152  Tot=              2.0470
 Quadrupole moment (field-independent basis, Debye-Ang):
   XX=            -58.6200   YY=            -55.1036   ZZ=            -49.5756
   XY=             -1.6783   XZ=              3.0658   YZ=              2.8029

  Exact polarizability:  79.987  -2.161  74.909   1.193   1.661  70.775
 Approx polarizability: 110.979  -3.229 108.963  -0.229  -1.509 110.887

                      1                      2                      3
                      A                      A                      A
 Frequencies --     90.5198               113.4520               199.3581
 Red. masses --      3.2265                 4.1700                 1.1300
 Frc consts  --      0.0156                 0.0316                 0.0265
 IR Inten    --      1.9225                 2.4244                 0.8156

                      4                      5                      6
                      A                      A                      A
 Frequencies --    204.9984               258.7767               285.2115
 Red. masses --      1.9086                 2.8460                 2.2411
 Frc consts  --      0.0473                 0.1123                 0.1074
 IR Inten    --      4.5105                 1.8107                17.6792

                      7                      8                      9
                      A                      A                      A
 Frequencies --    331.6094               409.9438               489.8060
 Red. masses --      1.2695                 2.4081                 3.4465
 Frc consts  --      0.0822                 0.2384                 0.4872
 IR Inten    --     78.8425                15.5408                 3.4108

                     10                     11                     12
                      A                      A                      A
 Frequencies --    552.1655               602.8945               650.7240
 Red. masses --      3.4656                 3.2516                 3.7449
 Frc consts  --      0.6225                 0.6964                 0.9343
 IR Inten    --      1.4115                 3.5481                 3.6130

                     13                     14                     15
                      A                      A                      A
 Frequencies --    740.4902               813.4280               861.3927
 Red. masses --      4.1760                 3.3577                 3.4878
 Frc consts  --      1.3491                 1.3090                 1.5248
 IR Inten    --     14.8373                15.0701                10.2372

                     16                     17                     18
                      A                      A                      A
 Frequencies --    880.4831               921.9752               930.2123
 Red. masses --      2.2001                 2.6101                 1.8291
 Frc consts  --      1.0049                 1.3072                 0.9325
 IR Inten    --      9.1955                24.0839                 0.9301

                     19                     20                     21
                      A                      A                      A
 Frequencies --    955.8210               975.9797              1008.4283
 Red. masses --      2.1157                 1.7683                 1.4590
 Frc consts  --      1.1388                 0.9924                 0.8742
 IR Inten    --     19.3064                 5.1288                 1.1895

                     22                     23                     24
                      A                      A                      A
 Frequencies --   1038.6388              1049.8867              1095.2862
 Red. masses --      2.8655                 3.9679                 1.9709
 Frc consts  --      1.8213                 2.5769                 1.3931
 IR Inten    --     46.3727                80.1267                 5.6714

                     25                     26                     27
                      A                      A                      A
 Frequencies --   1107.3279              1141.0289              1164.1374
 Red. masses --      1.9395                 1.5900                 1.7721
 Frc consts  --      1.4012                 1.2196                 1.4150
 IR Inten    --      0.4326                 8.5741                 0.3929

                     28                     29                     30
                      A                      A                      A
 Frequencies --   1200.8948              1229.1692              1231.0467
 Red. masses --      1.5209                 1.6473                 1.7616
 Frc consts  --      1.2923                 1.4663                 1.5729
 IR Inten    --      4.2337                 3.2692                12.7582

                     31                     32                     33
                      A                      A                      A
 Frequencies --   1247.7801              1295.5999              1341.4247
 Red. masses --      1.6061                 1.6530                 2.8597
 Frc consts  --      1.4733                 1.6348                 3.0318
 IR Inten    --     12.6872                16.8117                 0.8013

                     34                     35                     36
                      A                      A                      A
 Frequencies --   1360.1153              1415.6070              1420.1680
 Red. masses --      1.3003                 1.3057                 1.2611
 Frc consts  --      1.4172                 1.5417                 1.4986
 IR Inten    --      1.3517                 4.7607                62.7087

                     37                     38                     39
                      A                      A                      A
 Frequencies --   1455.1028              1485.7900              1490.1498
 Red. masses --      2.7237                 1.0597                 1.1572
 Frc consts  --      3.3977                 1.3783                 1.5139
 IR Inten    --     28.2448                 2.6165                 4.2511

                     40                     41                     42
                      A                      A                      A
 Frequencies --   1497.9047              1502.6182              2962.0363
 Red. masses --      1.1039                 1.1878                 1.0711
 Frc consts  --      1.4593                 1.5801                 5.5370
 IR Inten    --      1.3364                 2.9839                53.0591

                     43                     44                     45
                      A                      A                      A
 Frequencies --   3022.4112              3042.4397              3053.7347
 Red. masses --      1.0353                 1.0572                 1.0894
 Frc consts  --      5.5722                 5.7658                 5.9856
 IR Inten    --     36.7398                44.5231                29.1349

                     46                     47                     48
                      A                      A                      A
 Frequencies --   3083.8833              3089.7692              3104.3766
 Red. masses --      1.1012                 1.1002                 1.1074
 Frc consts  --      6.1701                 6.1883                 6.2876
 IR Inten    --     20.0053                21.0913                24.4588

                     49                     50                     51
                      A                      A                      A
 Frequencies --   3151.5992              3190.7502              3808.5954
 Red. masses --      1.0929                 1.0943                 1.0660
 Frc consts  --      6.3956                 6.5639                 9.1105
 IR Inten    --     31.3414                13.2692                14.8069

 - Thermochemistry -
 -------------------
 Temperature   298.150 Kelvin.  Pressure   1.00000 Atm.
 Atom     1 has atomic number  6 and mass  12.00000

 Molecular mass:   126.06808 amu.
 Principal axes and moments of inertia in atomic units:
                           1         2         3
     Eigenvalues --   741.707471193.875591515.84005
           X            0.99923  -0.03804   0.00973
           Y            0.03757   0.99832   0.04422
           Z           -0.01140  -0.04382   0.99897
 This molecule is an asymmetric top.
 Rotational symmetry number  1.
 Warning -- assumption of classical behavior for rotation
           may cause significant error
 Rotational temperatures (Kelvin)      0.11678     0.07255     0.05714
 Rotational constants (GHZ):           2.43323     1.51167     1.19059
 Zero-point vibrational energy     416042.9 (Joules/Mol)
                                   99.43664 (Kcal/Mol)
 Warning -- explicit consideration of  11 degrees of freedom as
           vibrations may cause significant error
 Vibrational temperatures:    130.24   163.23   286.83   294.95   372.32
          (Kelvin)            410.36   477.11   589.82   704.72   794.44
                              867.43   936.25  1065.40  1170.34  1239.35
                             1266.82  1326.52  1338.37  1375.21  1404.22
                             1450.90  1494.37  1510.55  1575.87  1593.20
                             1641.68  1674.93  1727.82  1768.50  1771.20
                             1795.27  1864.08  1930.01  1956.90  2036.74
                             2043.30  2093.57  2137.72  2143.99  2155.15
                             2161.93  4261.70  4348.57  4377.39  4393.64
                             4437.01  4445.48  4466.50  4534.44  4590.77
                             5479.71

 Zero-point correction=                           0.158462 (Hartree/Particle)
 Thermal correction to Energy=                    0.166972
 Thermal correction to Enthalpy=                  0.167916
 Thermal correction to Gibbs Free Energy=         0.125346
 Sum of electronic and zero-point Energies=           -422.955274
 Sum of electronic and thermal Energies=              -422.946765
 Sum of electronic and thermal Enthalpies=            -422.945820
 Sum of electronic and thermal Free Energies=         -422.988390

                     E (Thermal)             CV                S
                      KCal/Mol        Cal/Mol-Kelvin    Cal/Mol-Kelvin
 Total                  104.776             32.438             89.595
 Electronic               0.000              0.000              0.000
 Translational            0.889              2.981             40.409
 Rotational               0.889              2.981             28.686
 Vibrational            102.999             26.476             20.501
 Vibration     1          0.602              1.956              3.649
 Vibration     2          0.607              1.938              3.209
 Vibration     3          0.637              1.841              2.139
 Vibration     4          0.640              1.833              2.088
 Vibration     5          0.668              1.748              1.670
 Vibration     6          0.683              1.701              1.502
 Vibration     7          0.714              1.612              1.252
 Vibration     8          0.774              1.449              0.927
 Vibration     9          0.846              1.273              0.684
 Vibration    10          0.908              1.135              0.540
 Vibration    11          0.961              1.026              0.445

 Normal termination of Gaussian 09 at Tue Jan 28 10:05:01 2020.
