 Gaussian 09, Revision D.01,
 Gaussian 09:  ES64L-G09RevD.01 24-Apr-2013

 -----------------------------
 # b3lyp 6-31G(2df,p) opt Freq
 -----------------------------

 -----
 titel
 -----
 Symbolic Z-matrix:
 Charge =  0 Multiplicity = 1

 SCF Done:  E(RB3LYP) =  -423.183425651     A.U. after   13 cycles
 Optimization completed.
    -- Stationary point found.
 Normal termination of Gaussian 09 at Tue Jan 28 02:24:15 2020.

 ----------------------------------------------------------------------
 #N Geom=AllCheck Guess=TCheck SCRF=Check GenChk RB3LYP/6-31G(2df,p) Fr
 eq
 ----------------------------------------------------------------------

 Structure from the checkpoint file:  "/scratch/puck/g09_248b95dd-4712-432c-9333-9e048a4c3dec/Gau-76319.chk"
 -----
 titel
 -----
 Charge =  0 Multiplicity = 1

                         Standard orientation:
 ---------------------------------------------------------------------
 Center     Atomic      Atomic             Coordinates (Angstroms)
 Number     Number       Type             X           Y           Z
 ---------------------------------------------------------------------
      1          8           0       -2.682312   -0.480945    0.034016
      2          6           0       -1.344834   -0.328605   -0.372223
      3          6           0       -0.828779    1.085325   -0.754959
      4          6           0        0.475359    0.785944    0.016114
      5          8           0        0.891506    1.891061    0.793451
      6          6           0        1.601098    0.142652   -0.755479
      7          6           0        1.761840   -1.146509   -0.449235
      8          6           0        0.744978   -1.651980    0.554445
      9          6           0       -0.209409   -0.457786    0.691280
     10          1           0       -2.858698    0.166933    0.724378
     11          1           0       -1.203795   -1.048001   -1.184324
     12          1           0       -0.761112    1.343421   -1.814255
     13          1           0       -1.389742    1.866670   -0.230830
     14          1           0        1.719273    1.650236    1.224620
     15          1           0        2.215004    0.711517   -1.446327
     16          1           0        2.528660   -1.790658   -0.867916
     17          1           0        0.225314   -2.549035    0.193909
     18          1           0        1.227129   -1.938308    1.498833
     19          1           0       -0.577109   -0.267949    1.702528
 ---------------------------------------------------------------------

 SCF Done:  E(RB3LYP) =  -423.183425651     A.U. after    1 cycles

 The electronic state is 1-A.
 Alpha  occ. eigenvalues --  -19.13694 -19.13407 -10.23439 -10.22800 -10.19103
 Alpha  occ. eigenvalues --  -10.18812 -10.18100 -10.17742 -10.17432  -1.02196
 Alpha  occ. eigenvalues --   -1.01549  -0.85782  -0.77583  -0.71313  -0.64182
 Alpha  occ. eigenvalues --   -0.62865  -0.56546  -0.54312  -0.51780  -0.48886
 Alpha  occ. eigenvalues --   -0.45598  -0.44243  -0.42297  -0.41160  -0.39303
 Alpha  occ. eigenvalues --   -0.37752  -0.36702  -0.35145  -0.34403  -0.32344
 Alpha  occ. eigenvalues --   -0.30361  -0.26194  -0.25231  -0.24675
 Alpha virt. eigenvalues --    0.00866   0.08283   0.09330   0.10004   0.11613
 Alpha virt. eigenvalues --    0.13870   0.13950   0.14203   0.16146   0.17034
 Alpha virt. eigenvalues --    0.18495   0.18858   0.20889   0.22370   0.22817

 Mulliken charges:
               1
     1  O   -0.436607
     2  C    0.170129
     3  C   -0.328471
     4  C    0.402892
     5  O   -0.478977
     6  C   -0.176150
     7  C   -0.056388
     8  C   -0.292428
     9  C   -0.124469
    10  H    0.277231
    11  H    0.089501
    12  H    0.101404
    13  H    0.102472
    14  H    0.271995
    15  H    0.096238
    16  H    0.098279
    17  H    0.114423
    18  H    0.105332
    19  H    0.063595
 Sum of Mulliken charges =   0.00000

 Dipole moment (field-independent basis, Debye):
    X=              1.6732    Y=             -0.4028    Z=              0.6772  Tot=              1.8494
 Quadrupole moment (field-independent basis, Debye-Ang):
   XX=            -53.2155   YY=            -55.8472   ZZ=            -50.7073
   XY=             -3.8047   XZ=             -1.7090   YZ=             -0.2000

  Exact polarizability:  78.989  -4.837  82.481  -3.217  -3.192  66.276
 Approx polarizability: 107.585  -5.355 130.815  -3.692  -4.342 101.574

                      1                      2                      3
                      A                      A                      A
 Frequencies --     95.0788               224.7371               241.0493
 Red. masses --      3.7331                 2.9848                 2.7604
 Frc consts  --      0.0199                 0.0888                 0.0945
 IR Inten    --      1.0165                 1.3967                 2.2318

                      4                      5                      6
                      A                      A                      A
 Frequencies --    277.6252               326.3208               347.3896
 Red. masses --      1.7509                 1.3481                 1.6689
 Frc consts  --      0.0795                 0.0846                 0.1187
 IR Inten    --     24.7315                40.0694                67.2784

                      7                      8                      9
                      A                      A                      A
 Frequencies --    370.8127               400.5134               441.8318
 Red. masses --      2.1266                 3.2142                 2.5204
 Frc consts  --      0.1723                 0.3038                 0.2899
 IR Inten    --     48.5650                 4.5399                 1.3993

                     10                     11                     12
                      A                      A                      A
 Frequencies --    507.6040               600.5719               644.3995
 Red. masses --      2.3166                 3.8868                 3.3568
 Frc consts  --      0.3517                 0.8260                 0.8213
 IR Inten    --      4.2350                 6.0186                 4.0544

                     13                     14                     15
                      A                      A                      A
 Frequencies --    750.9713               768.5425               794.1831
 Red. masses --      3.1354                 1.9783                 2.0982
 Frc consts  --      1.0418                 0.6884                 0.7797
 IR Inten    --      7.4856                18.1870                 9.2107

                     16                     17                     18
                      A                      A                      A
 Frequencies --    873.2253               888.4407               922.1160
 Red. masses --      2.5846                 1.9925                 2.4546
 Frc consts  --      1.1612                 0.9266                 1.2297
 IR Inten    --      1.7014                 5.3349                 3.5146

                     19                     20                     21
                      A                      A                      A
 Frequencies --    951.3185               980.4582              1012.2018
 Red. masses --      2.2264                 1.2980                 2.5166
 Frc consts  --      1.1871                 0.7351                 1.5192
 IR Inten    --      1.8558                 0.5734                 9.9120

                     22                     23                     24
                      A                      A                      A
 Frequencies --   1025.3285              1043.9824              1060.0596
 Red. masses --      1.6431                 2.1476                 2.0575
 Frc consts  --      1.0177                 1.3791                 1.3622
 IR Inten    --      4.3736                16.5458                62.3969

                     25                     26                     27
                      A                      A                      A
 Frequencies --   1074.4477              1119.6201              1131.9330
 Red. masses --      1.8014                 1.3006                 1.7757
 Frc consts  --      1.2253                 0.9606                 1.3405
 IR Inten    --     85.4303                13.0506                75.1787

                     28                     29                     30
                      A                      A                      A
 Frequencies --   1177.1883              1182.7641              1230.5299
 Red. masses --      1.8670                 1.6307                 1.7486
 Frc consts  --      1.5244                 1.3441                 1.5600
 IR Inten    --     27.0461                21.0150                 8.8830

                     31                     32                     33
                      A                      A                      A
 Frequencies --   1247.9013              1258.9138              1284.7523
 Red. masses --      1.4207                 1.8093                 1.4236
 Frc consts  --      1.3035                 1.6895                 1.3844
 IR Inten    --     11.5810                68.4013                 1.4621

                     34                     35                     36
                      A                      A                      A
 Frequencies --   1314.0401              1344.4319              1356.9117
 Red. masses --      1.5516                 1.6029                 1.5686
 Frc consts  --      1.5785                 1.7070                 1.7017
 IR Inten    --      4.2935                 0.5815                15.3649

                     37                     38                     39
                      A                      A                      A
 Frequencies --   1389.0794              1437.0502              1474.2250
 Red. masses --      1.9341                 1.2275                 1.1411
 Frc consts  --      2.1988                 1.4935                 1.4612
 IR Inten    --     56.6880                61.7276                 2.7435

                     40                     41                     42
                      A                      A                      A
 Frequencies --   1479.4127              1669.3726              3014.6007
 Red. masses --      1.0939                 6.4128                 1.0621
 Frc consts  --      1.4106                10.5294                 5.6869
 IR Inten    --      2.6176                 3.6894                40.0336

                     43                     44                     45
                      A                      A                      A
 Frequencies --   3044.5854              3049.2443              3067.9685
 Red. masses --      1.0991                 1.0601                 1.0864
 Frc consts  --      6.0028                 5.8072                 6.0247
 IR Inten    --     15.7545                22.1444                13.0423

                     46                     47                     48
                      A                      A                      A
 Frequencies --   3087.6017              3112.8375              3173.9891
 Red. masses --      1.0871                 1.1059                 1.0843
 Frc consts  --      6.1061                 6.3135                 6.4360
 IR Inten    --     28.3593                27.8091                 6.7336

                     49                     50                     51
                      A                      A                      A
 Frequencies --   3198.8875              3795.5774              3806.9478
 Red. masses --      1.1035                 1.0658                 1.0659
 Frc consts  --      6.6528                 9.0467                 9.1013
 IR Inten    --     21.0934                13.5448                15.5120

 - Thermochemistry -
 -------------------
 Temperature   298.150 Kelvin.  Pressure   1.00000 Atm.
 Atom     1 has atomic number  8 and mass  15.99491

 Molecular mass:   126.06808 amu.
 Principal axes and moments of inertia in atomic units:
                           1         2         3
     Eigenvalues --   750.790611130.514871509.03325
           X            0.99853  -0.05400  -0.00555
           Y            0.05384   0.99821  -0.02589
           Z            0.00693   0.02556   0.99965
 This molecule is an asymmetric top.
 Rotational symmetry number  1.
 Warning -- assumption of classical behavior for rotation
           may cause significant error
 Rotational temperatures (Kelvin)      0.11536     0.07661     0.05740
 Rotational constants (GHZ):           2.40379     1.59639     1.19596
 Zero-point vibrational energy     419133.1 (Joules/Mol)
                                  100.17521 (Kcal/Mol)
 Warning -- explicit consideration of  11 degrees of freedom as
           vibrations may cause significant error
 Vibrational temperatures:    136.80   323.35   346.82   399.44   469.50
          (Kelvin)            499.82   533.52   576.25   635.70   730.33
                              864.09   927.15  1080.48  1105.76  1142.65
                             1256.37  1278.27  1326.72  1368.73  1410.66
                             1456.33  1475.22  1502.06  1525.19  1545.89
                             1610.88  1628.60  1693.71  1701.73  1770.46
                             1795.45  1811.29  1848.47  1890.61  1934.34
                             1952.29  1998.57  2067.59  2121.08  2128.54
                             2401.85  4337.33  4380.47  4387.18  4414.12
                             4442.36  4478.67  4566.66  4602.48  5460.98
                             5477.34

 Zero-point correction=                           0.159639 (Hartree/Particle)
 Thermal correction to Energy=                    0.167733
 Thermal correction to Enthalpy=                  0.168677
 Thermal correction to Gibbs Free Energy=         0.127410
 Sum of electronic and zero-point Energies=           -423.023786
 Sum of electronic and thermal Energies=              -423.015693
 Sum of electronic and thermal Enthalpies=            -423.014749
 Sum of electronic and thermal Free Energies=         -423.056015

                     E (Thermal)             CV                S
                      KCal/Mol        Cal/Mol-Kelvin    Cal/Mol-Kelvin
 Total                  105.254             32.557             86.853
 Electronic               0.000              0.000              0.000
 Translational            0.889              2.981             40.409
 Rotational               0.889              2.981             28.640
 Vibrational            103.476             26.595             17.805
 Vibration     1          0.603              1.953              3.553
 Vibration     2          0.649              1.803              1.921
 Vibration     3          0.658              1.778              1.795
 Vibration     4          0.679              1.715              1.548
 Vibration     5          0.710              1.623              1.278
 Vibration     6          0.725              1.581              1.178
 Vibration     7          0.743              1.532              1.076
 Vibration     8          0.766              1.469              0.961
 Vibration     9          0.802              1.379              0.821
 Vibration    10          0.863              1.233              0.639
 Vibration    11          0.959              1.031              0.449

 Normal termination of Gaussian 09 at Tue Jan 28 03:09:13 2020.
