 Gaussian 09, Revision D.01,
 Gaussian 09:  ES64L-G09RevD.01 24-Apr-2013

 -----------------------------
 # b3lyp 6-31G(2df,p) opt Freq
 -----------------------------

 -----
 titel
 -----
 Symbolic Z-matrix:
 Charge =  0 Multiplicity = 1

 SCF Done:  E(RB3LYP) =  -423.213771347     A.U. after   14 cycles
 Optimization completed.
    -- Stationary point found.
 Normal termination of Gaussian 09 at Tue Jan 28 11:44:49 2020.

 ----------------------------------------------------------------------
 #N Geom=AllCheck Guess=TCheck SCRF=Check GenChk RB3LYP/6-31G(2df,p) Fr
 eq
 ----------------------------------------------------------------------

 Structure from the checkpoint file:  "/scratch/puck/g09_2be8006b-d79c-4daa-910e-84db1a67b9b2/Gau-89531.chk"
 -----
 titel
 -----
 Charge =  0 Multiplicity = 1

                         Standard orientation:
 ---------------------------------------------------------------------
 Center     Atomic      Atomic             Coordinates (Angstroms)
 Number     Number       Type             X           Y           Z
 ---------------------------------------------------------------------
      1          6           0        3.125893   -0.244127   -0.357749
      2          8           0        1.973518   -0.684857    0.326186
      3          6           0        0.755487   -0.150362   -0.154732
      4          6           0        0.533575    1.307931    0.281592
      5          6           0       -0.871680    1.763642    0.000737
      6          6           0       -1.903598    0.924703   -0.155421
      7          6           0       -1.752711   -0.541770   -0.031267
      8          8           0       -2.683525   -1.300469   -0.210836
      9          6           0       -0.369044   -1.039610    0.372866
     10          1           0        3.326003    0.826573   -0.206517
     11          1           0        3.970370   -0.811681    0.040327
     12          1           0        3.050935   -0.432495   -1.439928
     13          1           0        0.749954   -0.184359   -1.258010
     14          1           0        0.742953    1.384788    1.358871
     15          1           0        1.243403    1.979409   -0.213627
     16          1           0       -1.035619    2.836066   -0.077463
     17          1           0       -2.906258    1.279845   -0.371072
     18          1           0       -0.320163   -1.046228    1.470967
     19          1           0       -0.249061   -2.071752    0.037489
 ---------------------------------------------------------------------

 SCF Done:  E(RB3LYP) =  -423.213771347     A.U. after    1 cycles

 The electronic state is 1-A.
 Alpha  occ. eigenvalues --  -19.14766 -19.11998 -10.26324 -10.24584 -10.23162
 Alpha  occ. eigenvalues --  -10.21617 -10.20173 -10.19260 -10.18660  -1.04136
 Alpha  occ. eigenvalues --   -1.02946  -0.84117  -0.76426  -0.73041  -0.68738
 Alpha  occ. eigenvalues --   -0.61465  -0.59402  -0.52738  -0.50158  -0.48292
 Alpha  occ. eigenvalues --   -0.47451  -0.45119  -0.43560  -0.43107  -0.41709
 Alpha  occ. eigenvalues --   -0.40781  -0.38939  -0.37298  -0.35918  -0.34254
 Alpha  occ. eigenvalues --   -0.31707  -0.27403  -0.26312  -0.24047
 Alpha virt. eigenvalues --   -0.05068   0.05903   0.07664   0.09812   0.12390
 Alpha virt. eigenvalues --    0.13101   0.13562   0.14863   0.15387   0.16074
 Alpha virt. eigenvalues --    0.16956   0.18866   0.20517   0.20837   0.22054

 Mulliken charges:
               1
     1  C   -0.244417
     2  O   -0.243288
     3  C    0.111411
     4  C   -0.280066
     5  C   -0.054453
     6  C   -0.138378
     7  C    0.363153
     8  O   -0.330916
     9  C   -0.327598
    10  H    0.107270
    11  H    0.132468
    12  H    0.108328
    13  H    0.075426
    14  H    0.130341
    15  H    0.111991
    16  H    0.110654
    17  H    0.108764
    18  H    0.130490
    19  H    0.128820
 Sum of Mulliken charges =   0.00000

 Dipole moment (field-independent basis, Debye):
    X=              2.7904    Y=              2.9370    Z=             -0.2611  Tot=              4.0596
 Quadrupole moment (field-independent basis, Debye-Ang):
   XX=            -58.2449   YY=            -53.2058   ZZ=            -52.9370
   XY=             -4.6967   XZ=             -2.7471   YZ=             -0.0205

  Exact polarizability:  99.000   7.108  83.424   2.954   0.643  55.814
 Approx polarizability: 137.415  25.972 131.178   8.432   2.775  89.432

                      1                      2                      3
                      A                      A                      A
 Frequencies --     70.0669               111.0238               122.3053
 Red. masses --      2.5174                 2.8602                 2.2592
 Frc consts  --      0.0073                 0.0208                 0.0199
 IR Inten    --      0.7325                 3.1923                 0.6967

                      4                      5                      6
                      A                      A                      A
 Frequencies --    185.5127               256.5989               313.4963
 Red. masses --      1.4393                 3.0675                 2.6076
 Frc consts  --      0.0292                 0.1190                 0.1510
 IR Inten    --      0.5592                 4.9283                 0.7769

                      7                      8                      9
                      A                      A                      A
 Frequencies --    354.8283               425.8731               445.9714
 Red. masses --      3.7965                 3.4109                 4.3796
 Frc consts  --      0.2816                 0.3645                 0.5132
 IR Inten    --      0.4950                 5.5345                13.4800

                     10                     11                     12
                      A                      A                      A
 Frequencies --    465.1507               529.8778               610.0030
 Red. masses --      4.1079                 2.7667                 2.4032
 Frc consts  --      0.5237                 0.4577                 0.5269
 IR Inten    --      1.9994                 3.9924                 2.2885

                     13                     14                     15
                      A                      A                      A
 Frequencies --    702.0270               761.2788               826.2831
 Red. masses --      4.4699                 1.3535                 2.8912
 Frc consts  --      1.2979                 0.4621                 1.1630
 IR Inten    --      1.0712                17.5985                 2.4916

                     16                     17                     18
                      A                      A                      A
 Frequencies --    899.9198               920.6383               965.6534
 Red. masses --      1.6883                 3.2192                 2.1689
 Frc consts  --      0.8056                 1.6076                 1.1916
 IR Inten    --      8.4907                 6.5737                 6.4329

                     19                     20                     21
                      A                      A                      A
 Frequencies --   1012.0788              1025.6140              1054.2515
 Red. masses --      3.1157                 1.3779                 2.2855
 Frc consts  --      1.8803                 0.8540                 1.4966
 IR Inten    --     13.1145                 2.2122                 3.5916

                     22                     23                     24
                      A                      A                      A
 Frequencies --   1101.6704              1140.3816              1145.4448
 Red. masses --      2.0998                 1.3667                 3.4371
 Frc consts  --      1.5015                 1.0472                 2.6570
 IR Inten    --      4.4979                13.7618               177.3246

                     25                     26                     27
                      A                      A                      A
 Frequencies --   1181.1131              1185.5346              1217.8590
 Red. masses --      1.2779                 1.3570                 1.5255
 Frc consts  --      1.0503                 1.1237                 1.3330
 IR Inten    --      2.5575                 3.0409                40.1702

                     28                     29                     30
                      A                      A                      A
 Frequencies --   1248.7506              1261.7897              1291.1055
 Red. masses --      1.7464                 1.5231                 1.8108
 Frc consts  --      1.6045                 1.4288                 1.7785
 IR Inten    --     24.9297                11.3871                28.8022

                     31                     32                     33
                      A                      A                      A
 Frequencies --   1331.0716              1376.1226              1399.7148
 Red. masses --      1.4126                 1.4263                 1.4353
 Frc consts  --      1.4746                 1.5913                 1.6568
 IR Inten    --      2.5183                21.2469                40.4067

                     34                     35                     36
                      A                      A                      A
 Frequencies --   1405.1801              1460.5185              1475.5923
 Red. masses --      1.6326                 1.0887                 1.0999
 Frc consts  --      1.8993                 1.3683                 1.4110
 IR Inten    --     12.2167                 3.7097                 0.8225

                     37                     38                     39
                      A                      A                      A
 Frequencies --   1480.3095              1493.0881              1510.1522
 Red. masses --      1.1054                 1.0863                 1.0625
 Frc consts  --      1.4272                 1.4269                 1.4276
 IR Inten    --      7.1199                 1.8260                 8.3790

                     40                     41                     42
                      A                      A                      A
 Frequencies --   1681.1703              1780.4423              2953.5604
 Red. masses --      6.6602                11.6155                 1.0808
 Frc consts  --     11.0908                21.6942                 5.5553
 IR Inten    --     20.1327               233.1957                27.0224

                     43                     44                     45
                      A                      A                      A
 Frequencies --   2979.9674              3009.3072              3025.8739
 Red. masses --      1.0382                 1.0670                 1.0676
 Frc consts  --      5.4319                 5.6929                 5.7594
 IR Inten    --     56.2597                10.6250                 9.7976

                     46                     47                     48
                      A                      A                      A
 Frequencies --   3028.4377              3065.0089              3115.8489
 Red. masses --      1.1024                 1.0929                 1.0948
 Frc consts  --      5.9569                 6.0490                 6.2626
 IR Inten    --     53.0596                25.9633                10.0868

                     49                     50                     51
                      A                      A                      A
 Frequencies --   3116.0763              3153.4247              3191.9768
 Red. masses --      1.0954                 1.0871                 1.0953
 Frc consts  --      6.2668                 6.3692                 6.5753
 IR Inten    --     26.9319                12.1585                10.8165

 - Thermochemistry -
 -------------------
 Temperature   298.150 Kelvin.  Pressure   1.00000 Atm.
 Atom     1 has atomic number  6 and mass  12.00000

 Molecular mass:   126.06808 amu.
 Principal axes and moments of inertia in atomic units:
                           1         2         3
     Eigenvalues --   563.148211641.097682096.60773
           X            0.99986  -0.01311  -0.01034
           Y            0.01310   0.99991  -0.00139
           Z            0.01036   0.00126   0.99995
 This molecule is an asymmetric top.
 Rotational symmetry number  1.
 Warning -- assumption of classical behavior for rotation
           may cause significant error
 Rotational temperatures (Kelvin)      0.15380     0.05278     0.04131
 Rotational constants (GHZ):           3.20474     1.09972     0.86079
 Zero-point vibrational energy     417885.2 (Joules/Mol)
                                   99.87695 (Kcal/Mol)
 Warning -- explicit consideration of  12 degrees of freedom as
           vibrations may cause significant error
 Vibrational temperatures:    100.81   159.74   175.97   266.91   369.19
          (Kelvin)            451.05   510.52   612.74   641.65   669.25
                              762.38   877.66  1010.06  1095.31  1188.84
                             1294.78  1324.59  1389.36  1456.15  1475.63
                             1516.83  1585.06  1640.75  1648.04  1699.36
                             1705.72  1752.23  1796.67  1815.43  1857.61
                             1915.11  1979.93  2013.87  2021.74  2101.36
                             2123.05  2129.83  2148.22  2172.77  2418.83
                             2561.66  4249.51  4287.50  4329.72  4353.55
                             4357.24  4409.86  4483.01  4483.33  4537.07
                             4592.54

 Zero-point correction=                           0.159164 (Hartree/Particle)
 Thermal correction to Energy=                    0.167916
 Thermal correction to Enthalpy=                  0.168860
 Thermal correction to Gibbs Free Energy=         0.125282
 Sum of electronic and zero-point Energies=           -423.054607
 Sum of electronic and thermal Energies=              -423.045856
 Sum of electronic and thermal Enthalpies=            -423.044912
 Sum of electronic and thermal Free Energies=         -423.088490

                     E (Thermal)             CV                S
                      KCal/Mol        Cal/Mol-Kelvin    Cal/Mol-Kelvin
 Total                  105.369             32.319             91.718
 Electronic               0.000              0.000              0.000
 Translational            0.889              2.981             40.409
 Rotational               0.889              2.981             29.051
 Vibrational            103.591             26.358             22.259
 Vibration     1          0.598              1.968              4.151
 Vibration     2          0.607              1.940              3.251
 Vibration     3          0.610              1.931              3.064
 Vibration     4          0.632              1.860              2.272
 Vibration     5          0.666              1.752              1.685
 Vibration     6          0.701              1.648              1.344
 Vibration     7          0.731              1.565              1.145
 Vibration     8          0.788              1.414              0.872
 Vibration     9          0.805              1.370              0.808
 Vibration    10          0.823              1.327              0.751
 Vibration    11          0.885              1.184              0.587
 Vibration    12          0.969              1.011              0.433

 Optimization completed.
    -- Stationary point found.
 Normal termination of Gaussian 09 at Tue Jan 28 13:14:13 2020.
