 Gaussian 09, Revision D.01,
 Gaussian 09:  ES64L-G09RevD.01 24-Apr-2013

 -----------------------------
 # b3lyp 6-31G(2df,p) opt Freq
 -----------------------------

 -----
 titel
 -----
 Symbolic Z-matrix:
 Charge =  0 Multiplicity = 1

 SCF Done:  E(RB3LYP) =  -423.213617584     A.U. after   14 cycles
 Optimization completed.
    -- Stationary point found.
 Normal termination of Gaussian 09 at Mon Jan 27 13:40:29 2020.

 ----------------------------------------------------------------------
 #N Geom=AllCheck Guess=TCheck SCRF=Check GenChk RB3LYP/6-31G(2df,p) Fr
 eq
 ----------------------------------------------------------------------

 Structure from the checkpoint file:  "/scratch/puck/g09_16c2f9b7-5642-43dd-8830-23ab04cab9b8/Gau-46982.chk"
 -----
 titel
 -----
 Charge =  0 Multiplicity = 1

                         Standard orientation:
 ---------------------------------------------------------------------
 Center     Atomic      Atomic             Coordinates (Angstroms)
 Number     Number       Type             X           Y           Z
 ---------------------------------------------------------------------
      1          8           0       -2.739112    0.989120   -0.559197
      2          6           0       -2.720578   -0.088377   -0.032712
      3          8           0       -1.632619   -0.832222    0.224107
      4          6           0       -0.382711   -0.270440   -0.159570
      5          6           0        0.798831   -1.089557    0.257507
      6          6           0        2.089030   -0.910298   -0.530670
      7          6           0        2.272231    0.622833   -0.649035
      8          6           0        1.583961    1.222362    0.602441
      9          6           0        0.489743    0.226519    0.958996
     10          1           0       -3.607295   -0.642119    0.312849
     11          1           0       -0.429616    0.246775   -1.110849
     12          1           0        0.589527   -2.038074    0.739002
     13          1           0        2.913655   -1.354064    0.039335
     14          1           0        2.071793   -1.401430   -1.509372
     15          1           0        3.323112    0.912350   -0.726485
     16          1           0        1.779717    0.988232   -1.555860
     17          1           0        2.290740    1.285376    1.438189
     18          1           0        1.205152    2.233304    0.420556
     19          1           0        0.054022    0.236215    1.951608
 ---------------------------------------------------------------------

 SCF Done:  E(RB3LYP) =  -423.213617584     A.U. after    1 cycles

 The electronic state is 1-A.
 Alpha  occ. eigenvalues --  -19.19133 -19.13209 -10.30705 -10.24271 -10.19334
 Alpha  occ. eigenvalues --  -10.19252 -10.18787 -10.18655 -10.18525  -1.10667
 Alpha  occ. eigenvalues --   -1.02271  -0.88687  -0.76966  -0.71275  -0.67031
 Alpha  occ. eigenvalues --   -0.59859  -0.56462  -0.55775  -0.52106  -0.48972
 Alpha  occ. eigenvalues --   -0.46943  -0.46125  -0.45120  -0.43162  -0.41074
 Alpha  occ. eigenvalues --   -0.37674  -0.36075  -0.34706  -0.34372  -0.34048
 Alpha  occ. eigenvalues --   -0.33295  -0.28269  -0.27530  -0.26549
 Alpha virt. eigenvalues --    0.00970   0.07923   0.09473   0.12699   0.13551
 Alpha virt. eigenvalues --    0.13821   0.14010   0.15023   0.16102   0.16878
 Alpha virt. eigenvalues --    0.17776   0.18824   0.19813   0.20550   0.21700

 Mulliken charges:
               1
     1  O   -0.299817
     2  C    0.171399
     3  O   -0.220007
     4  C    0.124166
     5  C   -0.087142
     6  C   -0.219608
     7  C   -0.225689
     8  C   -0.217117
     9  C   -0.071184
    10  H    0.108869
    11  H    0.119806
    12  H    0.094698
    13  H    0.103914
    14  H    0.102022
    15  H    0.100840
    16  H    0.111477
    17  H    0.103059
    18  H    0.108410
    19  H    0.091904
 Sum of Mulliken charges =   0.00000

 Dipole moment (field-independent basis, Debye):
    X=              1.6208    Y=             -1.2224    Z=              0.7106  Tot=              2.1509
 Quadrupole moment (field-independent basis, Debye-Ang):
   XX=            -52.8195   YY=            -55.3245   ZZ=            -52.1643
   XY=              4.6881   XZ=             -2.4622   YZ=              1.0972

  Exact polarizability:  92.425  -0.530  72.201  -1.016  -1.346  64.038
 Approx polarizability: 114.870  -4.554 113.650   2.087  -6.047  98.940

                      1                      2                      3
                      A                      A                      A
 Frequencies --     23.7241               123.0326               198.4120
 Red. masses --      5.4301                 5.0736                 2.7190
 Frc consts  --      0.0018                 0.0452                 0.0631
 IR Inten    --      1.1845                 2.7195                 4.2247

                      4                      5                      6
                      A                      A                      A
 Frequencies --    236.5137               270.5088               330.0364
 Red. masses --      1.8312                 2.4038                 3.2470
 Frc consts  --      0.0604                 0.1036                 0.2084
 IR Inten    --      1.7856                 0.9101                 6.7227

                      7                      8                      9
                      A                      A                      A
 Frequencies --    356.8469               433.2243               631.7499
 Red. masses --      3.3061                 3.9513                 1.9719
 Frc consts  --      0.2480                 0.4369                 0.4637
 IR Inten    --      3.4949                 8.9645                 1.6360

                     10                     11                     12
                      A                      A                      A
 Frequencies --    634.0417               764.6259               814.4439
 Red. masses --      3.3845                 5.4263                 1.6737
 Frc consts  --      0.8017                 1.8692                 0.6541
 IR Inten    --      0.5060                 2.9261                 6.5099

                     13                     14                     15
                      A                      A                      A
 Frequencies --    852.6574               869.4550               882.2009
 Red. masses --      2.8069                 2.0694                 2.2562
 Frc consts  --      1.2023                 0.9217                 1.0346
 IR Inten    --      2.5842                 2.5877                 6.0855

                     16                     17                     18
                      A                      A                      A
 Frequencies --    910.0389               930.2033               977.5155
 Red. masses --      2.4432                 1.9642                 1.9964
 Frc consts  --      1.1921                 1.0014                 1.1240
 IR Inten    --      4.0872                 8.6994                 5.8963

                     19                     20                     21
                      A                      A                      A
 Frequencies --   1015.2186              1030.6973              1040.5297
 Red. masses --      1.7285                 1.7131                 1.6510
 Frc consts  --      1.0496                 1.0722                 1.0532
 IR Inten    --      1.2800                 0.4887                 0.3814

                     22                     23                     24
                      A                      A                      A
 Frequencies --   1063.9880              1070.1746              1099.5837
 Red. masses --      1.6514                 1.3918                 1.6480
 Frc consts  --      1.1015                 0.9391                 1.1740
 IR Inten    --      1.3318                 5.0847                 0.0399

                     25                     26                     27
                      A                      A                      A
 Frequencies --   1111.8797              1182.7039              1195.6602
 Red. masses --      2.0320                 1.3859                 1.7565
 Frc consts  --      1.4801                 1.1422                 1.4795
 IR Inten    --      3.2608                 0.8816                31.7288

                     28                     29                     30
                      A                      A                      A
 Frequencies --   1198.1948              1216.1982              1260.7108
 Red. masses --      1.5184                 7.2287                 1.2424
 Frc consts  --      1.2843                 6.2997                 1.1634
 IR Inten    --      0.7020               400.5153                 0.2967

                     31                     32                     33
                      A                      A                      A
 Frequencies --   1294.0123              1305.4829              1329.8080
 Red. masses --      1.6237                 1.4107                 1.3321
 Frc consts  --      1.6019                 1.4165                 1.3880
 IR Inten    --      1.1449                 0.1927                 1.0992

                     34                     35                     36
                      A                      A                      A
 Frequencies --   1348.8835              1351.5667              1409.9048
 Red. masses --      1.3683                 1.4691                 1.1459
 Frc consts  --      1.4668                 1.5812                 1.3421
 IR Inten    --      6.1147                 0.2255                 1.3051

                     37                     38                     39
                      A                      A                      A
 Frequencies --   1449.1111              1490.2483              1495.4070
 Red. masses --      2.4508                 1.0911                 1.0831
 Frc consts  --      3.0322                 1.4277                 1.4271
 IR Inten    --     10.0755                 1.0418                 1.8766

                     40                     41                     42
                      A                      A                      A
 Frequencies --   1513.8107              1823.6000              3029.6817
 Red. masses --      1.1017                 9.5451                 1.0905
 Frc consts  --      1.4875                18.7020                 5.8973
 IR Inten    --      1.6626               285.7273                74.3714

                     43                     44                     45
                      A                      A                      A
 Frequencies --   3034.9253              3036.8467              3052.1590
 Red. masses --      1.0604                 1.0621                 1.0706
 Frc consts  --      5.7546                 5.7714                 5.8760
 IR Inten    --     52.3711                22.4736                 9.1157

                     46                     47                     48
                      A                      A                      A
 Frequencies --   3075.4526              3078.9723              3103.5688
 Red. masses --      1.1006                 1.0952                 1.1038
 Frc consts  --      6.1332                 6.1171                 6.2642
 IR Inten    --     22.0404                31.3461                44.3968

                     49                     50                     51
                      A                      A                      A
 Frequencies --   3175.1675              3178.3577              3184.0053
 Red. masses --      1.0886                 1.0919                 1.0894
 Frc consts  --      6.4661                 6.4991                 6.5068
 IR Inten    --      6.6986                 1.9547                14.6224

 - Thermochemistry -
 -------------------
 Temperature   298.150 Kelvin.  Pressure   1.00000 Atm.
 Atom     1 has atomic number  8 and mass  15.99491

 Molecular mass:   126.06808 amu.
 Principal axes and moments of inertia in atomic units:
                           1         2         3
     Eigenvalues --   485.839941782.060721954.10566
           X            0.99986   0.01293  -0.01061
           Y           -0.01269   0.99967   0.02215
           Z            0.01089  -0.02201   0.99970
 This molecule is an asymmetric top.
 Rotational symmetry number  1.
 Warning -- assumption of classical behavior for rotation
           may cause significant error
 Rotational temperatures (Kelvin)      0.17828     0.04860     0.04432
 Rotational constants (GHZ):           3.71468     1.01273     0.92356
 Zero-point vibrational energy     421598.4 (Joules/Mol)
                                  100.76443 (Kcal/Mol)
 Warning -- explicit consideration of   8 degrees of freedom as
           vibrations may cause significant error
 Vibrational temperatures:     34.13   177.02   285.47   340.29   389.20
          (Kelvin)            474.85   513.42   623.31   908.95   912.24
                             1100.12  1171.80  1226.78  1250.95  1269.29
                             1309.34  1338.35  1406.42  1460.67  1482.94
                             1497.09  1530.84  1539.74  1582.05  1599.74
                             1701.64  1720.29  1723.93  1749.84  1813.88
                             1861.79  1878.30  1913.29  1940.74  1944.60
                             2028.54  2084.95  2144.13  2151.55  2178.03
                             2623.75  4359.03  4366.58  4369.34  4391.37
                             4424.88  4429.95  4465.34  4568.35  4572.94
                             4581.07

 Zero-point correction=                           0.160578 (Hartree/Particle)
 Thermal correction to Energy=                    0.168674
 Thermal correction to Enthalpy=                  0.169618
 Thermal correction to Gibbs Free Energy=         0.126640
 Sum of electronic and zero-point Energies=           -423.053039
 Sum of electronic and thermal Energies=              -423.044943
 Sum of electronic and thermal Enthalpies=            -423.043999
 Sum of electronic and thermal Free Energies=         -423.086978

                     E (Thermal)             CV                S
                      KCal/Mol        Cal/Mol-Kelvin    Cal/Mol-Kelvin
 Total                  105.845             30.379             90.456
 Electronic               0.000              0.000              0.000
 Translational            0.889              2.981             40.409
 Rotational               0.889              2.981             28.916
 Vibrational            104.067             24.418             21.131
 Vibration     1          0.593              1.985              6.295
 Vibration     2          0.610              1.930              3.052
 Vibration     3          0.637              1.842              2.148
 Vibration     4          0.655              1.785              1.829
 Vibration     5          0.674              1.728              1.593
 Vibration     6          0.713              1.616              1.260
 Vibration     7          0.732              1.561              1.136
 Vibration     8          0.794              1.398              0.848

 Normal termination of Gaussian 09 at Mon Jan 27 14:19:23 2020.
