 Gaussian 09, Revision D.01,
 Gaussian 09:  ES64L-G09RevD.01 24-Apr-2013

 -----------------------------
 # b3lyp 6-31G(2df,p) opt Freq
 -----------------------------

 -----
 titel
 -----
 Symbolic Z-matrix:
 Charge =  0 Multiplicity = 1

 SCF Done:  E(RB3LYP) =  -423.133655313     A.U. after   12 cycles
 Optimization completed.
    -- Stationary point found.
 Normal termination of Gaussian 09 at Tue Jan 28 02:56:02 2020.

 ----------------------------------------------------------------------
 #N Geom=AllCheck Guess=TCheck SCRF=Check GenChk RB3LYP/6-31G(2df,p) Fr
 eq
 ----------------------------------------------------------------------

 Structure from the checkpoint file:  "/scratch/puck/g09_da223316-3544-4e28-bd28-3b4907daccb5/Gau-89754.chk"
 -----
 titel
 -----
 Charge =  0 Multiplicity = 1

                         Standard orientation:
 ---------------------------------------------------------------------
 Center     Atomic      Atomic             Coordinates (Angstroms)
 Number     Number       Type             X           Y           Z
 ---------------------------------------------------------------------
      1          8           0        2.573037    0.740330    0.496912
      2          6           0        1.410898    0.406034   -0.238068
      3          6           0        1.329103   -1.079436   -0.703635
      4          6           0        0.095959   -1.312221    0.205414
      5          6           0       -1.233194   -0.954259   -0.447341
      6          6           0       -2.193784   -0.438849    0.601955
      7          6           0       -1.124987    0.477004    0.073021
      8          8           0       -1.418029    1.634719   -0.629861
      9          6           0        0.220569    0.184333    0.722784
     10          1           0        3.308564    0.794909   -0.121993
     11          1           0        1.210507    1.151835   -1.017712
     12          1           0        1.182066   -1.263169   -1.772052
     13          1           0        2.208858   -1.630745   -0.361665
     14          1           0        0.113505   -2.179421    0.868761
     15          1           0       -1.579490   -1.303093   -1.413681
     16          1           0       -3.186489   -0.211100    0.226479
     17          1           0       -2.167305   -0.823912    1.619382
     18          1           0       -1.754791    2.289734   -0.008210
     19          1           0        0.397126    0.478931    1.759509
 ---------------------------------------------------------------------

 SCF Done:  E(RB3LYP) =  -423.133655313     A.U. after    1 cycles

 The electronic state is 1-A.
 Alpha  occ. eigenvalues --  -19.14668 -19.13097 -10.23663 -10.22313 -10.18738
 Alpha  occ. eigenvalues --  -10.18677 -10.18275 -10.17923 -10.17321  -1.03247
 Alpha  occ. eigenvalues --   -1.01297  -0.89482  -0.79317  -0.67381  -0.65127
 Alpha  occ. eigenvalues --   -0.59409  -0.58279  -0.52903  -0.50891  -0.49765
 Alpha  occ. eigenvalues --   -0.48101  -0.44867  -0.42840  -0.41508  -0.38849
 Alpha  occ. eigenvalues --   -0.37812  -0.35270  -0.33101  -0.32383  -0.30667
 Alpha  occ. eigenvalues --   -0.29966  -0.26107  -0.25011  -0.24210
 Alpha virt. eigenvalues --    0.07927   0.08024   0.11041   0.11444   0.12011
 Alpha virt. eigenvalues --    0.12459   0.14544   0.15276   0.16536   0.18302
 Alpha virt. eigenvalues --    0.18314   0.18959   0.20150   0.21761   0.23458

 Mulliken charges:
               1
     1  O   -0.444631
     2  C    0.128416
     3  C   -0.272857
     4  C   -0.022473
     5  C   -0.109849
     6  C   -0.360264
     7  C    0.405797
     8  O   -0.465154
     9  C   -0.132629
    10  H    0.279760
    11  H    0.076281
    12  H    0.091897
    13  H    0.100087
    14  H    0.066833
    15  H    0.089347
    16  H    0.112266
    17  H    0.103185
    18  H    0.285973
    19  H    0.068015
 Sum of Mulliken charges =   0.00000

 Dipole moment (field-independent basis, Debye):
    X=             -0.2085    Y=              0.0123    Z=             -0.1894  Tot=              0.2820
 Quadrupole moment (field-independent basis, Debye-Ang):
   XX=            -48.5759   YY=            -51.5945   ZZ=            -54.0546
   XY=             -1.9625   XZ=             -5.6209   YZ=              1.3994

  Exact polarizability:  86.783  -0.408  72.508  -3.008   1.314  66.299
 Approx polarizability: 112.717  -0.410 110.029  -2.113   2.822 104.164

                      1                      2                      3
                      A                      A                      A
 Frequencies --     91.9965               179.9166               242.7075
 Red. masses --      3.3842                 3.2147                 2.2239
 Frc consts  --      0.0169                 0.0613                 0.0772
 IR Inten    --      0.2293                 9.7553                30.5987

                      4                      5                      6
                      A                      A                      A
 Frequencies --    269.7680               287.0692               324.8767
 Red. masses --      1.0975                 1.9611                 2.2231
 Frc consts  --      0.0471                 0.0952                 0.1382
 IR Inten    --     68.7944                64.8840                29.8868

                      7                      8                      9
                      A                      A                      A
 Frequencies --    408.1326               420.9700               464.2075
 Red. masses --      3.3055                 2.6498                 2.2885
 Frc consts  --      0.3244                 0.2767                 0.2906
 IR Inten    --      6.5306                12.6657                 6.4447

                     10                     11                     12
                      A                      A                      A
 Frequencies --    498.6059               575.1386               731.6002
 Red. masses --      4.1438                 3.3897                 2.7036
 Frc consts  --      0.6070                 0.6606                 0.8526
 IR Inten    --      7.2135                 3.2927                 2.1760

                     13                     14                     15
                      A                      A                      A
 Frequencies --    808.0158               811.5730               827.1593
 Red. masses --      2.2642                 2.2827                 2.4948
 Frc consts  --      0.8710                 0.8859                 1.0057
 IR Inten    --      0.4437                 3.4146                 3.6076

                     16                     17                     18
                      A                      A                      A
 Frequencies --    864.3624               897.5423               933.1702
 Red. masses --      3.1361                 2.4777                 1.6069
 Frc consts  --      1.3805                 1.1760                 0.8244
 IR Inten    --     19.9452                21.5005                 5.2560

                     19                     20                     21
                      A                      A                      A
 Frequencies --    968.2969               982.2609              1004.8563
 Red. masses --      1.7292                 2.0205                 1.6213
 Frc consts  --      0.9552                 1.1486                 0.9646
 IR Inten    --      3.0980                23.0456                 0.9077

                     22                     23                     24
                      A                      A                      A
 Frequencies --   1021.6854              1053.3122              1069.9756
 Red. masses --      1.9236                 1.4691                 2.1012
 Frc consts  --      1.1830                 0.9603                 1.4173
 IR Inten    --      8.0990                 5.2461                27.6535

                     25                     26                     27
                      A                      A                      A
 Frequencies --   1087.6489              1120.6281              1135.8957
 Red. masses --      1.8283                 2.7879                 1.6320
 Frc consts  --      1.2743                 2.0628                 1.2406
 IR Inten    --      8.5725                45.4766                10.0096

                     28                     29                     30
                      A                      A                      A
 Frequencies --   1161.6608              1189.9033              1214.2057
 Red. masses --      1.3931                 1.4922                 1.2236
 Frc consts  --      1.1076                 1.2448                 1.0628
 IR Inten    --      7.5113                 5.8847                 9.6999

                     31                     32                     33
                      A                      A                      A
 Frequencies --   1231.2917              1253.6028              1256.9304
 Red. masses --      1.5621                 1.5827                 1.9031
 Frc consts  --      1.3954                 1.4654                 1.7715
 IR Inten    --     17.8324                 0.5550                47.1554

                     34                     35                     36
                      A                      A                      A
 Frequencies --   1283.1538              1306.1019              1318.9599
 Red. masses --      1.4161                 2.6998                 1.5619
 Frc consts  --      1.3737                 2.7135                 1.6009
 IR Inten    --     61.3969                23.1262                38.2687

                     37                     38                     39
                      A                      A                      A
 Frequencies --   1338.1643              1392.3610              1427.7558
 Red. masses --      1.7423                 2.1126                 1.3924
 Frc consts  --      1.8382                 2.4131                 1.6723
 IR Inten    --     29.5762                27.0631                 9.0433

                     40                     41                     42
                      A                      A                      A
 Frequencies --   1468.9101              1491.6283              3017.8807
 Red. masses --      1.1279                 1.4103                 1.0851
 Frc consts  --      1.4339                 1.8488                 5.8226
 IR Inten    --      2.6090                10.8986                38.8392

                     43                     44                     45
                      A                      A                      A
 Frequencies --   3050.4208              3078.7906              3091.2828
 Red. masses --      1.0591                 1.0870                 1.0900
 Frc consts  --      5.8063                 6.0706                 6.1370
 IR Inten    --     38.5885                39.2226                26.8392

                     46                     47                     48
                      A                      A                      A
 Frequencies --   3101.9001              3110.7177              3175.7524
 Red. masses --      1.0572                 1.1063                 1.0938
 Frc consts  --      5.9933                 6.3075                 6.4994
 IR Inten    --     22.9999                30.7536                12.7615

                     49                     50                     51
                      A                      A                      A
 Frequencies --   3201.1440              3789.5559              3810.1753
 Red. masses --      1.1114                 1.0661                 1.0660
 Frc consts  --      6.7103                 9.0201                 9.1182
 IR Inten    --     11.5440                23.8363                17.2127

 - Thermochemistry -
 -------------------
 Temperature   298.150 Kelvin.  Pressure   1.00000 Atm.
 Atom     1 has atomic number  8 and mass  15.99491

 Molecular mass:   126.06808 amu.
 Principal axes and moments of inertia in atomic units:
                           1         2         3
     Eigenvalues --   595.612251278.645001564.85721
           X            0.99978  -0.00289  -0.02088
           Y            0.00314   0.99992   0.01193
           Z            0.02085  -0.01199   0.99971
 This molecule is an asymmetric top.
 Rotational symmetry number  1.
 Warning -- assumption of classical behavior for rotation
           may cause significant error
 Rotational temperatures (Kelvin)      0.14542     0.06774     0.05535
 Rotational constants (GHZ):           3.03006     1.41145     1.15329
 Zero-point vibrational energy     417757.6 (Joules/Mol)
                                   99.84647 (Kcal/Mol)
 Warning -- explicit consideration of  11 degrees of freedom as
           vibrations may cause significant error
 Vibrational temperatures:    132.36   258.86   349.20   388.14   413.03
          (Kelvin)            467.42   587.21   605.68   667.89   717.38
                              827.50  1052.61  1162.55  1167.67  1190.10
                             1243.62  1291.36  1342.62  1393.16  1413.25
                             1445.76  1469.98  1515.48  1539.45  1564.88
                             1612.33  1634.30  1671.37  1712.00  1746.97
                             1771.55  1803.65  1808.44  1846.17  1879.19
                             1897.69  1925.32  2003.29  2054.22  2113.43
                             2146.12  4342.05  4388.87  4429.69  4447.66
                             4462.94  4475.62  4569.19  4605.73  5452.32
                             5481.99

 Zero-point correction=                           0.159115 (Hartree/Particle)
 Thermal correction to Energy=                    0.167245
 Thermal correction to Enthalpy=                  0.168189
 Thermal correction to Gibbs Free Energy=         0.126759
 Sum of electronic and zero-point Energies=           -422.974540
 Sum of electronic and thermal Energies=              -422.966411
 Sum of electronic and thermal Enthalpies=            -422.965466
 Sum of electronic and thermal Free Energies=         -423.006896

                     E (Thermal)             CV                S
                      KCal/Mol        Cal/Mol-Kelvin    Cal/Mol-Kelvin
 Total                  104.948             32.386             87.196
 Electronic               0.000              0.000              0.000
 Translational            0.889              2.981             40.409
 Rotational               0.889              2.981             28.568
 Vibrational            103.170             26.424             18.220
 Vibration     1          0.602              1.955              3.617
 Vibration     2          0.629              1.867              2.329
 Vibration     3          0.659              1.775              1.783
 Vibration     4          0.674              1.729              1.598
 Vibration     5          0.684              1.698              1.491
 Vibration     6          0.709              1.626              1.285
 Vibration     7          0.773              1.453              0.933
 Vibration     8          0.783              1.425              0.889
 Vibration     9          0.822              1.329              0.754
 Vibration    10          0.854              1.253              0.662
 Vibration    11          0.931              1.085              0.494

 Normal termination of Gaussian 09 at Tue Jan 28 03:50:31 2020.
