 Gaussian 09, Revision D.01,
 Gaussian 09:  ES64L-G09RevD.01 24-Apr-2013

 -----------------------------
 # b3lyp 6-31G(2df,p) opt Freq
 -----------------------------

 -----
 titel
 -----
 Symbolic Z-matrix:
 Charge =  0 Multiplicity = 1

 SCF Done:  E(RB3LYP) =  -423.202578497     A.U. after   14 cycles
 Optimization completed.
    -- Stationary point found.
 Normal termination of Gaussian 09 at Tue Jan 28 00:36:18 2020.

 ----------------------------------------------------------------------
 #N Geom=AllCheck Guess=TCheck SCRF=Check GenChk RB3LYP/6-31G(2df,p) Fr
 eq
 ----------------------------------------------------------------------

 Structure from the checkpoint file:  "/scratch/puck/g09_533588eb-13be-4677-9373-1521203a3bb2/Gau-95134.chk"
 -----
 titel
 -----
 Charge =  0 Multiplicity = 1

                         Standard orientation:
 ---------------------------------------------------------------------
 Center     Atomic      Atomic             Coordinates (Angstroms)
 Number     Number       Type             X           Y           Z
 ---------------------------------------------------------------------
      1          6           0       -1.566152    1.821708    0.027592
      2          6           0       -0.433857    0.930259   -0.474270
      3          6           0        0.944863    1.227688    0.150333
      4          6           0        1.744604   -0.071446    0.019277
      5          8           0        2.935576   -0.187469    0.139228
      6          6           0        0.763025   -1.207121   -0.304503
      7          6           0       -0.608861   -0.568562   -0.190259
      8          6           0       -1.865655   -1.305106   -0.322373
      9          8           0       -1.376319   -0.923509    0.969795
     10          1           0       -1.327996    2.876047   -0.141699
     11          1           0       -2.506532    1.610151   -0.490955
     12          1           0       -1.730258    1.668626    1.097305
     13          1           0       -0.343184    1.039541   -1.564530
     14          1           0        1.481320    2.070132   -0.291779
     15          1           0        0.837382    1.436860    1.224070
     16          1           0        0.965951   -1.551484   -1.326504
     17          1           0        0.894699   -2.059242    0.366184
     18          1           0       -2.770278   -0.793180   -0.647240
     19          1           0       -1.842955   -2.374142   -0.531817
 ---------------------------------------------------------------------

 SCF Done:  E(RB3LYP) =  -423.202578497     A.U. after    1 cycles

 The electronic state is 1-A.
 Alpha  occ. eigenvalues --  -19.15589 -19.13093 -10.27152 -10.24975 -10.23922
 Alpha  occ. eigenvalues --  -10.20512 -10.19571 -10.19334 -10.18304  -1.07592
 Alpha  occ. eigenvalues --   -1.04231  -0.84142  -0.75599  -0.70969  -0.67092
 Alpha  occ. eigenvalues --   -0.63730  -0.56196  -0.54486  -0.49576  -0.49359
 Alpha  occ. eigenvalues --   -0.47066  -0.44733  -0.43448  -0.42062  -0.40514
 Alpha  occ. eigenvalues --   -0.40343  -0.38797  -0.36481  -0.35971  -0.34379
 Alpha  occ. eigenvalues --   -0.34108  -0.30744  -0.27262  -0.24045
 Alpha virt. eigenvalues --   -0.01922   0.07537   0.09024   0.10529   0.11252
 Alpha virt. eigenvalues --    0.13096   0.13560   0.14275   0.15609   0.16612
 Alpha virt. eigenvalues --    0.17180   0.18294   0.19080   0.20264   0.22071

 Mulliken charges:
               1
     1  C   -0.410648
     2  C   -0.072402
     3  C   -0.326432
     4  C    0.395191
     5  O   -0.308394
     6  C   -0.401254
     7  C    0.412020
     8  C   -0.258915
     9  O   -0.265968
    10  H    0.117066
    11  H    0.115909
    12  H    0.138563
    13  H    0.086532
    14  H    0.127446
    15  H    0.138878
    16  H    0.136293
    17  H    0.145576
    18  H    0.114727
    19  H    0.115813
 Sum of Mulliken charges =   0.00000

 Dipole moment (field-independent basis, Debye):
    X=             -2.4183    Y=              0.4566    Z=             -1.9062  Tot=              3.1129
 Quadrupole moment (field-independent basis, Debye-Ang):
   XX=            -63.4993   YY=            -49.6410   ZZ=            -53.2791
   XY=              0.9692   XZ=              1.8467   YZ=              1.8873

  Exact polarizability:  87.376   1.452  78.729   2.024   2.111  58.850
 Approx polarizability: 122.473   3.056 105.769   2.101   1.781  98.716

                      1                      2                      3
                      A                      A                      A
 Frequencies --     68.6357                97.3865               205.4310
 Red. masses --      4.2491                 2.4176                 1.0674
 Frc consts  --      0.0118                 0.0135                 0.0265
 IR Inten    --      5.2444                 1.3796                 0.3325

                      4                      5                      6
                      A                      A                      A
 Frequencies --    245.6308               284.0889               305.4905
 Red. masses --      3.1179                 2.6258                 3.2706
 Frc consts  --      0.1108                 0.1249                 0.1798
 IR Inten    --      2.3996                 4.0765                 1.4822

                      7                      8                      9
                      A                      A                      A
 Frequencies --    359.8015               459.5603               495.3870
 Red. masses --      2.5884                 2.6582                 2.7613
 Frc consts  --      0.1974                 0.3308                 0.3993
 IR Inten    --      4.3104                 1.3978                 5.9654

                     10                     11                     12
                      A                      A                      A
 Frequencies --    513.8131               526.3486               570.0582
 Red. masses --      4.3614                 3.4052                 2.8553
 Frc consts  --      0.6784                 0.5558                 0.5467
 IR Inten    --      3.3944                 1.7486                 3.9774

                     13                     14                     15
                      A                      A                      A
 Frequencies --    708.6386               754.0525               806.1842
 Red. masses --      3.1866                 2.5039                 3.6120
 Frc consts  --      0.9428                 0.8388                 1.3831
 IR Inten    --      3.6457                13.0963                 3.1076

                     16                     17                     18
                      A                      A                      A
 Frequencies --    852.9897               892.6555               929.8914
 Red. masses --      1.9852                 1.8669                 1.7174
 Frc consts  --      0.8510                 0.8765                 0.8750
 IR Inten    --     10.6787                 3.6566                 1.0667

                     19                     20                     21
                      A                      A                      A
 Frequencies --    945.7560               975.5017              1020.0501
 Red. masses --      1.6828                 3.3492                 1.5391
 Frc consts  --      0.8869                 1.8778                 0.9435
 IR Inten    --      3.8652                22.4873                 8.2040

                     22                     23                     24
                      A                      A                      A
 Frequencies --   1066.5638              1126.5801              1131.5491
 Red. masses --      2.0519                 1.2853                 2.0848
 Frc consts  --      1.3752                 0.9611                 1.5727
 IR Inten    --     10.7443                 2.6875                 2.2708

                     25                     26                     27
                      A                      A                      A
 Frequencies --   1151.2995              1161.6016              1187.9918
 Red. masses --      2.5004                 1.4334                 1.6947
 Frc consts  --      1.9527                 1.1395                 1.4092
 IR Inten    --     53.0934                 0.0524                 6.6596

                     28                     29                     30
                      A                      A                      A
 Frequencies --   1204.6618              1229.8528              1247.7153
 Red. masses --      1.5735                 2.2026                 1.7786
 Frc consts  --      1.3454                 1.9628                 1.6314
 IR Inten    --      0.9952                35.0888                 6.4675

                     31                     32                     33
                      A                      A                      A
 Frequencies --   1275.2903              1328.4030              1372.0082
 Red. masses --      1.4651                 1.3553                 1.6266
 Frc consts  --      1.4039                 1.4091                 1.8040
 IR Inten    --      0.3009                 5.7964                 0.7217

                     34                     35                     36
                      A                      A                      A
 Frequencies --   1405.5749              1421.0337              1438.5357
 Red. masses --      1.4289                 1.3550                 1.4495
 Frc consts  --      1.6632                 1.6121                 1.7673
 IR Inten    --      6.9010                11.9600                10.1740

                     37                     38                     39
                      A                      A                      A
 Frequencies --   1452.3900              1490.3714              1502.6115
 Red. masses --      1.1274                 1.0506                 1.0652
 Frc consts  --      1.4012                 1.3749                 1.4170
 IR Inten    --      4.4219                 4.6091                 6.7601

                     40                     41                     42
                      A                      A                      A
 Frequencies --   1537.2890              1852.3110              3004.1045
 Red. masses --      1.4393                12.7037                 1.0818
 Frc consts  --      2.0040                25.6808                 5.7519
 IR Inten    --      5.3435               229.9663                15.9954

                     43                     44                     45
                      A                      A                      A
 Frequencies --   3027.2562              3040.9651              3042.5348
 Red. masses --      1.0682                 1.0669                 1.0358
 Frc consts  --      5.7677                 5.8130                 5.6495
 IR Inten    --     10.8162                 7.0939                19.7501

                     46                     47                     48
                      A                      A                      A
 Frequencies --   3081.1927              3105.2972              3110.5172
 Red. masses --      1.0511                 1.1007                 1.0945
 Frc consts  --      5.8793                 6.2536                 6.2390
 IR Inten    --     22.8790                28.3422                 8.8275

                     49                     50                     51
                      A                      A                      A
 Frequencies --   3115.2661              3125.6911              3164.9647
 Red. masses --      1.0954                 1.1014                 1.1188
 Frc consts  --      6.2636                 6.3401                 6.6033
 IR Inten    --      1.5917                16.5508                21.3687

 - Thermochemistry -
 -------------------
 Temperature   298.150 Kelvin.  Pressure   1.00000 Atm.
 Atom     1 has atomic number  6 and mass  12.00000

 Molecular mass:   126.06808 amu.
 Principal axes and moments of inertia in atomic units:
                           1         2         3
     Eigenvalues --   670.077761272.296561734.19170
           X            0.99971  -0.02266   0.00829
           Y            0.02245   0.99946   0.02403
           Z           -0.00883  -0.02384   0.99968
 This molecule is an asymmetric top.
 Rotational symmetry number  1.
 Warning -- assumption of classical behavior for rotation
           may cause significant error
 Rotational temperatures (Kelvin)      0.12926     0.06808     0.04994
 Rotational constants (GHZ):           2.69333     1.41849     1.04068
 Zero-point vibrational energy     415216.5 (Joules/Mol)
                                   99.23912 (Kcal/Mol)
 Warning -- explicit consideration of  12 degrees of freedom as
           vibrations may cause significant error
 Vibrational temperatures:     98.75   140.12   295.57   353.41   408.74
          (Kelvin)            439.53   517.67   661.20   712.75   739.26
                              757.30   820.19  1019.57  1084.91  1159.92
                             1227.26  1284.33  1337.90  1360.73  1403.53
                             1467.62  1534.55  1620.90  1628.04  1656.46
                             1671.28  1709.25  1733.24  1769.48  1795.18
                             1834.86  1911.27  1974.01  2022.31  2044.55
                             2069.73  2089.66  2144.31  2161.92  2211.81
                             2665.06  4322.23  4355.54  4375.27  4377.52
                             4433.14  4467.82  4475.33  4482.17  4497.17
                             4553.67

 Zero-point correction=                           0.158148 (Hartree/Particle)
 Thermal correction to Energy=                    0.166660
 Thermal correction to Enthalpy=                  0.167604
 Thermal correction to Gibbs Free Energy=         0.124836
 Sum of electronic and zero-point Energies=           -423.044431
 Sum of electronic and thermal Energies=              -423.035918
 Sum of electronic and thermal Enthalpies=            -423.034974
 Sum of electronic and thermal Free Energies=         -423.077742

                     E (Thermal)             CV                S
                      KCal/Mol        Cal/Mol-Kelvin    Cal/Mol-Kelvin
 Total                  104.581             32.538             90.013
 Electronic               0.000              0.000              0.000
 Translational            0.889              2.981             40.409
 Rotational               0.889              2.981             28.782
 Vibrational            102.803             26.576             20.822
 Vibration     1          0.598              1.969              4.192
 Vibration     2          0.603              1.951              3.506
 Vibration     3          0.640              1.832              2.084
 Vibration     4          0.660              1.770              1.762
 Vibration     5          0.682              1.703              1.509
 Vibration     6          0.696              1.663              1.387
 Vibration     7          0.734              1.555              1.123
 Vibration     8          0.817              1.340              0.767
 Vibration     9          0.851              1.260              0.670
 Vibration    10          0.869              1.219              0.624
 Vibration    11          0.881              1.192              0.595
 Vibration    12          0.926              1.096              0.504

 Optimization completed.
    -- Stationary point found.
 Normal termination of Gaussian 09 at Tue Jan 28 01:19:15 2020.
