 Gaussian 09, Revision D.01,
 Gaussian 09:  ES64L-G09RevD.01 24-Apr-2013

 -----------------------------
 # b3lyp 6-31G(2df,p) opt Freq
 -----------------------------

 -----
 titel
 -----
 Symbolic Z-matrix:
 Charge =  0 Multiplicity = 1

 SCF Done:  E(RB3LYP) =  -423.161015992     A.U. after   14 cycles
 Optimization completed.
    -- Stationary point found.
 Normal termination of Gaussian 09 at Tue Jan 28 09:49:24 2020.

 ----------------------------------------------------------------------
 #N Geom=AllCheck Guess=TCheck SCRF=Check GenChk RB3LYP/6-31G(2df,p) Fr
 eq
 ----------------------------------------------------------------------

 Structure from the checkpoint file:  "/scratch/puck/g09_818096bf-988d-4cf0-9c2c-6c83e3b22903/Gau-18738.chk"
 -----
 titel
 -----
 Charge =  0 Multiplicity = 1

                         Standard orientation:
 ---------------------------------------------------------------------
 Center     Atomic      Atomic             Coordinates (Angstroms)
 Number     Number       Type             X           Y           Z
 ---------------------------------------------------------------------
      1          6           0       -2.031695    1.612828    0.122213
      2          6           0       -1.864864    0.252335   -0.569899
      3          6           0       -0.607153   -0.448836   -0.162492
      4          8           0       -0.543319   -1.046220    1.142089
      5          6           0       -0.235860   -1.864509    0.003677
      6          6           0        1.227990   -1.593198   -0.356212
      7          6           0        0.859450   -0.071004   -0.540685
      8          6           0        1.533181    0.922563    0.366499
      9          8           0        2.094040    1.921436   -0.012824
     10          1           0       -2.959405    2.097166   -0.194836
     11          1           0       -2.063952    1.491928    1.208904
     12          1           0       -1.203225    2.286587   -0.119060
     13          1           0       -2.712142   -0.399743   -0.329949
     14          1           0       -1.857490    0.383327   -1.658949
     15          1           0       -0.818309   -2.770325   -0.120063
     16          1           0        1.949018   -1.833484    0.429404
     17          1           0        1.547963   -2.044911   -1.297131
     18          1           0        0.955699    0.258313   -1.577297
     19          1           0        1.469777    0.668343    1.446247
 ---------------------------------------------------------------------

 SCF Done:  E(RB3LYP) =  -423.161015992     A.U. after    1 cycles

 The electronic state is 1-A.
 Alpha  occ. eigenvalues --  -19.16020 -19.13535 -10.26575 -10.25315 -10.24580
 Alpha  occ. eigenvalues --  -10.20601 -10.20502 -10.19973 -10.18291  -1.08754
 Alpha  occ. eigenvalues --   -1.04098  -0.82112  -0.78484  -0.69695  -0.66806
 Alpha  occ. eigenvalues --   -0.61044  -0.59017  -0.55393  -0.50971  -0.48180
 Alpha  occ. eigenvalues --   -0.46381  -0.44901  -0.43566  -0.41817  -0.39950
 Alpha  occ. eigenvalues --   -0.39721  -0.38587  -0.36700  -0.35703  -0.35386
 Alpha  occ. eigenvalues --   -0.33178  -0.30241  -0.27151  -0.23958
 Alpha virt. eigenvalues --   -0.02431   0.07606   0.09457   0.10544   0.11629
 Alpha virt. eigenvalues --    0.12634   0.13333   0.13995   0.14818   0.15243
 Alpha virt. eigenvalues --    0.16068   0.17460   0.18155   0.19425   0.20276

 Mulliken charges:
               1
     1  C   -0.389604
     2  C   -0.302375
     3  C    0.410629
     4  O   -0.287512
     5  C   -0.051132
     6  C   -0.275907
     7  C   -0.151212
     8  C    0.160358
     9  O   -0.265163
    10  H    0.118917
    11  H    0.135560
    12  H    0.135573
    13  H    0.115310
    14  H    0.108742
    15  H    0.109626
    16  H    0.119662
    17  H    0.120041
    18  H    0.095622
    19  H    0.092865
 Sum of Mulliken charges =   0.00000

 Dipole moment (field-independent basis, Debye):
    X=             -1.6146    Y=             -2.3384    Z=             -1.4199  Tot=              3.1767
 Quadrupole moment (field-independent basis, Debye-Ang):
   XX=            -55.0009   YY=            -55.5047   ZZ=            -53.9080
   XY=             -6.5214   XZ=              1.8035   YZ=              2.3047

  Exact polarizability:  78.808   0.439  84.923  -0.433  -0.366  64.621
 Approx polarizability: 106.554   7.021 124.273  -3.968  -5.270 105.272

                      1                      2                      3
                      A                      A                      A
 Frequencies --     53.5255                80.6825               129.6757
 Red. masses --      5.2557                 2.4230                 3.2513
 Frc consts  --      0.0089                 0.0093                 0.0322
 IR Inten    --      4.2834                 2.1269                 2.4061

                      4                      5                      6
                      A                      A                      A
 Frequencies --    173.1450               211.1917               277.2624
 Red. masses --      3.5907                 1.1575                 2.5143
 Frc consts  --      0.0634                 0.0304                 0.1139
 IR Inten    --      2.7592                 0.5939                 2.7963

                      7                      8                      9
                      A                      A                      A
 Frequencies --    311.6213               357.5670               438.0149
 Red. masses --      1.9335                 2.4993                 4.7781
 Frc consts  --      0.1106                 0.1883                 0.5401
 IR Inten    --      0.5606                 0.7375                14.0383

                     10                     11                     12
                      A                      A                      A
 Frequencies --    479.5699               535.4350               654.5606
 Red. masses --      3.0454                 4.3016                 3.4003
 Frc consts  --      0.4127                 0.7266                 0.8584
 IR Inten    --      1.8542                 6.2114                 2.9597

                     13                     14                     15
                      A                      A                      A
 Frequencies --    735.6335               783.9254               828.8633
 Red. masses --      4.0846                 1.4026                 1.9841
 Frc consts  --      1.3023                 0.5079                 0.8031
 IR Inten    --      3.7407                 1.2651                 3.1707

                     16                     17                     18
                      A                      A                      A
 Frequencies --    871.6012               920.2103               923.0901
 Red. masses --      2.6789                 2.2289                 2.1898
 Frc consts  --      1.1991                 1.1120                 1.0994
 IR Inten    --     16.8768                20.3716                 6.3034

                     19                     20                     21
                      A                      A                      A
 Frequencies --    961.8647               998.2156              1008.7921
 Red. masses --      2.7447                 1.8207                 1.6643
 Frc consts  --      1.4961                 1.0689                 0.9979
 IR Inten    --     10.0293                10.9838                 2.6370

                     22                     23                     24
                      A                      A                      A
 Frequencies --   1063.4837              1069.6118              1099.9537
 Red. masses --      2.1978                 1.9440                 2.1498
 Frc consts  --      1.4645                 1.3104                 1.5325
 IR Inten    --      9.1725                 6.9802                10.3631

                     25                     26                     27
                      A                      A                      A
 Frequencies --   1114.5478              1173.5028              1183.5844
 Red. masses --      2.0012                 1.7309                 1.7518
 Frc consts  --      1.4647                 1.4044                 1.4459
 IR Inten    --      7.4925                27.1967                 4.6447

                     28                     29                     30
                      A                      A                      A
 Frequencies --   1205.2244              1251.1555              1263.6564
 Red. masses --      1.4776                 1.3651                 1.5633
 Frc consts  --      1.2646                 1.2590                 1.4708
 IR Inten    --      6.9319                 9.8698                 1.3748

                     31                     32                     33
                      A                      A                      A
 Frequencies --   1295.6486              1309.1940              1352.0309
 Red. masses --      1.4150                 1.3653                 1.5191
 Frc consts  --      1.3996                 1.3787                 1.6361
 IR Inten    --      0.8150                10.7873                 4.6432

                     34                     35                     36
                      A                      A                      A
 Frequencies --   1409.7175              1418.9704              1457.9618
 Red. masses --      1.2384                 1.2490                 1.6982
 Frc consts  --      1.4500                 1.4817                 2.1268
 IR Inten    --      2.1887                 1.6374                 6.0994

                     37                     38                     39
                      A                      A                      A
 Frequencies --   1471.5536              1482.5529              1499.5647
 Red. masses --      1.0819                 1.6282                 1.0384
 Frc consts  --      1.3803                 2.1086                 1.3757
 IR Inten    --      1.8705                 6.0442                 5.8242

                     40                     41                     42
                      A                      A                      A
 Frequencies --   1510.7452              1817.3644              2908.2968
 Red. masses --      1.1686                 9.9354                 1.0832
 Frc consts  --      1.5715                19.3339                 5.3979
 IR Inten    --      8.6896               181.7459                58.8759

                     43                     44                     45
                      A                      A                      A
 Frequencies --   3032.2212              3042.0805              3068.5030
 Red. masses --      1.0603                 1.0351                 1.0587
 Frc consts  --      5.7439                 5.6436                 5.8732
 IR Inten    --     18.0127                19.3303                27.5833

                     46                     47                     48
                      A                      A                      A
 Frequencies --   3073.1046              3099.2636              3113.5665
 Red. masses --      1.1011                 1.0876                 1.1018
 Frc consts  --      6.1267                 6.1550                 6.2930
 IR Inten    --      7.7732                 6.8074                28.5043

                     49                     50                     51
                      A                      A                      A
 Frequencies --   3119.8916              3129.7243              3187.4321
 Red. masses --      1.1027                 1.1062                 1.0942
 Frc consts  --      6.3237                 6.3840                 6.5496
 IR Inten    --     22.0130                15.4820                17.7661

 - Thermochemistry -
 -------------------
 Temperature   298.150 Kelvin.  Pressure   1.00000 Atm.
 Atom     1 has atomic number  6 and mass  12.00000

 Molecular mass:   126.06808 amu.
 Principal axes and moments of inertia in atomic units:
                           1         2         3
     Eigenvalues --   926.366781104.234131725.55481
           X            0.94974  -0.31295   0.00713
           Y            0.31279   0.94965   0.01809
           Z           -0.01243  -0.01495   0.99981
 This molecule is an asymmetric top.
 Rotational symmetry number  1.
 Warning -- assumption of classical behavior for rotation
           may cause significant error
 Rotational temperatures (Kelvin)      0.09350     0.07844     0.05019
 Rotational constants (GHZ):           1.94819     1.63438     1.04589
 Zero-point vibrational energy     412463.8 (Joules/Mol)
                                   98.58120 (Kcal/Mol)
 Warning -- explicit consideration of  11 degrees of freedom as
           vibrations may cause significant error
 Vibrational temperatures:     77.01   116.08   186.57   249.12   303.86
          (Kelvin)            398.92   448.35   514.46   630.20   689.99
                              770.37   941.77  1058.41  1127.89  1192.55
                             1254.04  1323.98  1328.12  1383.91  1436.21
                             1451.42  1530.11  1538.93  1582.59  1603.58
                             1688.41  1702.91  1734.05  1800.13  1818.12
                             1864.15  1883.64  1945.27  2028.27  2041.58
                             2097.68  2117.23  2133.06  2157.54  2173.62
                             2614.78  4184.39  4362.68  4376.87  4414.89
                             4421.51  4459.14  4479.72  4488.82  4502.97
                             4586.00

 Zero-point correction=                           0.157099 (Hartree/Particle)
 Thermal correction to Energy=                    0.166197
 Thermal correction to Enthalpy=                  0.167141
 Thermal correction to Gibbs Free Energy=         0.122553
 Sum of electronic and zero-point Energies=           -423.003917
 Sum of electronic and thermal Energies=              -422.994819
 Sum of electronic and thermal Enthalpies=            -422.993874
 Sum of electronic and thermal Free Energies=         -423.038463

                     E (Thermal)             CV                S
                      KCal/Mol        Cal/Mol-Kelvin    Cal/Mol-Kelvin
 Total                  104.290             33.107             93.844
 Electronic               0.000              0.000              0.000
 Translational            0.889              2.981             40.409
 Rotational               0.889              2.981             28.958
 Vibrational            102.513             27.145             24.478
 Vibration     1          0.596              1.976              4.683
 Vibration     2          0.600              1.962              3.874
 Vibration     3          0.612              1.924              2.951
 Vibration     4          0.627              1.876              2.401
 Vibration     5          0.643              1.824              2.033
 Vibration     6          0.678              1.716              1.551
 Vibration     7          0.700              1.652              1.354
 Vibration     8          0.733              1.560              1.133
 Vibration     9          0.798              1.387              0.833
 Vibration    10          0.836              1.295              0.711
 Vibration    11          0.890              1.172              0.575

 Optimization completed.
    -- Stationary point found.
 Normal termination of Gaussian 09 at Tue Jan 28 10:30:38 2020.
