 Gaussian 09, Revision D.01,
 Gaussian 09:  ES64L-G09RevD.01 24-Apr-2013

 -----------------------------
 # b3lyp 6-31G(2df,p) opt Freq
 -----------------------------

 -----
 titel
 -----
 Symbolic Z-matrix:
 Charge =  0 Multiplicity = 1

 SCF Done:  E(RB3LYP) =  -423.216427095     A.U. after   14 cycles
 Optimization completed.
    -- Stationary point found.
 Normal termination of Gaussian 09 at Mon Jan 27 10:18:04 2020.

 ----------------------------------------------------------------------
 #N Geom=AllCheck Guess=TCheck SCRF=Check GenChk RB3LYP/6-31G(2df,p) Fr
 eq
 ----------------------------------------------------------------------

 Structure from the checkpoint file:  "/scratch/puck/g09_0452bcc3-cd2d-4126-9788-a99ec548c2bb/Gau-66897.chk"
 -----
 titel
 -----
 Charge =  0 Multiplicity = 1

                         Standard orientation:
 ---------------------------------------------------------------------
 Center     Atomic      Atomic             Coordinates (Angstroms)
 Number     Number       Type             X           Y           Z
 ---------------------------------------------------------------------
      1          6           0       -3.233378    0.227912   -0.560475
      2          6           0       -1.729063    0.149784   -0.826261
      3          6           0       -0.890619    0.288274    0.457943
      4          8           0       -1.256266   -0.694643    1.429050
      5          6           0        0.578325    0.258231    0.182409
      6          6           0        1.596422    1.144824    0.340836
      7          6           0        2.788099    0.487283   -0.112877
      8          6           0        2.404929   -0.752767   -0.507207
      9          8           0        1.062820   -0.910548   -0.340073
     10          1           0       -3.804159    0.080609   -1.482132
     11          1           0       -3.535717   -0.535050    0.160990
     12          1           0       -3.511039    1.204491   -0.147859
     13          1           0       -1.474615   -0.805358   -1.303376
     14          1           0       -1.420324    0.935209   -1.526883
     15          1           0       -1.115114    1.251958    0.929193
     16          1           0       -0.910554   -1.539329    1.118872
     17          1           0        1.511615    2.144899    0.736513
     18          1           0        3.789744    0.886890   -0.134823
     19          1           0        2.929435   -1.604037   -0.908519
 ---------------------------------------------------------------------

 SCF Done:  E(RB3LYP) =  -423.216427095     A.U. after    1 cycles

 The electronic state is 1-A.
 Alpha  occ. eigenvalues --  -19.20478 -19.13415 -10.23907 -10.22940 -10.22823
 Alpha  occ. eigenvalues --  -10.18263 -10.18061 -10.18056 -10.16930  -1.10705
 Alpha  occ. eigenvalues --   -1.01567  -0.79742  -0.78588  -0.74463  -0.67092
 Alpha  occ. eigenvalues --   -0.60510  -0.59297  -0.55337  -0.53737  -0.47491
 Alpha  occ. eigenvalues --   -0.45641  -0.45281  -0.44131  -0.41850  -0.40244
 Alpha  occ. eigenvalues --   -0.39236  -0.37455  -0.36893  -0.35909  -0.33670
 Alpha  occ. eigenvalues --   -0.32590  -0.27738  -0.26939  -0.22233
 Alpha virt. eigenvalues --    0.01296   0.06972   0.08769   0.11356   0.12077
 Alpha virt. eigenvalues --    0.13572   0.14898   0.15292   0.16194   0.17202
 Alpha virt. eigenvalues --    0.17727   0.18854   0.19146   0.20134   0.23592

 Mulliken charges:
               1
     1  C   -0.385716
     2  C   -0.184140
     3  C    0.001313
     4  O   -0.430443
     5  C    0.386107
     6  C   -0.291053
     7  C   -0.168621
     8  C   -0.021788
     9  O   -0.198435
    10  H    0.109122
    11  H    0.130663
    12  H    0.112278
    13  H    0.100545
    14  H    0.100245
    15  H    0.097311
    16  H    0.285634
    17  H    0.110784
    18  H    0.113269
    19  H    0.132924
 Sum of Mulliken charges =   0.00000

 Dipole moment (field-independent basis, Debye):
    X=              0.9901    Y=              0.0924    Z=             -1.1186  Tot=              1.4967
 Quadrupole moment (field-independent basis, Debye-Ang):
   XX=            -50.6995   YY=            -48.5452   ZZ=            -57.4061
   XY=             -0.7275   XZ=              1.2065   YZ=              1.6816

  Exact polarizability: 102.731   0.559  74.833  -3.340   6.603  57.586
 Approx polarizability: 133.131   4.268 126.378  -7.860  13.764  88.678

                      1                      2                      3
                      A                      A                      A
 Frequencies --     51.2331                94.9534               113.7665
 Red. masses --      4.3650                 2.1467                 3.7976
 Frc consts  --      0.0068                 0.0114                 0.0290
 IR Inten    --      0.8018                 0.3726                 0.3961

                      4                      5                      6
                      A                      A                      A
 Frequencies --    188.9287               230.3615               283.4058
 Red. masses --      2.3456                 1.4183                 2.7143
 Frc consts  --      0.0493                 0.0443                 0.1284
 IR Inten    --      1.8617                 0.1323                17.0124

                      7                      8                      9
                      A                      A                      A
 Frequencies --    310.4975               357.5233               409.9749
 Red. masses --      1.1444                 3.8267                 5.6422
 Frc consts  --      0.0650                 0.2882                 0.5587
 IR Inten    --     91.3990                 2.3106                25.8233

                     10                     11                     12
                      A                      A                      A
 Frequencies --    512.5269               613.5438               711.7805
 Red. masses --      2.5386                 3.5410                 3.6340
 Frc consts  --      0.3929                 0.7854                 1.0847
 IR Inten    --      7.0535                 4.0143                 2.5665

                     13                     14                     15
                      A                      A                      A
 Frequencies --    744.6366               747.1731               793.1175
 Red. masses --      2.6466                 1.4312                 1.4569
 Frc consts  --      0.8646                 0.4708                 0.5400
 IR Inten    --      7.9006                32.3696                10.1363

                     16                     17                     18
                      A                      A                      A
 Frequencies --    811.9330               852.0498               889.8112
 Red. masses --      1.2645                 1.2941                 2.5558
 Frc consts  --      0.4911                 0.5535                 1.1923
 IR Inten    --     20.7576                 0.7247                31.8814

                     19                     20                     21
                      A                      A                      A
 Frequencies --    902.9374               950.0249               980.1115
 Red. masses --      5.0568                 3.0024                 2.1026
 Frc consts  --      2.4291                 1.5965                 1.1900
 IR Inten    --      0.2057                12.7076                38.0417

                     22                     23                     24
                      A                      A                      A
 Frequencies --   1032.4329              1057.4999              1097.2750
 Red. masses --      1.3939                 2.6626                 2.2852
 Frc consts  --      0.8754                 1.7543                 1.6211
 IR Inten    --     24.1994                32.7909                 6.1700

                     25                     26                     27
                      A                      A                      A
 Frequencies --   1102.4533              1118.9655              1184.6822
 Red. masses --      1.7743                 2.3722                 1.9042
 Frc consts  --      1.2706                 1.7500                 1.5746
 IR Inten    --     43.3898                 1.7180                22.6124

                     28                     29                     30
                      A                      A                      A
 Frequencies --   1223.0342              1239.3179              1259.7902
 Red. masses --      1.5405                 3.7250                 1.4743
 Frc consts  --      1.3576                 3.3709                 1.3786
 IR Inten    --      4.1582                10.4822                13.9533

                     31                     32                     33
                      A                      A                      A
 Frequencies --   1301.4094              1331.0929              1376.5645
 Red. masses --      1.3235                 1.2637                 1.4559
 Frc consts  --      1.3207                 1.3192                 1.6254
 IR Inten    --      6.6982                 3.0753                 2.1426

                     34                     35                     36
                      A                      A                      A
 Frequencies --   1405.1281              1414.3472              1420.3673
 Red. masses --      1.2529                 2.2181                 1.3524
 Frc consts  --      1.4575                 2.6143                 1.6075
 IR Inten    --     12.3516                 5.2764                49.6474

                     37                     38                     39
                      A                      A                      A
 Frequencies --   1482.1695              1496.1309              1509.3040
 Red. masses --      1.0788                 1.0417                 1.0596
 Frc consts  --      1.3963                 1.3738                 1.4221
 IR Inten    --      1.8911                 4.5650                 4.6212

                     40                     41                     42
                      A                      A                      A
 Frequencies --   1540.8938              1639.4660              3024.8240
 Red. masses --      4.5288                 6.3173                 1.0607
 Frc consts  --      6.3355                10.0043                 5.7179
 IR Inten    --      8.2935                 0.5990                14.9440

                     43                     44                     45
                      A                      A                      A
 Frequencies --   3036.9670              3049.7358              3067.7348
 Red. masses --      1.0383                 1.0876                 1.0966
 Frc consts  --      5.6423                 5.9599                 6.0806
 IR Inten    --     30.7931                 9.7251                27.1672

                     46                     47                     48
                      A                      A                      A
 Frequencies --   3101.8075              3126.4371              3251.4976
 Red. masses --      1.1003                 1.1007                 1.0905
 Frc consts  --      6.2373                 6.3390                 6.7926
 IR Inten    --     37.8472                21.3370                 3.5934

                     49                     50                     51
                      A                      A                      A
 Frequencies --   3262.6841              3286.5506              3802.7986
 Red. masses --      1.0960                 1.1063                 1.0659
 Frc consts  --      6.8739                 7.0408                 9.0821
 IR Inten    --      0.7659                 1.0969                20.5457

 - Thermochemistry -
 -------------------
 Temperature   298.150 Kelvin.  Pressure   1.00000 Atm.
 Atom     1 has atomic number  6 and mass  12.00000

 Molecular mass:   126.06808 amu.
 Principal axes and moments of inertia in atomic units:
                           1         2         3
     Eigenvalues --   457.259951945.868841956.94558
           X            0.99991  -0.01054   0.00882
           Y            0.00241   0.76652   0.64221
           Z           -0.01353  -0.64213   0.76647
 This molecule is an asymmetric top.
 Rotational symmetry number  1.
 Warning -- assumption of classical behavior for rotation
           may cause significant error
 Rotational temperatures (Kelvin)      0.18942     0.04451     0.04426
 Rotational constants (GHZ):           3.94686     0.92747     0.92222
 Zero-point vibrational energy     417458.7 (Joules/Mol)
                                   99.77503 (Kcal/Mol)
 Warning -- explicit consideration of  11 degrees of freedom as
           vibrations may cause significant error
 Vibrational temperatures:     73.71   136.62   163.68   271.83   331.44
          (Kelvin)            407.76   446.74   514.40   589.86   737.41
                              882.75  1024.09  1071.36  1075.01  1141.12
                             1168.19  1225.91  1280.24  1299.12  1366.87
                             1410.16  1485.44  1521.50  1578.73  1586.18
                             1609.94  1704.49  1759.67  1783.10  1812.55
                             1872.44  1915.14  1980.57  2021.66  2034.93
                             2043.59  2132.51  2152.60  2171.55  2217.00
                             2358.82  4352.04  4369.51  4387.88  4413.78
                             4462.80  4498.24  4678.17  4694.27  4728.61
                             5471.37

 Zero-point correction=                           0.159002 (Hartree/Particle)
 Thermal correction to Energy=                    0.168062
 Thermal correction to Enthalpy=                  0.169006
 Thermal correction to Gibbs Free Energy=         0.124568
 Sum of electronic and zero-point Energies=           -423.057425
 Sum of electronic and thermal Energies=              -423.048365
 Sum of electronic and thermal Enthalpies=            -423.047421
 Sum of electronic and thermal Free Energies=         -423.091859

                     E (Thermal)             CV                S
                      KCal/Mol        Cal/Mol-Kelvin    Cal/Mol-Kelvin
 Total                  105.461             33.352             93.528
 Electronic               0.000              0.000              0.000
 Translational            0.889              2.981             40.409
 Rotational               0.889              2.981             28.945
 Vibrational            103.683             27.391             24.175
 Vibration     1          0.596              1.977              4.769
 Vibration     2          0.603              1.953              3.555
 Vibration     3          0.607              1.938              3.204
 Vibration     4          0.633              1.855              2.238
 Vibration     5          0.652              1.795              1.876
 Vibration     6          0.682              1.704              1.513
 Vibration     7          0.699              1.654              1.360
 Vibration     8          0.733              1.560              1.133
 Vibration     9          0.774              1.449              0.927
 Vibration    10          0.868              1.222              0.628
 Vibration    11          0.973              1.003              0.427

 Normal termination of Gaussian 09 at Mon Jan 27 10:54:43 2020.
