 Gaussian 09, Revision D.01,
 Gaussian 09:  ES64L-G09RevD.01 24-Apr-2013

 -----------------------------
 # b3lyp 6-31G(2df,p) opt Freq
 -----------------------------

 -----
 titel
 -----
 Symbolic Z-matrix:
 Charge =  0 Multiplicity = 1

 SCF Done:  E(RB3LYP) =  -423.117054776     A.U. after   12 cycles
 Optimization completed.
    -- Stationary point found.
 Normal termination of Gaussian 09 at Tue Jan 28 08:43:49 2020.

 ----------------------------------------------------------------------
 #N Geom=AllCheck Guess=TCheck SCRF=Check GenChk RB3LYP/6-31G(2df,p) Fr
 eq
 ----------------------------------------------------------------------

 Structure from the checkpoint file:  "/scratch/puck/g09_31d7a50a-46d3-43e3-8f6c-264c58ce83d6/Gau-129330.chk"
 -----
 titel
 -----
 Charge =  0 Multiplicity = 1

                         Standard orientation:
 ---------------------------------------------------------------------
 Center     Atomic      Atomic             Coordinates (Angstroms)
 Number     Number       Type             X           Y           Z
 ---------------------------------------------------------------------
      1          6           0       -2.604400   -0.299970    0.343456
      2          8           0       -1.518186   -0.368085   -0.555942
      3          6           0       -0.338321    0.289564   -0.170637
      4          6           0       -0.553305    1.794944   -0.073273
      5          6           0        0.854288   -0.345237   -0.991180
      6          8           0        0.753971   -1.512780   -0.121728
      7          6           0        0.511108   -0.518363    0.915525
      8          6           0        1.828654    0.262966    0.912569
      9          6           0        2.067679    0.378335   -0.398152
     10          1           0       -3.039741    0.706962    0.407782
     11          1           0       -3.367203   -0.983104   -0.037382
     12          1           0       -2.322173   -0.622973    1.355739
     13          1           0       -1.028466    2.151295   -0.992930
     14          1           0       -1.218395    2.040729    0.760551
     15          1           0        0.379587    2.336035    0.075929
     16          1           0        0.781066   -0.557746   -2.056576
     17          1           0        0.100838   -0.913937    1.843920
     18          1           0        2.370439    0.640880    1.767193
     19          1           0        2.863557    0.875352   -0.932710
 ---------------------------------------------------------------------

 SCF Done:  E(RB3LYP) =  -423.117054776     A.U. after    1 cycles

 The electronic state is 1-A.
 Alpha  occ. eigenvalues --  -19.14004 -19.12427 -10.24790 -10.23748 -10.23680
 Alpha  occ. eigenvalues --  -10.22535 -10.18704 -10.18592 -10.17716  -1.05965
 Alpha  occ. eigenvalues --   -1.01896  -0.80747  -0.74755  -0.69804  -0.68706
 Alpha  occ. eigenvalues --   -0.63988  -0.54389  -0.53946  -0.53004  -0.48210
 Alpha  occ. eigenvalues --   -0.46247  -0.45405  -0.43045  -0.41036  -0.39992
 Alpha  occ. eigenvalues --   -0.39292  -0.38885  -0.35612  -0.34750  -0.33593
 Alpha  occ. eigenvalues --   -0.28957  -0.27013  -0.24432  -0.23139
 Alpha virt. eigenvalues --   -0.00215   0.09079   0.09961   0.12045   0.12368
 Alpha virt. eigenvalues --    0.13501   0.13758   0.15192   0.15661   0.16256
 Alpha virt. eigenvalues --    0.17841   0.18663   0.19808   0.20321   0.21471

 Mulliken charges:
               1
     1  C   -0.250680
     2  O   -0.278107
     3  C    0.451918
     4  C   -0.485682
     5  C   -0.035096
     6  O   -0.275353
     7  C   -0.053489
     8  C   -0.085051
     9  C   -0.092420
    10  H    0.108191
    11  H    0.132288
    12  H    0.106065
    13  H    0.126605
    14  H    0.119734
    15  H    0.128213
    16  H    0.082583
    17  H    0.078816
    18  H    0.109864
    19  H    0.111603
 Sum of Mulliken charges =   0.00000

 Dipole moment (field-independent basis, Debye):
    X=             -0.3492    Y=              2.3415    Z=              1.0265  Tot=              2.5804
 Quadrupole moment (field-independent basis, Debye-Ang):
   XX=            -49.8630   YY=            -57.2225   ZZ=            -49.6147
   XY=              2.4739   XZ=             -2.3067   YZ=             -1.0686

  Exact polarizability:  86.482   3.900  65.607  -1.858  -1.086  74.005
 Approx polarizability: 113.268   5.620  99.232  -3.964  -1.340 126.798

                      1                      2                      3
                      A                      A                      A
 Frequencies --     70.0633               156.2521               177.9127
 Red. masses --      2.0008                 1.3817                 1.8577
 Frc consts  --      0.0058                 0.0199                 0.0346
 IR Inten    --      2.8191                 1.1112                 0.6978

                      4                      5                      6
                      A                      A                      A
 Frequencies --    209.4581               278.0168               324.8518
 Red. masses --      1.3393                 3.0416                 2.3632
 Frc consts  --      0.0346                 0.1385                 0.1469
 IR Inten    --      0.8854                 0.3185                 1.2897

                      7                      8                      9
                      A                      A                      A
 Frequencies --    402.8537               411.5464               500.7865
 Red. masses --      3.8741                 3.9157                 3.1743
 Frc consts  --      0.3704                 0.3907                 0.4690
 IR Inten    --      3.0352                 0.9012                 5.5989

                     10                     11                     12
                      A                      A                      A
 Frequencies --    570.8159               611.7173               634.6983
 Red. masses --      2.6795                 4.9541                 2.5444
 Frc consts  --      0.5144                 1.0922                 0.6039
 IR Inten    --      3.8772                 6.7467                 4.8723

                     13                     14                     15
                      A                      A                      A
 Frequencies --    731.7595               759.2909               845.3500
 Red. masses --      2.0196                 4.0625                 2.9377
 Frc consts  --      0.6372                 1.3799                 1.2369
 IR Inten    --     33.3059                 3.4051                30.2791

                     16                     17                     18
                      A                      A                      A
 Frequencies --    854.7618               885.4589               914.7180
 Red. masses --      3.0930                 2.0402                 1.5258
 Frc consts  --      1.3314                 0.9425                 0.7522
 IR Inten    --     14.5567                 5.1767                 1.5502

                     19                     20                     21
                      A                      A                      A
 Frequencies --    918.0076               920.3594               953.6638
 Red. masses --      2.9818                 2.3120                 4.6456
 Frc consts  --      1.4805                 1.1539                 2.4894
 IR Inten    --     15.3820                 8.3857                17.4323

                     22                     23                     24
                      A                      A                      A
 Frequencies --    998.2686              1082.0920              1120.0445
 Red. masses --      1.6056                 2.8649                 1.9032
 Frc consts  --      0.9427                 1.9765                 1.4067
 IR Inten    --      0.2764                25.2193                10.2457

                     25                     26                     27
                      A                      A                      A
 Frequencies --   1135.8774              1144.4722              1170.6089
 Red. masses --      2.1529                 1.6493                 1.9897
 Frc consts  --      1.6366                 1.2728                 1.6064
 IR Inten    --     26.7536                49.8743                73.1514

                     28                     29                     30
                      A                      A                      A
 Frequencies --   1180.4971              1195.3917              1226.7848
 Red. masses --      1.2887                 2.2707                 1.2271
 Frc consts  --      1.0581                 1.9117                 1.0881
 IR Inten    --      3.8361                19.7838                 0.8286

                     31                     32                     33
                      A                      A                      A
 Frequencies --   1242.4312              1259.9497              1300.8621
 Red. masses --      2.1488                 2.2083                 1.4867
 Frc consts  --      1.9543                 2.0654                 1.4823
 IR Inten    --     62.5225                59.3785                14.4911

                     34                     35                     36
                      A                      A                      A
 Frequencies --   1308.1756              1400.9450              1477.2724
 Red. masses --      1.7670                 1.2911                 1.1177
 Frc consts  --      1.7816                 1.4930                 1.4371
 IR Inten    --      8.2326                19.5485                 0.7438

                     37                     38                     39
                      A                      A                      A
 Frequencies --   1485.8477              1490.8567              1506.1861
 Red. masses --      1.0508                 1.0512                 1.0778
 Frc consts  --      1.3668                 1.3766                 1.4406
 IR Inten    --      1.4861                 4.9606                 8.0522

                     40                     41                     42
                      A                      A                      A
 Frequencies --   1510.7629              1606.6667              2990.7530
 Red. masses --      1.0462                 5.7573                 1.0356
 Frc consts  --      1.4069                 8.7563                 5.4578
 IR Inten    --      4.5146                 0.1901                50.3409

                     43                     44                     45
                      A                      A                      A
 Frequencies --   3040.0716              3048.6652              3105.3344
 Red. masses --      1.0918                 1.0501                 1.1000
 Frc consts  --      5.9450                 5.7503                 6.2500
 IR Inten    --     23.9439                45.8919                14.3444

                     46                     47                     48
                      A                      A                      A
 Frequencies --   3116.0572              3130.8049              3141.5718
 Red. masses --      1.0972                 1.0902                 1.0921
 Frc consts  --      6.2769                 6.2960                 6.3506
 IR Inten    --     27.6585                40.6496                21.3935

                     49                     50                     51
                      A                      A                      A
 Frequencies --   3158.2428              3229.5209              3256.2423
 Red. masses --      1.0968                 1.0868                 1.1111
 Frc consts  --      6.4455                 6.6784                 6.9411
 IR Inten    --     12.1454                 3.0324                 6.1117

 - Thermochemistry -
 -------------------
 Temperature   298.150 Kelvin.  Pressure   1.00000 Atm.
 Atom     1 has atomic number  6 and mass  12.00000

 Molecular mass:   126.06808 amu.
 Principal axes and moments of inertia in atomic units:
                           1         2         3
     Eigenvalues --   574.857921196.430931371.79696
           X            0.99976   0.01140  -0.01850
           Y           -0.01181   0.99969  -0.02196
           Z            0.01824   0.02217   0.99959
 This molecule is an asymmetric top.
 Rotational symmetry number  1.
 Warning -- assumption of classical behavior for rotation
           may cause significant error
 Rotational temperatures (Kelvin)      0.15067     0.07239     0.06314
 Rotational constants (GHZ):           3.13946     1.50844     1.31560
 Zero-point vibrational energy     413869.6 (Joules/Mol)
                                   98.91722 (Kcal/Mol)
 Warning -- explicit consideration of  11 degrees of freedom as
           vibrations may cause significant error
 Vibrational temperatures:    100.81   224.81   255.98   301.36   400.00
          (Kelvin)            467.39   579.62   592.12   720.52   821.28
                              880.12   913.19  1052.84  1092.45  1216.27
                             1229.81  1273.98  1316.07  1320.81  1324.19
                             1372.11  1436.28  1556.89  1611.49  1634.27
                             1646.64  1684.24  1698.47  1719.90  1765.07
                             1787.58  1812.78  1871.65  1882.17  2015.64
                             2125.46  2137.80  2145.01  2167.06  2173.65
                             2311.63  4303.02  4373.98  4386.34  4467.88
                             4483.31  4504.52  4520.02  4544.00  4646.55
                             4685.00

 Zero-point correction=                           0.157635 (Hartree/Particle)
 Thermal correction to Energy=                    0.166032
 Thermal correction to Enthalpy=                  0.166977
 Thermal correction to Gibbs Free Energy=         0.124793
 Sum of electronic and zero-point Energies=           -422.959420
 Sum of electronic and thermal Energies=              -422.951022
 Sum of electronic and thermal Enthalpies=            -422.950078
 Sum of electronic and thermal Free Energies=         -422.992262

                     E (Thermal)             CV                S
                      KCal/Mol        Cal/Mol-Kelvin    Cal/Mol-Kelvin
 Total                  104.187             32.544             88.783
 Electronic               0.000              0.000              0.000
 Translational            0.889              2.981             40.409
 Rotational               0.889              2.981             28.336
 Vibrational            102.409             26.583             20.039
 Vibration     1          0.598              1.968              4.152
 Vibration     2          0.620              1.896              2.595
 Vibration     3          0.628              1.870              2.350
 Vibration     4          0.642              1.826              2.048
 Vibration     5          0.679              1.714              1.546
 Vibration     6          0.709              1.626              1.286
 Vibration     7          0.768              1.464              0.952
 Vibration     8          0.776              1.445              0.921
 Vibration     9          0.856              1.248              0.656
 Vibration    10          0.927              1.094              0.503
 Vibration    11          0.971              1.007              0.430

 Normal termination of Gaussian 09 at Tue Jan 28 09:29:29 2020.
