 Gaussian 09, Revision D.01,
 Gaussian 09:  ES64L-G09RevD.01 24-Apr-2013

 -----------------------------
 # b3lyp 6-31G(2df,p) opt Freq
 -----------------------------

 -----
 titel
 -----
 Symbolic Z-matrix:
 Charge =  0 Multiplicity = 1

 SCF Done:  E(RB3LYP) =  -423.174495218     A.U. after   14 cycles
 Optimization completed.
    -- Stationary point found.
 Normal termination of Gaussian 09 at Tue Jan 28 02:55:07 2020.

 ----------------------------------------------------------------------
 #N Geom=AllCheck Guess=TCheck SCRF=Check GenChk RB3LYP/6-31G(2df,p) Fr
 eq
 ----------------------------------------------------------------------

 Structure from the checkpoint file:  "/scratch/puck/g09_a0869ee4-5f12-486d-907b-6bd21c5ef2bf/Gau-11501.chk"
 -----
 titel
 -----
 Charge =  0 Multiplicity = 1

                         Standard orientation:
 ---------------------------------------------------------------------
 Center     Atomic      Atomic             Coordinates (Angstroms)
 Number     Number       Type             X           Y           Z
 ---------------------------------------------------------------------
      1          6           0        2.058160    1.669517    0.120765
      2          6           0        0.985910    0.719389   -0.415385
      3          6           0       -0.352277    0.644708    0.383432
      4          6           0       -1.587896    0.228339   -0.464836
      5          8           0       -2.838266    0.719177   -0.042421
      6          6           0       -1.300166   -1.272373   -0.151703
      7          6           0       -0.079121   -0.871486    0.737137
      8          6           0        1.235695   -0.759131   -0.036627
      9          8           0        2.162676   -1.498532   -0.205424
     10          1           0        2.199430    1.541126    1.199235
     11          1           0        3.017122    1.473519   -0.367342
     12          1           0        1.781637    2.712302   -0.062376
     13          1           0        0.854119    0.878250   -1.492480
     14          1           0       -0.514526    1.419443    1.134080
     15          1           0       -1.516845    0.503144   -1.521479
     16          1           0       -2.951443    0.500975    0.889244
     17          1           0       -2.111405   -1.721098    0.428219
     18          1           0       -1.086735   -1.927306   -1.000279
     19          1           0       -0.028455   -1.299292    1.739242
 ---------------------------------------------------------------------

 SCF Done:  E(RB3LYP) =  -423.174495218     A.U. after    1 cycles

 The electronic state is 1-A.
 Alpha  occ. eigenvalues --  -19.14576 -19.13685 -10.26608 -10.24044 -10.19950
 Alpha  occ. eigenvalues --  -10.19797 -10.19654 -10.19591 -10.18857  -1.04501
 Alpha  occ. eigenvalues --   -1.02916  -0.87727  -0.77354  -0.69915  -0.67297
 Alpha  occ. eigenvalues --   -0.61593  -0.58800  -0.51909  -0.50847  -0.48388
 Alpha  occ. eigenvalues --   -0.46489  -0.44240  -0.42968  -0.40934  -0.40052
 Alpha  occ. eigenvalues --   -0.39553  -0.38277  -0.37727  -0.35777  -0.33494
 Alpha  occ. eigenvalues --   -0.31628  -0.29551  -0.26519  -0.23819
 Alpha virt. eigenvalues --   -0.02373   0.06635   0.08658   0.09344   0.10423
 Alpha virt. eigenvalues --    0.12420   0.13851   0.14923   0.15461   0.16106
 Alpha virt. eigenvalues --    0.17235   0.17551   0.19528   0.20804   0.21820

 Mulliken charges:
               1
     1  C   -0.407584
     2  C   -0.114757
     3  C   -0.090205
     4  C    0.148826
     5  O   -0.432018
     6  C   -0.278741
     7  C   -0.169173
     8  C    0.408055
     9  O   -0.306160
    10  H    0.120634
    11  H    0.137757
    12  H    0.123506
    13  H    0.096762
    14  H    0.072966
    15  H    0.091363
    16  H    0.278516
    17  H    0.110770
    18  H    0.118491
    19  H    0.090994
 Sum of Mulliken charges =   0.00000

 Dipole moment (field-independent basis, Debye):
    X=             -1.2079    Y=              1.0809    Z=              1.2642  Tot=              2.0556
 Quadrupole moment (field-independent basis, Debye-Ang):
   XX=            -61.6746   YY=            -56.0529   ZZ=            -49.4966
   XY=              8.2098   XZ=             -3.0852   YZ=             -0.2141

  Exact polarizability:  86.942   1.753  76.316  -2.740  -0.997  64.487
 Approx polarizability: 119.791  -7.075 111.404  -5.418  -1.216 101.235

                      1                      2                      3
                      A                      A                      A
 Frequencies --     34.1661               137.4038               176.4897
 Red. masses --      3.8787                 3.6302                 3.4785
 Frc consts  --      0.0027                 0.0404                 0.0638
 IR Inten    --      4.5513                 5.2176                 0.7898

                      4                      5                      6
                      A                      A                      A
 Frequencies --    197.5583               221.6926               303.0223
 Red. masses --      2.7537                 1.0519                 1.2321
 Frc consts  --      0.0633                 0.0305                 0.0667
 IR Inten    --      2.9790                 0.1734                54.7988

                      7                      8                      9
                      A                      A                      A
 Frequencies --    326.6261               365.2358               420.4216
 Red. masses --      3.4201                 3.6242                 3.7847
 Frc consts  --      0.2150                 0.2848                 0.3941
 IR Inten    --     10.2061                30.1911                 5.0279

                     10                     11                     12
                      A                      A                      A
 Frequencies --    447.0128               629.9429               699.3106
 Red. masses --      2.8635                 3.0088                 3.0226
 Frc consts  --      0.3371                 0.7035                 0.8709
 IR Inten    --      1.4910                 0.5626                 0.3595

                     13                     14                     15
                      A                      A                      A
 Frequencies --    744.8454               796.7805               812.1151
 Red. masses --      2.9886                 3.3800                 1.9496
 Frc consts  --      0.9769                 1.2643                 0.7576
 IR Inten    --      1.6326                 7.1612                 2.6077

                     16                     17                     18
                      A                      A                      A
 Frequencies --    868.7489               906.0544               923.9373
 Red. masses --      2.4512                 2.4474                 2.0945
 Frc consts  --      1.0900                 1.1838                 1.0535
 IR Inten    --      3.2247                10.4072                25.8598

                     19                     20                     21
                      A                      A                      A
 Frequencies --    937.0068               983.1769              1034.1103
 Red. masses --      1.9059                 2.2554                 2.0437
 Frc consts  --      0.9859                 1.2845                 1.2876
 IR Inten    --      6.0932                 6.6534                24.1300

                     22                     23                     24
                      A                      A                      A
 Frequencies --   1049.3859              1067.4889              1086.6560
 Red. masses --      1.9683                 1.8769                 1.7877
 Frc consts  --      1.2771                 1.2602                 1.2438
 IR Inten    --     12.6434                 8.3696                14.2886

                     25                     26                     27
                      A                      A                      A
 Frequencies --   1109.3289              1133.9221              1152.1343
 Red. masses --      1.5821                 2.7352                 1.7027
 Frc consts  --      1.1471                 2.0721                 1.3316
 IR Inten    --     31.1550                99.1710                14.7425

                     28                     29                     30
                      A                      A                      A
 Frequencies --   1203.3821              1220.6967              1229.4501
 Red. masses --      1.5631                 1.4451                 1.6180
 Frc consts  --      1.3337                 1.2687                 1.4410
 IR Inten    --      1.2508                 9.8254                14.5125

                     31                     32                     33
                      A                      A                      A
 Frequencies --   1244.7949              1265.1805              1273.0857
 Red. masses --      1.6484                 1.4642                 1.6213
 Frc consts  --      1.5049                 1.3809                 1.5482
 IR Inten    --      1.1309                 5.3047                 5.5159

                     34                     35                     36
                      A                      A                      A
 Frequencies --   1315.0834              1335.5383              1405.0867
 Red. masses --      1.4857                 1.6461                 1.2069
 Frc consts  --      1.5139                 1.7299                 1.4039
 IR Inten    --      3.8716                 1.9306                 0.9328

                     37                     38                     39
                      A                      A                      A
 Frequencies --   1437.7833              1473.7979              1494.1697
 Red. masses --      1.2178                 1.0969                 1.0456
 Frc consts  --      1.4833                 1.4037                 1.3754
 IR Inten    --     65.8962                 4.0199                 6.2903

                     40                     41                     42
                      A                      A                      A
 Frequencies --   1496.4812              1881.7374              3034.9232
 Red. masses --      1.0484                12.5759                 1.0389
 Frc consts  --      1.3833                26.2366                 5.6381
 IR Inten    --      2.4764               257.8346                19.1407

                     43                     44                     45
                      A                      A                      A
 Frequencies --   3036.5641              3057.6149              3066.1896
 Red. masses --      1.0788                 1.0595                 1.0869
 Frc consts  --      5.8606                 5.8359                 6.0203
 IR Inten    --     13.3854                25.8920                31.3579

                     46                     47                     48
                      A                      A                      A
 Frequencies --   3099.9880              3103.5907              3108.5428
 Red. masses --      1.0883                 1.1010                 1.0952
 Frc consts  --      6.1620                 6.2484                 6.2353
 IR Inten    --     22.2500                17.3325                 5.5237

                     49                     50                     51
                      A                      A                      A
 Frequencies --   3114.6679              3116.4275              3799.7563
 Red. masses --      1.1023                 1.1016                 1.0659
 Frc consts  --      6.3007                 6.3037                 9.0673
 IR Inten    --     23.0952                23.2269                14.2201

 - Thermochemistry -
 -------------------
 Temperature   298.150 Kelvin.  Pressure   1.00000 Atm.
 Atom     1 has atomic number  6 and mass  12.00000

 Molecular mass:   126.06808 amu.
 Principal axes and moments of inertia in atomic units:
                           1         2         3
     Eigenvalues --   621.351451426.220841857.49692
           X            0.99745   0.07138  -0.00179
           Y           -0.07138   0.99745   0.00041
           Z            0.00181  -0.00028   1.00000
 This molecule is an asymmetric top.
 Rotational symmetry number  1.
 Warning -- assumption of classical behavior for rotation
           may cause significant error
 Rotational temperatures (Kelvin)      0.13940     0.06073     0.04663
 Rotational constants (GHZ):           2.90454     1.26540     0.97160
 Zero-point vibrational energy     414979.2 (Joules/Mol)
                                   99.18241 (Kcal/Mol)
 Warning -- explicit consideration of  10 degrees of freedom as
           vibrations may cause significant error
 Vibrational temperatures:     49.16   197.69   253.93   284.24   318.97
          (Kelvin)            435.98   469.94   525.49   604.89   643.15
                              906.35  1006.15  1071.66  1146.39  1168.45
                             1249.93  1303.61  1329.34  1348.14  1414.57
                             1487.85  1509.83  1535.88  1563.45  1596.07
                             1631.46  1657.66  1731.40  1756.31  1768.90
                             1790.98  1820.31  1831.68  1892.11  1921.54
                             2021.60  2068.65  2120.46  2149.77  2153.10
                             2707.40  4366.57  4368.93  4399.22  4411.56
                             4460.19  4465.37  4472.49  4481.31  4483.84
                             5467.00

 Zero-point correction=                           0.158057 (Hartree/Particle)
 Thermal correction to Energy=                    0.166896
 Thermal correction to Enthalpy=                  0.167840
 Thermal correction to Gibbs Free Energy=         0.123912
 Sum of electronic and zero-point Energies=           -423.016438
 Sum of electronic and thermal Energies=              -423.007599
 Sum of electronic and thermal Enthalpies=            -423.006655
 Sum of electronic and thermal Free Energies=         -423.050583

                     E (Thermal)             CV                S
                      KCal/Mol        Cal/Mol-Kelvin    Cal/Mol-Kelvin
 Total                  104.729             33.035             92.455
 Electronic               0.000              0.000              0.000
 Translational            0.889              2.981             40.409
 Rotational               0.889              2.981             28.889
 Vibrational            102.951             27.073             23.157
 Vibration     1          0.594              1.983              5.572
 Vibration     2          0.614              1.916              2.840
 Vibration     3          0.628              1.871              2.365
 Vibration     4          0.637              1.843              2.156
 Vibration     5          0.648              1.808              1.945
 Vibration     6          0.694              1.668              1.400
 Vibration     7          0.710              1.622              1.277
 Vibration     8          0.738              1.544              1.100
 Vibration     9          0.783              1.426              0.891
 Vibration    10          0.806              1.367              0.805

 Normal termination of Gaussian 09 at Tue Jan 28 03:42:58 2020.
