 Gaussian 09, Revision D.01,
 Gaussian 09:  ES64L-G09RevD.01 24-Apr-2013

 -----------------------------
 # b3lyp 6-31G(2df,p) opt Freq
 -----------------------------

 -----
 titel
 -----
 Symbolic Z-matrix:
 Charge =  0 Multiplicity = 1

 SCF Done:  E(RB3LYP) =  -423.237322054     A.U. after   14 cycles
 Optimization completed.
    -- Stationary point found.
 Normal termination of Gaussian 09 at Tue Jan 28 00:49:51 2020.

 ----------------------------------------------------------------------
 #N Geom=AllCheck Guess=TCheck SCRF=Check GenChk RB3LYP/6-31G(2df,p) Fr
 eq
 ----------------------------------------------------------------------

 Structure from the checkpoint file:  "/scratch/puck/g09_82547aa8-4b23-4074-b90a-19e9efc8f37f/Gau-38630.chk"
 -----
 titel
 -----
 Charge =  0 Multiplicity = 1

                         Standard orientation:
 ---------------------------------------------------------------------
 Center     Atomic      Atomic             Coordinates (Angstroms)
 Number     Number       Type             X           Y           Z
 ---------------------------------------------------------------------
      1          6           0       -2.433489   -1.249569   -0.108600
      2          6           0       -1.069580   -0.652359    0.001787
      3          6           0       -0.743660    0.658481    0.050901
      4          6           0       -1.610235    1.875249   -0.030501
      5          6           0        0.723869    0.773783    0.118577
      6          8           0        1.413097    1.756585   -0.067585
      7          6           0        1.303087   -0.616463    0.400283
      8          8           0        2.486652   -0.842754   -0.323701
      9          6           0        0.147567   -1.558762    0.039731
     10          1           0       -2.502905   -1.893966   -0.993803
     11          1           0       -2.636908   -1.893726    0.756548
     12          1           0       -3.221690   -0.496424   -0.165361
     13          1           0       -1.142973    2.613921   -0.689315
     14          1           0       -2.612737    1.654884   -0.404171
     15          1           0       -1.712776    2.353240    0.951071
     16          1           0        1.489911   -0.673269    1.487522
     17          1           0        2.885427    0.032045   -0.440914
     18          1           0        0.333244   -2.000602   -0.947100
     19          1           0        0.018071   -2.388910    0.742752
 ---------------------------------------------------------------------

 SCF Done:  E(RB3LYP) =  -423.237322054     A.U. after    1 cycles

 The electronic state is 1-A.
 Alpha  occ. eigenvalues --  -19.13264 -19.12818 -10.25718 -10.23355 -10.21945
 Alpha  occ. eigenvalues --  -10.19996 -10.19617 -10.19562 -10.18804  -1.04284
 Alpha  occ. eigenvalues --   -1.01039  -0.86042  -0.75703  -0.74969  -0.67100
 Alpha  occ. eigenvalues --   -0.64825  -0.55909  -0.53219  -0.49607  -0.47497
 Alpha  occ. eigenvalues --   -0.46098  -0.43943  -0.42586  -0.41939  -0.40509
 Alpha  occ. eigenvalues --   -0.39103  -0.38874  -0.38114  -0.37081  -0.36060
 Alpha  occ. eigenvalues --   -0.33720  -0.27399  -0.25695  -0.24031
 Alpha virt. eigenvalues --   -0.04356   0.04996   0.08481   0.10603   0.11440
 Alpha virt. eigenvalues --    0.13090   0.14023   0.15297   0.15671   0.17322
 Alpha virt. eigenvalues --    0.18075   0.18618   0.19389   0.21002   0.24705

 Mulliken charges:
               1
     1  C   -0.490467
     2  C    0.206149
     3  C    0.117108
     4  C   -0.505828
     5  C    0.299121
     6  O   -0.358620
     7  C    0.052296
     8  O   -0.441280
     9  C   -0.331574
    10  H    0.140994
    11  H    0.140405
    12  H    0.132958
    13  H    0.150612
    14  H    0.123210
    15  H    0.138073
    16  H    0.090182
    17  H    0.290969
    18  H    0.135070
    19  H    0.110622
 Sum of Mulliken charges =   0.00000

 Dipole moment (field-independent basis, Debye):
    X=             -3.2253    Y=             -1.3780    Z=              0.5766  Tot=              3.5544
 Quadrupole moment (field-independent basis, Debye-Ang):
   XX=            -53.9150   YY=            -56.0102   ZZ=            -52.1143
   XY=              0.7302   XZ=              0.9682   YZ=             -0.4381

  Exact polarizability:  91.462   7.696  94.843   0.036  -0.336  55.520
 Approx polarizability: 127.006  24.357 153.765  -2.156  -0.687  87.463

                      1                      2                      3
                      A                      A                      A
 Frequencies --     72.9181                80.5632               128.5985
 Red. masses --      1.0315                 4.6486                 2.4262
 Frc consts  --      0.0032                 0.0178                 0.0236
 IR Inten    --      0.3932                 1.5714                 0.4029

                      4                      5                      6
                      A                      A                      A
 Frequencies --    141.0833               228.5548               267.1826
 Red. masses --      1.1435                 3.4292                 2.8628
 Frc consts  --      0.0134                 0.1055                 0.1204
 IR Inten    --      0.7533                11.6776                 4.5554

                      7                      8                      9
                      A                      A                      A
 Frequencies --    288.4078               302.1254               408.6716
 Red. masses --      2.6676                 3.7688                 1.7961
 Frc consts  --      0.1307                 0.2027                 0.1767
 IR Inten    --      2.1096                11.8747                72.8136

                     10                     11                     12
                      A                      A                      A
 Frequencies --    429.4194               493.8008               546.3193
 Red. masses --      1.9035                 2.3461                 4.6218
 Frc consts  --      0.2068                 0.3371                 0.8127
 IR Inten    --     10.6899                10.9109                 1.2459

                     13                     14                     15
                      A                      A                      A
 Frequencies --    550.7563               582.4894               699.8938
 Red. masses --      3.8176                 3.2344                 4.8829
 Frc consts  --      0.6823                 0.6466                 1.4093
 IR Inten    --      7.2406                 7.3623                 0.5888

                     16                     17                     18
                      A                      A                      A
 Frequencies --    796.0445               860.5382               925.7032
 Red. masses --      3.4522                 2.4055                 1.8636
 Frc consts  --      1.2889                 1.0495                 0.9409
 IR Inten    --      3.4796                 5.5393                 8.1518

                     19                     20                     21
                      A                      A                      A
 Frequencies --    958.5489              1004.6812              1043.6884
 Red. masses --      1.6925                 1.8813                 2.9911
 Frc consts  --      0.9162                 1.1189                 1.9196
 IR Inten    --      2.1544                 0.6275                79.3543

                     22                     23                     24
                      A                      A                      A
 Frequencies --   1062.3019              1067.4562              1118.7180
 Red. masses --      1.5731                 1.9993                 2.2062
 Frc consts  --      1.0459                 1.3423                 1.6268
 IR Inten    --      3.2798                 7.0063                23.5870

                     25                     26                     27
                      A                      A                      A
 Frequencies --   1140.0379              1191.8722              1196.4179
 Red. masses --      2.0579                 1.8551                 2.6515
 Frc consts  --      1.5759                 1.5526                 2.2362
 IR Inten    --     24.5970                18.8429                17.7745

                     28                     29                     30
                      A                      A                      A
 Frequencies --   1235.4162              1297.0555              1349.1846
 Red. masses --      1.2337                 1.4290                 2.4730
 Frc consts  --      1.1094                 1.4165                 2.6523
 IR Inten    --     24.8679                44.8864                43.9326

                     31                     32                     33
                      A                      A                      A
 Frequencies --   1369.1563              1411.5987              1412.9191
 Red. masses --      1.6532                 1.5085                 1.3388
 Frc consts  --      1.8259                 1.7710                 1.5747
 IR Inten    --     13.8140                33.1269                 5.8178

                     34                     35                     36
                      A                      A                      A
 Frequencies --   1417.7949              1473.4068              1477.0261
 Red. masses --      1.4523                 1.0549                 1.0495
 Frc consts  --      1.7200                 1.3492                 1.3491
 IR Inten    --     21.1899                 3.3340                 7.0945

                     37                     38                     39
                      A                      A                      A
 Frequencies --   1478.5504              1482.5438              1490.3581
 Red. masses --      1.0958                 1.0639                 1.0583
 Frc consts  --      1.4115                 1.3777                 1.3850
 IR Inten    --      0.5728                12.7199                 4.5458

                     40                     41                     42
                      A                      A                      A
 Frequencies --   1694.2700              1796.1786              2943.3348
 Red. masses --      7.2218                12.5387                 1.0804
 Frc consts  --     12.2141                23.8343                 5.5148
 IR Inten    --     62.5158               245.0382                37.9221

                     43                     44                     45
                      A                      A                      A
 Frequencies --   3023.0392              3034.8394              3036.0245
 Red. masses --      1.0401                 1.0399                 1.0591
 Frc consts  --      5.6004                 5.6431                 5.7517
 IR Inten    --     11.3815                21.8377                21.6253

                     46                     47                     48
                      A                      A                      A
 Frequencies --   3069.0643              3073.3810              3090.6881
 Red. masses --      1.0982                 1.1020                 1.0949
 Frc consts  --      6.0943                 6.1327                 6.1621
 IR Inten    --      5.1633                23.0054                10.4778

                     49                     50                     51
                      A                      A                      A
 Frequencies --   3124.3344              3130.9685              3727.2035
 Red. masses --      1.1013                 1.0977                 1.0653
 Frc consts  --      6.3337                 6.3398                 8.7191
 IR Inten    --      8.1006                21.3950                31.4781

 - Thermochemistry -
 -------------------
 Temperature   298.150 Kelvin.  Pressure   1.00000 Atm.
 Atom     1 has atomic number  6 and mass  12.00000

 Molecular mass:   126.06808 amu.
 Principal axes and moments of inertia in atomic units:
                           1         2         3
     Eigenvalues --   774.239891201.444641896.61565
           X            0.99991  -0.01185   0.00587
           Y            0.01187   0.99992  -0.00311
           Z           -0.00584   0.00318   0.99998
 This molecule is an asymmetric top.
 Rotational symmetry number  1.
 Warning -- assumption of classical behavior for rotation
           may cause significant error
 Rotational temperatures (Kelvin)      0.11187     0.07209     0.04567
 Rotational constants (GHZ):           2.33098     1.50214     0.95156
 Zero-point vibrational energy     414058.2 (Joules/Mol)
                                   98.96229 (Kcal/Mol)
 Warning -- explicit consideration of  14 degrees of freedom as
           vibrations may cause significant error
 Vibrational temperatures:    104.91   115.91   185.02   202.99   328.84
          (Kelvin)            384.42   414.95   434.69   587.99   617.84
                              710.47   786.03   792.41   838.07  1006.99
                             1145.33  1238.12  1331.88  1379.14  1445.51
                             1501.63  1528.41  1535.83  1609.58  1640.26
                             1714.84  1721.38  1777.49  1866.17  1941.17
                             1969.91  2030.97  2032.87  2039.89  2119.90
                             2125.11  2127.30  2133.05  2144.29  2437.67
                             2584.30  4234.80  4349.47  4366.45  4368.16
                             4415.69  4421.90  4446.81  4495.21  4504.76
                             5362.61

 Zero-point correction=                           0.157706 (Hartree/Particle)
 Thermal correction to Energy=                    0.167280
 Thermal correction to Enthalpy=                  0.168224
 Thermal correction to Gibbs Free Energy=         0.123010
 Sum of electronic and zero-point Energies=           -423.079616
 Sum of electronic and thermal Energies=              -423.070042
 Sum of electronic and thermal Enthalpies=            -423.069098
 Sum of electronic and thermal Free Energies=         -423.114312

                     E (Thermal)             CV                S
                      KCal/Mol        Cal/Mol-Kelvin    Cal/Mol-Kelvin
 Total                  104.970             34.633             95.162
 Electronic               0.000              0.000              0.000
 Translational            0.889              2.981             40.409
 Rotational               0.889              2.981             28.958
 Vibrational            103.192             28.672             25.796
 Vibration     1          0.599              1.967              4.073
 Vibration     2          0.600              1.962              3.877
 Vibration     3          0.611              1.925              2.967
 Vibration     4          0.615              1.912              2.789
 Vibration     5          0.651              1.797              1.890
 Vibration     6          0.672              1.733              1.614
 Vibration     7          0.685              1.695              1.483
 Vibration     8          0.694              1.670              1.405
 Vibration     9          0.773              1.451              0.931
 Vibration    10          0.791              1.406              0.861
 Vibration    11          0.849              1.264              0.674
 Vibration    12          0.902              1.148              0.552
 Vibration    13          0.906              1.138              0.543
 Vibration    14          0.939              1.069              0.481

 Optimization completed.
    -- Stationary point found.
 Normal termination of Gaussian 09 at Tue Jan 28 02:53:28 2020.
