 Gaussian 09, Revision D.01,
 Gaussian 09:  ES64L-G09RevD.01 24-Apr-2013

 -----------------------------
 # b3lyp 6-31G(2df,p) opt Freq
 -----------------------------

 -----
 titel
 -----
 Symbolic Z-matrix:
 Charge =  0 Multiplicity = 1

 SCF Done:  E(RB3LYP) =  -423.198659808     A.U. after   14 cycles
 Optimization completed.
    -- Stationary point found.
 Normal termination of Gaussian 09 at Tue Jan 28 11:42:55 2020.

 ----------------------------------------------------------------------
 #N Geom=AllCheck Guess=TCheck SCRF=Check GenChk RB3LYP/6-31G(2df,p) Fr
 eq
 ----------------------------------------------------------------------

 Structure from the checkpoint file:  "/scratch/puck/g09_7a0da6ac-b666-432a-bd32-c3e39ab3887b/Gau-24726.chk"
 -----
 titel
 -----
 Charge =  0 Multiplicity = 1

                         Standard orientation:
 ---------------------------------------------------------------------
 Center     Atomic      Atomic             Coordinates (Angstroms)
 Number     Number       Type             X           Y           Z
 ---------------------------------------------------------------------
      1          8           0       -2.298196   -1.194857    0.086783
      2          6           0       -2.039967    0.202031    0.129020
      3          6           0       -0.628379    0.434926   -0.386363
      4          6           0       -0.216980    1.933114   -0.404506
      5          6           0        1.221299    1.918407    0.052284
      6          6           0        1.595807    0.730657    0.519034
      7          6           0        0.478214   -0.279870    0.458115
      8          6           0        0.871315   -1.632909   -0.107366
      9          8           0        2.000720   -1.961102   -0.371718
     10          1           0       -3.175306   -1.357261    0.445695
     11          1           0       -2.760126    0.758151   -0.491716
     12          1           0       -2.122471    0.590418    1.157844
     13          1           0       -0.583910    0.046301   -1.410792
     14          1           0       -0.344783    2.382828   -1.395630
     15          1           0       -0.838298    2.527584    0.282417
     16          1           0        1.848495    2.802371    0.016400
     17          1           0        2.573967    0.478139    0.907837
     18          1           0        0.081064   -0.497254    1.464979
     19          1           0        0.013324   -2.321739   -0.258865
 ---------------------------------------------------------------------

 SCF Done:  E(RB3LYP) =  -423.198659808     A.U. after    1 cycles

 The electronic state is 1-A.
 Alpha  occ. eigenvalues --  -19.14685 -19.12935 -10.25808 -10.23682 -10.19887
 Alpha  occ. eigenvalues --  -10.19424 -10.19182 -10.18247 -10.17899  -1.03565
 Alpha  occ. eigenvalues --   -1.02704  -0.85243  -0.74781  -0.73120  -0.66145
 Alpha  occ. eigenvalues --   -0.59496  -0.56734  -0.52885  -0.51630  -0.49033
 Alpha  occ. eigenvalues --   -0.48226  -0.44552  -0.43447  -0.41785  -0.39577
 Alpha  occ. eigenvalues --   -0.37902  -0.37519  -0.35318  -0.34575  -0.33727
 Alpha  occ. eigenvalues --   -0.32880  -0.27976  -0.25467  -0.23339
 Alpha virt. eigenvalues --   -0.01034   0.02123   0.06593   0.09244   0.11366
 Alpha virt. eigenvalues --    0.13329   0.14382   0.15254   0.16069   0.16954
 Alpha virt. eigenvalues --    0.17132   0.18392   0.19340   0.20367   0.21536

 Mulliken charges:
               1
     1  O   -0.418802
     2  C   -0.100607
     3  C    0.009581
     4  C   -0.291830
     5  C   -0.082183
     6  C   -0.058996
     7  C   -0.126265
     8  C    0.136258
     9  O   -0.253194
    10  H    0.290811
    11  H    0.091690
    12  H    0.088592
    13  H    0.093213
    14  H    0.111072
    15  H    0.103944
    16  H    0.097280
    17  H    0.111132
    18  H    0.099069
    19  H    0.099234
 Sum of Mulliken charges =   0.00000

 Dipole moment (field-independent basis, Debye):
    X=             -3.4526    Y=              2.1128    Z=              1.1025  Tot=              4.1952
 Quadrupole moment (field-independent basis, Debye-Ang):
   XX=            -51.3625   YY=            -55.5107   ZZ=            -52.4674
   XY=              5.4752   XZ=             -0.0334   YZ=             -2.7510

  Exact polarizability:  85.665  -1.386  88.003   1.565  -3.717  57.625
 Approx polarizability: 121.148  -9.398 128.234   0.613  -7.814  92.826

                      1                      2                      3
                      A                      A                      A
 Frequencies --     53.6365                73.8951               119.2076
 Red. masses --      3.3622                 3.7629                 4.2543
 Frc consts  --      0.0057                 0.0121                 0.0356
 IR Inten    --      0.3303                 3.7527                 4.4340

                      4                      5                      6
                      A                      A                      A
 Frequencies --    190.4352               216.8774               253.9635
 Red. masses --      2.7674                 3.8907                 1.4333
 Frc consts  --      0.0591                 0.1078                 0.0545
 IR Inten    --      7.8457                 5.1147                62.4196

                      7                      8                      9
                      A                      A                      A
 Frequencies --    282.6159               388.0894               410.3778
 Red. masses --      1.6889                 4.1324                 2.2104
 Frc consts  --      0.0795                 0.3667                 0.2193
 IR Inten    --     40.9327                 1.7875                 2.1500

                     10                     11                     12
                      A                      A                      A
 Frequencies --    435.3775               606.6599               674.3725
 Red. masses --      3.8195                 2.9560                 2.1783
 Frc consts  --      0.4266                 0.6410                 0.5837
 IR Inten    --      4.5069                10.3755                 7.1726

                     13                     14                     15
                      A                      A                      A
 Frequencies --    759.3826               772.9157               799.3956
 Red. masses --      3.5952                 1.6700                 3.2879
 Frc consts  --      1.2215                 0.5878                 1.2379
 IR Inten    --      9.1154                23.4041                 9.0852

                     16                     17                     18
                      A                      A                      A
 Frequencies --    917.1558               947.5083               967.0515
 Red. masses --      1.7880                 2.0339                 1.8366
 Frc consts  --      0.8862                 1.0759                 1.0120
 IR Inten    --      1.7586                 6.0588                15.1273

                     19                     20                     21
                      A                      A                      A
 Frequencies --    975.2599              1001.2834              1039.3505
 Red. masses --      1.2522                 2.0206                 2.4772
 Frc consts  --      0.7017                 1.1936                 1.5766
 IR Inten    --      0.1362                 3.8274                 6.0280

                     22                     23                     24
                      A                      A                      A
 Frequencies --   1063.6162              1076.6175              1090.9087
 Red. masses --      2.4261                 2.4118                 2.4149
 Frc consts  --      1.6171                 1.6471                 1.6933
 IR Inten    --     54.0120                14.7658                21.6030

                     25                     26                     27
                      A                      A                      A
 Frequencies --   1120.7402              1138.3763              1184.7838
 Red. masses --      2.0503                 1.1831                 1.2584
 Frc consts  --      1.5173                 0.9033                 1.0408
 IR Inten    --     11.3612                 1.6153                 4.2522

                     28                     29                     30
                      A                      A                      A
 Frequencies --   1227.8529              1252.1730              1275.1844
 Red. masses --      1.3601                 1.1666                 1.3844
 Frc consts  --      1.2082                 1.0777                 1.3264
 IR Inten    --      3.9168                35.6358                 2.5906

                     31                     32                     33
                      A                      A                      A
 Frequencies --   1294.5884              1305.8285              1329.1642
 Red. masses --      1.4312                 1.3167                 1.5132
 Frc consts  --      1.4132                 1.3229                 1.5750
 IR Inten    --      1.0233                15.9922                 3.4843

                     34                     35                     36
                      A                      A                      A
 Frequencies --   1357.5257              1382.0927              1416.6130
 Red. masses --      1.5498                 1.5016                 1.2438
 Frc consts  --      1.6828                 1.6900                 1.4706
 IR Inten    --      2.1347                 4.1527                10.2646

                     37                     38                     39
                      A                      A                      A
 Frequencies --   1457.2011              1489.6903              1521.1566
 Red. masses --      1.4826                 1.0913                 1.0837
 Frc consts  --      1.8548                 1.4269                 1.4774
 IR Inten    --      8.6689                 0.2606                 3.0571

                     40                     41                     42
                      A                      A                      A
 Frequencies --   1694.6904              1821.6836              2916.9719
 Red. masses --      6.5406                10.2591                 1.0838
 Frc consts  --     11.0675                20.0589                 5.4331
 IR Inten    --      1.5517               176.8086                66.7974

                     43                     44                     45
                      A                      A                      A
 Frequencies --   2959.3494              2960.7127              2992.6907
 Red. masses --      1.0729                 1.0640                 1.0987
 Frc consts  --      5.5361                 5.4952                 5.7978
 IR Inten    --     39.7570                31.1858                34.2441

                     46                     47                     48
                      A                      A                      A
 Frequencies --   2995.1580              3033.9076              3056.8127
 Red. masses --      1.0732                 1.0858                 1.0911
 Frc consts  --      5.6725                 5.8884                 6.0069
 IR Inten    --     58.5085                17.0511                42.9245

                     49                     50                     51
                      A                      A                      A
 Frequencies --   3190.0369              3225.5679              3832.6238
 Red. masses --      1.0875                 1.1012                 1.0665
 Frc consts  --      6.5205                 6.7503                 9.2297
 IR Inten    --      9.9295                11.2579                25.5401

 - Thermochemistry -
 -------------------
 Temperature   298.150 Kelvin.  Pressure   1.00000 Atm.
 Atom     1 has atomic number  8 and mass  15.99491

 Molecular mass:   126.06808 amu.
 Principal axes and moments of inertia in atomic units:
                           1         2         3
     Eigenvalues --   945.639721138.840721933.95037
           X            0.99712   0.07570   0.00342
           Y           -0.07566   0.99707  -0.01144
           Z           -0.00428   0.01115   0.99993
 This molecule is an asymmetric top.
 Rotational symmetry number  1.
 Warning -- assumption of classical behavior for rotation
           may cause significant error
 Rotational temperatures (Kelvin)      0.09159     0.07605     0.04479
 Rotational constants (GHZ):           1.90849     1.58472     0.93319
 Zero-point vibrational energy     415996.2 (Joules/Mol)
                                   99.42547 (Kcal/Mol)
 Warning -- explicit consideration of  11 degrees of freedom as
           vibrations may cause significant error
 Vibrational temperatures:     77.17   106.32   171.51   273.99   312.04
          (Kelvin)            365.40   406.62   558.37   590.44   626.41
                              872.85   970.27  1092.58  1112.05  1150.15
                             1319.58  1363.25  1391.37  1403.18  1440.62
                             1495.39  1530.30  1549.01  1569.57  1612.49
                             1637.87  1704.64  1766.60  1801.60  1834.70
                             1862.62  1878.79  1912.37  1953.17  1988.52
                             2038.19  2096.58  2143.33  2188.60  2438.28
                             2620.99  4196.87  4257.84  4259.80  4305.81
                             4309.36  4365.11  4398.07  4589.75  4640.87
                             5514.28

 Zero-point correction=                           0.158445 (Hartree/Particle)
 Thermal correction to Energy=                    0.167562
 Thermal correction to Enthalpy=                  0.168506
 Thermal correction to Gibbs Free Energy=         0.123700
 Sum of electronic and zero-point Energies=           -423.040215
 Sum of electronic and thermal Energies=              -423.031098
 Sum of electronic and thermal Enthalpies=            -423.030154
 Sum of electronic and thermal Free Energies=         -423.074960

                     E (Thermal)             CV                S
                      KCal/Mol        Cal/Mol-Kelvin    Cal/Mol-Kelvin
 Total                  105.147             32.926             94.302
 Electronic               0.000              0.000              0.000
 Translational            0.889              2.981             40.409
 Rotational               0.889              2.981             29.123
 Vibrational            103.369             26.965             24.771
 Vibration     1          0.596              1.976              4.679
 Vibration     2          0.599              1.966              4.047
 Vibration     3          0.609              1.933              3.113
 Vibration     4          0.634              1.853              2.224
 Vibration     5          0.646              1.815              1.985
 Vibration     6          0.665              1.756              1.703
 Vibration     7          0.682              1.706              1.518
 Vibration     8          0.756              1.496              1.007
 Vibration     9          0.775              1.448              0.925
 Vibration    10          0.796              1.393              0.841
 Vibration    11          0.965              1.018              0.438

 Normal termination of Gaussian 09 at Tue Jan 28 12:23:13 2020.
