 Gaussian 09, Revision D.01,
 Gaussian 09:  ES64L-G09RevD.01 24-Apr-2013

 -----------------------------
 # b3lyp 6-31G(2df,p) opt Freq
 -----------------------------

 -----
 titel
 -----
 Symbolic Z-matrix:
 Charge =  0 Multiplicity = 1

 SCF Done:  E(RB3LYP) =  -423.111420367     A.U. after   14 cycles
 Optimization completed.
    -- Stationary point found.
 Normal termination of Gaussian 09 at Mon Jan 27 17:07:01 2020.

 ----------------------------------------------------------------------
 #N Geom=AllCheck Guess=TCheck SCRF=Check GenChk RB3LYP/6-31G(2df,p) Fr
 eq
 ----------------------------------------------------------------------

 Structure from the checkpoint file:  "/scratch/puck/g09_1a7bf4be-4199-42ef-9231-593a95686e13/Gau-167988.chk"
 -----
 titel
 -----
 Charge =  0 Multiplicity = 1

                         Standard orientation:
 ---------------------------------------------------------------------
 Center     Atomic      Atomic             Coordinates (Angstroms)
 Number     Number       Type             X           Y           Z
 ---------------------------------------------------------------------
      1          8           0        2.967561   -0.252835   -0.377889
      2          6           0        1.635809   -0.055936   -0.074487
      3          6           0        0.489935   -0.698727   -0.886608
      4          6           0       -0.193150    0.132252    0.243311
      5          6           0        0.867119   -0.453260    1.227120
      6          6           0        0.822991    1.275008   -0.077091
      7          6           0       -1.648324    0.293419    0.496443
      8          6           0       -2.640062   -0.699483    0.061119
      9          8           0       -2.475966    0.528697   -0.648794
     10          1           0        3.501319    0.262456    0.236488
     11          1           0        0.348090   -0.337525   -1.907247
     12          1           0        0.399616   -1.786196   -0.818629
     13          1           0        1.075641    0.134781    2.126196
     14          1           0        0.792300   -1.521606    1.446869
     15          1           0        0.700441    1.776605   -1.039871
     16          1           0        1.028609    1.983309    0.731506
     17          1           0       -1.900937    0.916157    1.357100
     18          1           0       -2.308479   -1.591378   -0.467748
     19          1           0       -3.575253   -0.803137    0.609952
 ---------------------------------------------------------------------

 SCF Done:  E(RB3LYP) =  -423.111420367     A.U. after    1 cycles

 The electronic state is 1-A.
 Alpha  occ. eigenvalues --  -19.14886 -19.14770 -10.25163 -10.23844 -10.23278
 Alpha  occ. eigenvalues --  -10.21175 -10.18860 -10.18605 -10.18591  -1.06846
 Alpha  occ. eigenvalues --   -1.03516  -0.91144  -0.69967  -0.67476  -0.67271
 Alpha  occ. eigenvalues --   -0.64976  -0.59088  -0.53987  -0.52991  -0.49386
 Alpha  occ. eigenvalues --   -0.46003  -0.45765  -0.43754  -0.40956  -0.40092
 Alpha  occ. eigenvalues --   -0.38034  -0.35661  -0.34421  -0.33700  -0.32039
 Alpha  occ. eigenvalues --   -0.30545  -0.29182  -0.26766  -0.25837
 Alpha virt. eigenvalues --    0.07801   0.09610   0.10034   0.11229   0.11748
 Alpha virt. eigenvalues --    0.12655   0.14455   0.15476   0.15722   0.16169
 Alpha virt. eigenvalues --    0.16582   0.17488   0.17894   0.19153   0.22295

 Mulliken charges:
               1
     1  O   -0.467307
     2  C    0.392724
     3  C   -0.298956
     4  C    0.370066
     5  C   -0.335263
     6  C   -0.330535
     7  C   -0.081734
     8  C   -0.180383
     9  O   -0.234631
    10  H    0.282704
    11  H    0.106034
    12  H    0.092123
    13  H    0.085472
    14  H    0.095236
    15  H    0.104407
    16  H    0.083671
    17  H    0.088148
    18  H    0.114042
    19  H    0.114182
 Sum of Mulliken charges =   0.00000

 Dipole moment (field-independent basis, Debye):
    X=              0.5216    Y=             -0.1496    Z=              2.2100  Tot=              2.2756
 Quadrupole moment (field-independent basis, Debye-Ang):
   XX=            -53.9361   YY=            -52.4444   ZZ=            -53.4932
   XY=              6.6045   XZ=              0.6450   YZ=              1.4711

  Exact polarizability:  87.401   5.394  71.722   1.291   2.318  69.158
 Approx polarizability: 114.643   5.336 110.744   3.545   2.182 108.114

                      1                      2                      3
                      A                      A                      A
 Frequencies --     63.6255               138.7590               159.5183
 Red. masses --      3.3449                 5.2751                 3.1565
 Frc consts  --      0.0080                 0.0598                 0.0473
 IR Inten    --      2.0814                 1.1861                 2.8711

                      4                      5                      6
                      A                      A                      A
 Frequencies --    252.7530               328.5326               361.0327
 Red. masses --      1.1149                 4.1608                 4.0747
 Frc consts  --      0.0420                 0.2646                 0.3129
 IR Inten    --     84.1586                 5.7060                22.2180

                      7                      8                      9
                      A                      A                      A
 Frequencies --    418.9394               472.9199               545.4611
 Red. masses --      3.4546                 3.1129                 1.8632
 Frc consts  --      0.3572                 0.4102                 0.3266
 IR Inten    --      4.4973                 3.7259                 0.1490

                     10                     11                     12
                      A                      A                      A
 Frequencies --    562.0959               622.3237               654.5570
 Red. masses --      1.8942                 3.5915                 2.8993
 Frc consts  --      0.3526                 0.8195                 0.7319
 IR Inten    --      0.6448                13.3769                 0.7154

                     13                     14                     15
                      A                      A                      A
 Frequencies --    779.0507               795.2040               853.3850
 Red. masses --      3.0326                 2.6891                 8.1690
 Frc consts  --      1.0844                 1.0019                 3.5052
 IR Inten    --      1.6671                 0.2160                21.5226

                     16                     17                     18
                      A                      A                      A
 Frequencies --    898.9393               938.7985               957.9459
 Red. masses --      2.6287                 4.4626                 1.2426
 Frc consts  --      1.2516                 2.3173                 0.6719
 IR Inten    --     26.9891                 6.8308                 0.0780

                     19                     20                     21
                      A                      A                      A
 Frequencies --    980.4906               985.9780              1044.0934
 Red. masses --      1.0429                 1.7551                 2.7593
 Frc consts  --      0.5907                 1.0053                 1.7722
 IR Inten    --      0.3444                 6.0299                19.7428

                     22                     23                     24
                      A                      A                      A
 Frequencies --   1049.9999              1094.0649              1108.4980
 Red. masses --      2.3686                 1.2769                 1.2754
 Frc consts  --      1.5386                 0.9005                 0.9234
 IR Inten    --     19.3153                 2.4686                10.6540

                     25                     26                     27
                      A                      A                      A
 Frequencies --   1113.3567              1123.7830              1136.8641
 Red. masses --      1.6700                 1.3179                 1.3655
 Frc consts  --      1.2197                 0.9806                 1.0399
 IR Inten    --     12.2484                 0.8785                 6.1083

                     28                     29                     30
                      A                      A                      A
 Frequencies --   1148.6856              1157.2527              1168.7757
 Red. masses --      1.4055                 1.3899                 1.4951
 Frc consts  --      1.0926                 1.0967                 1.2033
 IR Inten    --      2.1458                 1.2013                 3.3875

                     31                     32                     33
                      A                      A                      A
 Frequencies --   1175.4774              1176.7944              1279.0918
 Red. masses --      2.0163                 1.8502                 2.1187
 Frc consts  --      1.6415                 1.5096                 2.0423
 IR Inten    --      2.5307                 0.1799                20.4218

                     34                     35                     36
                      A                      A                      A
 Frequencies --   1298.3959              1320.7296              1383.0393
 Red. masses --      2.6463                 1.7016                 2.0636
 Frc consts  --      2.6285                 1.7488                 2.3256
 IR Inten    --    269.6757                 1.8057                 7.5244

                     37                     38                     39
                      A                      A                      A
 Frequencies --   1448.0418              1491.3722              1495.8899
 Red. masses --      2.1482                 1.1006                 1.1011
 Frc consts  --      2.6540                 1.4423                 1.4517
 IR Inten    --     22.0535                 0.6293                 0.6468

                     40                     41                     42
                      A                      A                      A
 Frequencies --   1526.5265              1565.2360              3041.7942
 Red. masses --      1.3568                 1.3530                 1.0544
 Frc consts  --      1.8628                 1.9530                 5.7478
 IR Inten    --      3.5558                20.1304                42.9389

                     43                     44                     45
                      A                      A                      A
 Frequencies --   3047.7269              3059.0002              3083.2392
 Red. masses --      1.0546                 1.0562                 1.0564
 Frc consts  --      5.7713                 5.8233                 5.9168
 IR Inten    --     56.4067                 7.4777                27.8212

                     46                     47                     48
                      A                      A                      A
 Frequencies --   3089.4225              3113.4280              3120.8161
 Red. masses --      1.0806                 1.1111                 1.1101
 Frc consts  --      6.0765                 6.3456                 6.3700
 IR Inten    --     24.6357                22.2213                32.4768

                     49                     50                     51
                      A                      A                      A
 Frequencies --   3128.9822              3172.5139              3809.5424
 Red. masses --      1.1101                 1.1194                 1.0657
 Frc consts  --      6.4034                 6.6380                 9.1122
 IR Inten    --     36.9508                26.9739                29.4302

 - Thermochemistry -
 -------------------
 Temperature   298.150 Kelvin.  Pressure   1.00000 Atm.
 Atom     1 has atomic number  8 and mass  15.99491

 Molecular mass:   126.06808 amu.
 Principal axes and moments of inertia in atomic units:
                           1         2         3
     Eigenvalues --   402.676041787.485551798.91103
           X            0.99983   0.01655   0.00753
           Y           -0.01815   0.88489   0.46544
           Z            0.00103  -0.46550   0.88505
 This molecule is an asymmetric top.
 Rotational symmetry number  1.
 Rotational temperatures (Kelvin)      0.21510     0.04846     0.04815
 Rotational constants (GHZ):           4.48187     1.00965     1.00324
 Zero-point vibrational energy     417154.2 (Joules/Mol)
                                   99.70226 (Kcal/Mol)
 Warning -- explicit consideration of  10 degrees of freedom as
           vibrations may cause significant error
 Vibrational temperatures:     91.54   199.64   229.51   363.65   472.68
          (Kelvin)            519.44   602.76   680.43   784.80   808.73
                              895.38   941.76  1120.88  1144.12  1227.83
                             1293.37  1350.72  1378.27  1410.71  1418.60
                             1502.22  1510.71  1574.11  1594.88  1601.87
                             1616.87  1635.69  1652.70  1665.03  1681.61
                             1691.25  1693.14  1840.33  1868.10  1900.23
                             1989.88  2083.41  2145.75  2152.25  2196.33
                             2252.02  4376.46  4384.99  4401.21  4436.09
                             4444.98  4479.52  4490.15  4501.90  4564.53
                             5481.07

 Zero-point correction=                           0.158886 (Hartree/Particle)
 Thermal correction to Energy=                    0.167017
 Thermal correction to Enthalpy=                  0.167961
 Thermal correction to Gibbs Free Energy=         0.125973
 Sum of electronic and zero-point Energies=           -422.952535
 Sum of electronic and thermal Energies=              -422.944404
 Sum of electronic and thermal Enthalpies=            -422.943460
 Sum of electronic and thermal Free Energies=         -422.985447

                     E (Thermal)             CV                S
                      KCal/Mol        Cal/Mol-Kelvin    Cal/Mol-Kelvin
 Total                  104.805             31.721             88.371
 Electronic               0.000              0.000              0.000
 Translational            0.889              2.981             40.409
 Rotational               0.889              2.981             28.650
 Vibrational            103.027             25.760             19.312
 Vibration     1          0.597              1.972              4.341
 Vibration     2          0.614              1.915              2.821
 Vibration     3          0.621              1.892              2.556
 Vibration     4          0.664              1.758              1.711
 Vibration     5          0.712              1.618              1.267
 Vibration     6          0.735              1.553              1.118
 Vibration     7          0.782              1.429              0.896
 Vibration     8          0.830              1.310              0.729
 Vibration     9          0.901              1.150              0.554
 Vibration    10          0.918              1.113              0.520

 Normal termination of Gaussian 09 at Mon Jan 27 17:49:43 2020.
