 Gaussian 09, Revision D.01,
 Gaussian 09:  ES64L-G09RevD.01 24-Apr-2013

 -----------------------------
 # b3lyp 6-31G(2df,p) opt Freq
 -----------------------------

 -----
 titel
 -----
 Symbolic Z-matrix:
 Charge =  0 Multiplicity = 1

 SCF Done:  E(RB3LYP) =  -423.159833462     A.U. after   14 cycles
 Optimization completed.
    -- Stationary point found.
 Normal termination of Gaussian 09 at Mon Jan 27 14:10:51 2020.

 ----------------------------------------------------------------------
 #N Geom=AllCheck Guess=TCheck SCRF=Check GenChk RB3LYP/6-31G(2df,p) Fr
 eq
 ----------------------------------------------------------------------

 Structure from the checkpoint file:  "/scratch/puck/g09_eeb50dae-1c4b-4a3b-8ca1-436d33f3bff4/Gau-70719.chk"
 -----
 titel
 -----
 Charge =  0 Multiplicity = 1

                         Standard orientation:
 ---------------------------------------------------------------------
 Center     Atomic      Atomic             Coordinates (Angstroms)
 Number     Number       Type             X           Y           Z
 ---------------------------------------------------------------------
      1          6           0       -2.404959    1.251295    0.153564
      2          6           0       -2.011883   -0.205273    0.038432
      3          8           0       -2.634416   -1.005245   -0.621215
      4          6           0       -0.732679   -0.622739    0.767365
      5          6           0        0.471404   -0.514176   -0.166363
      6          8           0        0.758498    0.879651   -0.509249
      7          6           0        2.006020    0.804886    0.188197
      8          6           0        2.913335   -0.194473   -0.453605
      9          6           0        1.835728   -0.661084    0.505165
     10          1           0       -2.636010    1.496004    1.197327
     11          1           0       -1.552041    1.873448   -0.138519
     12          1           0       -3.271920    1.461361   -0.473841
     13          1           0       -0.554258   -0.006248    1.654194
     14          1           0       -0.840628   -1.669979    1.068224
     15          1           0        0.301048   -1.113686   -1.068719
     16          1           0        2.313471    1.662383    0.774989
     17          1           0        2.828152   -0.386542   -1.519602
     18          1           0        3.921839   -0.238697   -0.053741
     19          1           0        2.035890   -1.223910    1.406873
 ---------------------------------------------------------------------

 SCF Done:  E(RB3LYP) =  -423.159833462     A.U. after    1 cycles

 The electronic state is 1-A.
 Alpha  occ. eigenvalues --  -19.14687 -19.12378 -10.26699 -10.25092 -10.24783
 Alpha  occ. eigenvalues --  -10.20430 -10.19739 -10.19262 -10.18028  -1.05945
 Alpha  occ. eigenvalues --   -1.03450  -0.83989  -0.78560  -0.73063  -0.65922
 Alpha  occ. eigenvalues --   -0.61303  -0.55009  -0.53425  -0.52013  -0.49150
 Alpha  occ. eigenvalues --   -0.47807  -0.44454  -0.43829  -0.43243  -0.39994
 Alpha  occ. eigenvalues --   -0.39065  -0.38605  -0.37092  -0.35358  -0.34396
 Alpha  occ. eigenvalues --   -0.32798  -0.28485  -0.24671  -0.23847
 Alpha virt. eigenvalues --   -0.01021   0.07624   0.09999   0.10674   0.11997
 Alpha virt. eigenvalues --    0.12579   0.13061   0.14508   0.15134   0.16240
 Alpha virt. eigenvalues --    0.16831   0.17414   0.19457   0.20371   0.20804

 Mulliken charges:
               1
     1  C   -0.481991
     2  C    0.383849
     3  O   -0.305527
     4  C   -0.305968
     5  C    0.131845
     6  O   -0.302411
     7  C    0.109072
     8  C   -0.305963
     9  C   -0.136825
    10  H    0.133535
    11  H    0.163866
    12  H    0.135880
    13  H    0.104780
    14  H    0.122644
    15  H    0.102912
    16  H    0.106802
    17  H    0.121618
    18  H    0.118892
    19  H    0.102990
 Sum of Mulliken charges =   0.00000

 Dipole moment (field-independent basis, Debye):
    X=              2.5044    Y=              0.6992    Z=              2.2937  Tot=              3.4672
 Quadrupole moment (field-independent basis, Debye-Ang):
   XX=            -54.5737   YY=            -54.3421   ZZ=            -52.4999
   XY=             -4.9125   XZ=             -2.2181   YZ=             -0.0777

  Exact polarizability:  93.429   0.427  71.435   1.453   2.609  64.022
 Approx polarizability: 117.185   6.164 113.562   5.427   5.598 100.518

                      1                      2                      3
                      A                      A                      A
 Frequencies --     45.6459                80.6371               127.5049
 Red. masses --      4.5727                 3.8076                 4.1546
 Frc consts  --      0.0056                 0.0146                 0.0398
 IR Inten    --      6.0829                 2.4021                 0.7311

                      4                      5                      6
                      A                      A                      A
 Frequencies --    180.2877               198.7457               276.5889
 Red. masses --      1.0724                 2.8900                 3.9110
 Frc consts  --      0.0205                 0.0673                 0.1763
 IR Inten    --      0.1468                 1.2233                 0.8377

                      7                      8                      9
                      A                      A                      A
 Frequencies --    386.3647               430.0646               469.5921
 Red. masses --      2.2110                 3.1736                 2.5928
 Frc consts  --      0.1945                 0.3458                 0.3369
 IR Inten    --      2.2661                 1.7926                 3.1720

                     10                     11                     12
                      A                      A                      A
 Frequencies --    535.2277               606.4440               758.2235
 Red. masses --      2.8234                 2.4826                 1.7493
 Frc consts  --      0.4765                 0.5380                 0.5925
 IR Inten    --     17.7687                 1.6262                 9.8744

                     13                     14                     15
                      A                      A                      A
 Frequencies --    772.3101               794.0084               844.4588
 Red. masses --      2.1050                 3.7454                 2.0479
 Frc consts  --      0.7397                 1.3912                 0.8604
 IR Inten    --      7.1352                 5.0949                 6.9003

                     16                     17                     18
                      A                      A                      A
 Frequencies --    883.3945               918.6515               925.0055
 Red. masses --      3.3412                 1.7374                 2.2860
 Frc consts  --      1.5363                 0.8639                 1.1524
 IR Inten    --     21.9739                 7.8043                15.8683

                     19                     20                     21
                      A                      A                      A
 Frequencies --    966.7871               982.7734              1024.0388
 Red. masses --      2.4890                 1.8934                 1.6969
 Frc consts  --      1.3707                 1.0774                 1.0484
 IR Inten    --      4.5994                18.5802                15.5417

                     22                     23                     24
                      A                      A                      A
 Frequencies --   1037.7090              1048.1735              1066.4952
 Red. masses --      1.6902                 1.5503                 1.7534
 Frc consts  --      1.0724                 1.0036                 1.1750
 IR Inten    --     36.6134                 3.9264                 4.2989

                     25                     26                     27
                      A                      A                      A
 Frequencies --   1068.6523              1087.1101              1113.6714
 Red. masses --      1.7669                 1.7397                 2.5103
 Frc consts  --      1.1889                 1.2113                 1.8344
 IR Inten    --      0.2932                27.9958                37.8736

                     28                     29                     30
                      A                      A                      A
 Frequencies --   1172.6256              1206.1068              1232.7776
 Red. masses --      1.6488                 2.0652                 1.3263
 Frc consts  --      1.3358                 1.7701                 1.1876
 IR Inten    --     48.9775                 8.3387                 4.3324

                     31                     32                     33
                      A                      A                      A
 Frequencies --   1249.6466              1287.2390              1310.7495
 Red. masses --      1.4961                 1.5911                 1.7040
 Frc consts  --      1.3765                 1.5533                 1.7249
 IR Inten    --     24.9570                11.4315                 0.9995

                     34                     35                     36
                      A                      A                      A
 Frequencies --   1358.3919              1379.2867              1385.5677
 Red. masses --      1.7458                 1.3743                 1.4818
 Frc consts  --      1.8980                 1.5404                 1.6760
 IR Inten    --     44.1424                40.8701                26.0541

                     37                     38                     39
                      A                      A                      A
 Frequencies --   1459.6094              1471.8997              1472.7289
 Red. masses --      1.0849                 1.0730                 1.2638
 Frc consts  --      1.3618                 1.3697                 1.6150
 IR Inten    --      6.0258                 5.7590                 5.5444

                     40                     41                     42
                      A                      A                      A
 Frequencies --   1475.1976              1813.5295              3033.2121
 Red. masses --      1.0585                10.3730                 1.0378
 Frc consts  --      1.3572                20.1003                 5.6258
 IR Inten    --      9.7443               164.9065                 3.8723

                     43                     44                     45
                      A                      A                      A
 Frequencies --   3039.6949              3046.9335              3098.5645
 Red. masses --      1.0803                 1.0606                 1.0966
 Frc consts  --      5.8810                 5.8012                 6.2033
 IR Inten    --     16.2016                18.2990                 3.2075

                     46                     47                     48
                      A                      A                      A
 Frequencies --   3105.1923              3116.7061              3154.0693
 Red. masses --      1.1056                 1.0539                 1.1033
 Frc consts  --      6.2807                 6.0318                 6.4666
 IR Inten    --     17.8959                11.8129                10.2263

                     49                     50                     51
                      A                      A                      A
 Frequencies --   3181.9420              3202.1627              3212.2851
 Red. masses --      1.0919                 1.1037                 1.1092
 Frc consts  --      6.5134                 6.6681                 6.7433
 IR Inten    --     19.7598                 2.1849                13.4336

 - Thermochemistry -
 -------------------
 Temperature   298.150 Kelvin.  Pressure   1.00000 Atm.
 Atom     1 has atomic number  6 and mass  12.00000

 Molecular mass:   126.06808 amu.
 Principal axes and moments of inertia in atomic units:
                           1         2         3
     Eigenvalues --   431.674791886.164092063.84036
           X            0.99960  -0.02716  -0.00746
           Y            0.02724   0.99957   0.01046
           Z            0.00717  -0.01066   0.99992
 This molecule is an asymmetric top.
 Rotational symmetry number  1.
 Rotational temperatures (Kelvin)      0.20065     0.04592     0.04197
 Rotational constants (GHZ):           4.18079     0.95683     0.87446
 Zero-point vibrational energy     413278.0 (Joules/Mol)
                                   98.77581 (Kcal/Mol)
 Warning -- explicit consideration of  11 degrees of freedom as
           vibrations may cause significant error
 Vibrational temperatures:     65.67   116.02   183.45   259.39   285.95
          (Kelvin)            397.95   555.89   618.77   675.64   770.07
                              872.54  1090.91  1111.18  1142.40  1214.99
                             1271.01  1321.73  1330.87  1390.99  1413.99
                             1473.36  1493.03  1508.09  1534.45  1537.55
                             1564.11  1602.32  1687.14  1735.32  1773.69
                             1797.96  1852.05  1885.87  1954.42  1984.48
                             1993.52  2100.05  2117.73  2118.93  2122.48
                             2609.26  4364.11  4373.44  4383.85  4458.14
                             4467.67  4484.24  4538.00  4578.10  4607.19
                             4621.76

 Zero-point correction=                           0.157409 (Hartree/Particle)
 Thermal correction to Energy=                    0.166254
 Thermal correction to Enthalpy=                  0.167198
 Thermal correction to Gibbs Free Energy=         0.122946
 Sum of electronic and zero-point Energies=           -423.002424
 Sum of electronic and thermal Energies=              -422.993579
 Sum of electronic and thermal Enthalpies=            -422.992635
 Sum of electronic and thermal Free Energies=         -423.036887

                     E (Thermal)             CV                S
                      KCal/Mol        Cal/Mol-Kelvin    Cal/Mol-Kelvin
 Total                  104.326             32.582             93.136
 Electronic               0.000              0.000              0.000
 Translational            0.889              2.981             40.409
 Rotational               0.889              2.981             28.909
 Vibrational            102.549             26.620             23.818
 Vibration     1          0.595              1.979              4.998
 Vibration     2          0.600              1.962              3.875
 Vibration     3          0.611              1.926              2.983
 Vibration     4          0.629              1.866              2.325
 Vibration     5          0.637              1.842              2.145
 Vibration     6          0.678              1.717              1.555
 Vibration     7          0.755              1.499              1.014
 Vibration     8          0.791              1.405              0.858
 Vibration     9          0.827              1.318              0.739
 Vibration    10          0.890              1.172              0.576
 Vibration    11          0.965              1.018              0.439

 Optimization completed.
    -- Stationary point found.
 Normal termination of Gaussian 09 at Mon Jan 27 14:57:35 2020.
