 Gaussian 09, Revision D.01,
 Gaussian 09:  ES64L-G09RevD.01 24-Apr-2013

 -----------------------------
 # b3lyp 6-31G(2df,p) opt Freq
 -----------------------------

 -----
 titel
 -----
 Symbolic Z-matrix:
 Charge =  0 Multiplicity = 1

 SCF Done:  E(RB3LYP) =  -423.126458945     A.U. after   13 cycles
 Optimization completed.
    -- Stationary point found.
 Normal termination of Gaussian 09 at Tue Jan 28 02:42:40 2020.

 ----------------------------------------------------------------------
 #N Geom=AllCheck Guess=TCheck SCRF=Check GenChk RB3LYP/6-31G(2df,p) Fr
 eq
 ----------------------------------------------------------------------

 Structure from the checkpoint file:  "/scratch/puck/g09_96a5f81f-2d74-439d-bdb1-f07123015d6d/Gau-195716.chk"
 -----
 titel
 -----
 Charge =  0 Multiplicity = 1

                         Standard orientation:
 ---------------------------------------------------------------------
 Center     Atomic      Atomic             Coordinates (Angstroms)
 Number     Number       Type             X           Y           Z
 ---------------------------------------------------------------------
      1          8           0        2.336678   -1.360497   -0.355131
      2          6           0        1.853074   -0.182022    0.243495
      3          6           0        0.550367   -0.358844    1.095974
      4          6           0       -0.198765    0.559320    0.117210
      5          6           0        0.480163    1.899163    0.069388
      6          6           0        1.092201    0.760761   -0.698941
      7          6           0       -1.578098    0.333209   -0.369345
      8          6           0       -2.605032   -0.331529    0.445393
      9          8           0       -1.952467   -1.031333   -0.616165
     10          1           0        1.605607   -1.769626   -0.833253
     11          1           0        2.711505    0.257416    0.761313
     12          1           0        0.208257   -1.395386    1.042606
     13          1           0        0.576962   -0.039828    2.143242
     14          1           0       -0.007533    2.655442   -0.539013
     15          1           0        0.966583    2.293666    0.959211
     16          1           0        1.229621    0.799671   -1.773929
     17          1           0       -1.916379    1.028232   -1.140223
     18          1           0       -2.353869   -0.669861    1.449707
     19          1           0       -3.657907   -0.105424    0.281668
 ---------------------------------------------------------------------

 SCF Done:  E(RB3LYP) =  -423.126458945     A.U. after    1 cycles

 The electronic state is 1-A.
 Alpha  occ. eigenvalues --  -19.15191 -19.13507 -10.24317 -10.23578 -10.23545
 Alpha  occ. eigenvalues --  -10.20553 -10.19694 -10.19320 -10.18385  -1.07077
 Alpha  occ. eigenvalues --   -1.02031  -0.89796  -0.72641  -0.69995  -0.65590
 Alpha  occ. eigenvalues --   -0.63190  -0.59456  -0.54122  -0.52294  -0.50352
 Alpha  occ. eigenvalues --   -0.47334  -0.46124  -0.43916  -0.41508  -0.40199
 Alpha  occ. eigenvalues --   -0.38346  -0.37230  -0.36733  -0.33528  -0.31987
 Alpha  occ. eigenvalues --   -0.30042  -0.27206  -0.26099  -0.24865
 Alpha virt. eigenvalues --    0.07898   0.08524   0.09776   0.11019   0.11214
 Alpha virt. eigenvalues --    0.11758   0.12341   0.13755   0.15032   0.16239
 Alpha virt. eigenvalues --    0.16681   0.18101   0.19711   0.20044   0.22602

 Mulliken charges:
               1
     1  O   -0.436698
     2  C    0.161883
     3  C   -0.351854
     4  C    0.390295
     5  C   -0.348130
     6  C   -0.152005
     7  C   -0.057833
     8  C   -0.183393
     9  O   -0.242933
    10  H    0.282754
    11  H    0.087781
    12  H    0.117623
    13  H    0.093027
    14  H    0.116126
    15  H    0.109016
    16  H    0.093748
    17  H    0.088825
    18  H    0.115348
    19  H    0.116419
 Sum of Mulliken charges =   0.00000

 Dipole moment (field-independent basis, Debye):
    X=             -1.4533    Y=              1.8647    Z=              0.6014  Tot=              2.4394
 Quadrupole moment (field-independent basis, Debye-Ang):
   XX=            -57.0708   YY=            -53.9355   ZZ=            -51.3269
   XY=              0.4268   XZ=             -1.1404   YZ=             -1.1850

  Exact polarizability:  86.361   2.539  73.220  -1.950  -2.531  68.158
 Approx polarizability: 115.699   4.039 111.428  -5.153   0.054 105.429

                      1                      2                      3
                      A                      A                      A
 Frequencies --     65.4918               104.4758               187.4800
 Red. masses --      4.6876                 3.6723                 2.8740
 Frc consts  --      0.0118                 0.0236                 0.0595
 IR Inten    --      1.4623                 3.4480                 0.8549

                      4                      5                      6
                      A                      A                      A
 Frequencies --    222.2200               323.9201               376.2860
 Red. masses --      3.5302                 1.6680                 1.7973
 Frc consts  --      0.1027                 0.1031                 0.1499
 IR Inten    --      6.9740                16.4837                42.4556

                      7                      8                      9
                      A                      A                      A
 Frequencies --    398.5614               422.2940               471.7748
 Red. masses --      2.3389                 2.8057                 2.8695
 Frc consts  --      0.2189                 0.2948                 0.3763
 IR Inten    --     20.9839                 6.9746                 3.6169

                     10                     11                     12
                      A                      A                      A
 Frequencies --    508.9625               629.8737               744.6346
 Red. masses --      3.8006                 2.5095                 2.3354
 Frc consts  --      0.5801                 0.5866                 0.7629
 IR Inten    --      8.3186                 2.3660                 6.0687

                     13                     14                     15
                      A                      A                      A
 Frequencies --    816.4999               834.5150               850.2448
 Red. masses --      2.3564                 5.0420                 2.8446
 Frc consts  --      0.9256                 2.0688                 1.2116
 IR Inten    --      2.5339                16.4754                10.0269

                     16                     17                     18
                      A                      A                      A
 Frequencies --    875.7056               907.7188               943.3418
 Red. masses --      1.9507                 3.1106                 1.7510
 Frc consts  --      0.8814                 1.5101                 0.9181
 IR Inten    --      8.1112                47.7657                 0.6268

                     19                     20                     21
                      A                      A                      A
 Frequencies --    991.5765              1004.7344              1008.5078
 Red. masses --      2.0185                 1.3748                 1.5188
 Frc consts  --      1.1693                 0.8177                 0.9101
 IR Inten    --      6.9993                 8.8817                15.2863

                     22                     23                     24
                      A                      A                      A
 Frequencies --   1033.3239              1048.0138              1087.2619
 Red. masses --      2.2153                 1.6510                 1.3195
 Frc consts  --      1.3937                 1.0684                 0.9190
 IR Inten    --      0.5680                 4.5876                 7.4213

                     25                     26                     27
                      A                      A                      A
 Frequencies --   1097.8768              1117.6145              1143.7001
 Red. masses --      1.2837                 1.9873                 1.5590
 Frc consts  --      0.9116                 1.4625                 1.2015
 IR Inten    --      0.3373                39.5829                76.0695

                     28                     29                     30
                      A                      A                      A
 Frequencies --   1156.8128              1167.9053              1224.9110
 Red. masses --      1.3786                 1.3421                 1.6914
 Frc consts  --      1.0870                 1.0786                 1.4952
 IR Inten    --      2.0458                 3.0685                 3.1739

                     31                     32                     33
                      A                      A                      A
 Frequencies --   1232.2071              1262.4723              1269.5951
 Red. masses --      1.5721                 1.6800                 1.9385
 Frc consts  --      1.4064                 1.5776                 1.8410
 IR Inten    --      1.7323                 6.2627                11.0895

                     34                     35                     36
                      A                      A                      A
 Frequencies --   1294.3774              1321.4653              1362.0045
 Red. masses --      1.7367                 2.0616                 1.8454
 Frc consts  --      1.7144                 2.1211                 2.0170
 IR Inten    --      1.3257                 3.9306                12.2623

                     37                     38                     39
                      A                      A                      A
 Frequencies --   1433.3704              1454.2682              1477.2846
 Red. masses --      1.2565                 1.7514                 1.1275
 Frc consts  --      1.5210                 2.1824                 1.4497
 IR Inten    --     88.4630                13.9621                 1.2746

                     40                     41                     42
                      A                      A                      A
 Frequencies --   1501.6068              1528.4900              3042.0620
 Red. masses --      1.3584                 1.4622                 1.0627
 Frc consts  --      1.8046                 2.0128                 5.7944
 IR Inten    --      3.1131                 4.6737                28.1651

                     43                     44                     45
                      A                      A                      A
 Frequencies --   3061.0734              3082.2652              3092.0941
 Red. masses --      1.0853                 1.0507                 1.0866
 Frc consts  --      5.9917                 5.8811                 6.1209
 IR Inten    --     53.5454                28.6642                19.7348

                     46                     47                     48
                      A                      A                      A
 Frequencies --   3101.1524              3111.8888              3169.4693
 Red. masses --      1.0573                 1.1033                 1.1195
 Frc consts  --      5.9910                 6.2949                 6.6257
 IR Inten    --     20.8913                19.4921                26.4489

                     49                     50                     51
                      A                      A                      A
 Frequencies --   3175.9672              3191.6871              3786.2212
 Red. masses --      1.0953                 1.1109                 1.0657
 Frc consts  --      6.5093                 6.6673                 9.0014
 IR Inten    --      8.7637                14.3761                12.3174

 - Thermochemistry -
 -------------------
 Temperature   298.150 Kelvin.  Pressure   1.00000 Atm.
 Atom     1 has atomic number  8 and mass  15.99491

 Molecular mass:   126.06808 amu.
 Principal axes and moments of inertia in atomic units:
                           1         2         3
     Eigenvalues --   618.030361448.924121723.49871
           X            0.99999   0.00276  -0.00436
           Y           -0.00291   0.99942  -0.03400
           Z            0.00426   0.03402   0.99941
 This molecule is an asymmetric top.
 Rotational symmetry number  1.
 Warning -- assumption of classical behavior for rotation
           may cause significant error
 Rotational temperatures (Kelvin)      0.14014     0.05978     0.05025
 Rotational constants (GHZ):           2.92015     1.24557     1.04714
 Zero-point vibrational energy     417001.8 (Joules/Mol)
                                   99.66583 (Kcal/Mol)
 Warning -- explicit consideration of  10 degrees of freedom as
           vibrations may cause significant error
 Vibrational temperatures:     94.23   150.32   269.74   319.72   466.05
          (Kelvin)            541.39   573.44   607.59   678.78   732.28
                              906.25  1071.36  1174.76  1200.68  1223.31
                             1259.94  1306.00  1357.26  1426.66  1445.59
                             1451.02  1486.72  1507.86  1564.33  1579.60
                             1608.00  1645.53  1664.39  1680.35  1762.37
                             1772.87  1816.41  1826.66  1862.32  1901.29
                             1959.62  2062.30  2092.37  2125.48  2160.47
                             2199.15  4376.84  4404.20  4434.69  4448.83
                             4461.86  4477.31  4560.15  4569.50  4592.12
                             5447.52

 Zero-point correction=                           0.158828 (Hartree/Particle)
 Thermal correction to Energy=                    0.167109
 Thermal correction to Enthalpy=                  0.168053
 Thermal correction to Gibbs Free Energy=         0.125622
 Sum of electronic and zero-point Energies=           -422.967631
 Sum of electronic and thermal Energies=              -422.959350
 Sum of electronic and thermal Enthalpies=            -422.958406
 Sum of electronic and thermal Free Energies=         -423.000837

                     E (Thermal)             CV                S
                      KCal/Mol        Cal/Mol-Kelvin    Cal/Mol-Kelvin
 Total                  104.863             31.963             89.305
 Electronic               0.000              0.000              0.000
 Translational            0.889              2.981             40.409
 Rotational               0.889              2.981             28.825
 Vibrational            103.085             26.002             20.071
 Vibration     1          0.597              1.971              4.284
 Vibration     2          0.605              1.946              3.369
 Vibration     3          0.632              1.857              2.253
 Vibration     4          0.648              1.807              1.941
 Vibration     5          0.708              1.628              1.290
 Vibration     6          0.747              1.521              1.054
 Vibration     7          0.765              1.473              0.968
 Vibration     8          0.785              1.422              0.884
 Vibration     9          0.829              1.313              0.733
 Vibration    10          0.864              1.230              0.636

 Optimization completed.
    -- Stationary point found.
 Normal termination of Gaussian 09 at Tue Jan 28 03:25:20 2020.
