 Gaussian 09, Revision D.01,
 Gaussian 09:  ES64L-G09RevD.01 24-Apr-2013

 -----------------------------
 # b3lyp 6-31G(2df,p) opt Freq
 -----------------------------

 -----
 titel
 -----
 Symbolic Z-matrix:
 Charge =  0 Multiplicity = 1

 SCF Done:  E(RB3LYP) =  -423.220116307     A.U. after   14 cycles
 Optimization completed.
    -- Stationary point found.
 Normal termination of Gaussian 09 at Tue Jan 28 00:41:58 2020.

 ----------------------------------------------------------------------
 #N Geom=AllCheck Guess=TCheck SCRF=Check GenChk RB3LYP/6-31G(2df,p) Fr
 eq
 ----------------------------------------------------------------------

 Structure from the checkpoint file:  "/scratch/puck/g09_0e322cbe-5d66-4e24-9085-f0243bc015e8/Gau-81430.chk"
 -----
 titel
 -----
 Charge =  0 Multiplicity = 1

                         Standard orientation:
 ---------------------------------------------------------------------
 Center     Atomic      Atomic             Coordinates (Angstroms)
 Number     Number       Type             X           Y           Z
 ---------------------------------------------------------------------
      1          6           0        2.797267   -0.516784   -0.361092
      2          6           0        1.513221   -0.128818    0.369508
      3          8           0        0.496536   -1.001804   -0.085338
      4          6           0       -0.808827   -0.697062    0.391047
      5          6           0       -1.764587   -1.754917   -0.133494
      6          6           0       -1.220290    0.724694   -0.019178
      7          8           0       -2.380246    1.036866   -0.196923
      8          6           0       -0.112194    1.696476   -0.092684
      9          6           0        1.146040    1.314379    0.149706
     10          1           0        2.683254   -0.357558   -1.436876
     11          1           0        3.641212    0.079604   -0.002691
     12          1           0        3.014948   -1.573241   -0.187490
     13          1           0        1.668400   -0.277375    1.457512
     14          1           0       -0.809971   -0.712116    1.498496
     15          1           0       -1.721180   -1.790645   -1.225584
     16          1           0       -1.495033   -2.737854    0.259624
     17          1           0       -2.785181   -1.508203    0.163268
     18          1           0       -0.385657    2.728855   -0.286615
     19          1           0        1.955110    2.040223    0.195568
 ---------------------------------------------------------------------

 SCF Done:  E(RB3LYP) =  -423.220116307     A.U. after    1 cycles

 The electronic state is 1-A.
 Alpha  occ. eigenvalues --  -19.14914 -19.12717 -10.26359 -10.25315 -10.24016
 Alpha  occ. eigenvalues --  -10.21476 -10.19708 -10.18870 -10.17433  -1.05076
 Alpha  occ. eigenvalues --   -1.03200  -0.81771  -0.78823  -0.73405  -0.66253
 Alpha  occ. eigenvalues --   -0.62839  -0.60015  -0.53224  -0.51373  -0.48397
 Alpha  occ. eigenvalues --   -0.46526  -0.44649  -0.42467  -0.41199  -0.40042
 Alpha  occ. eigenvalues --   -0.39040  -0.38101  -0.37531  -0.36842  -0.36012
 Alpha  occ. eigenvalues --   -0.32533  -0.28906  -0.27564  -0.23154
 Alpha virt. eigenvalues --   -0.05498   0.04889   0.09028   0.11440   0.11977
 Alpha virt. eigenvalues --    0.13070   0.14706   0.15403   0.16016   0.16591
 Alpha virt. eigenvalues --    0.17966   0.18905   0.19315   0.20318   0.21771

 Mulliken charges:
               1
     1  C   -0.404268
     2  C    0.088342
     3  O   -0.270945
     4  C    0.012381
     5  C   -0.400477
     6  C    0.359190
     7  O   -0.330366
     8  C   -0.166898
     9  C   -0.058712
    10  H    0.133811
    11  H    0.118263
    12  H    0.133260
    13  H    0.083428
    14  H    0.086255
    15  H    0.129673
    16  H    0.118341
    17  H    0.141217
    18  H    0.113811
    19  H    0.113693
 Sum of Mulliken charges =   0.00000

 Dipole moment (field-independent basis, Debye):
    X=              3.0820    Y=              0.0389    Z=              1.0428  Tot=              3.2538
 Quadrupole moment (field-independent basis, Debye-Ang):
   XX=            -56.3472   YY=            -52.6342   ZZ=            -52.6309
   XY=              5.3879   XZ=             -0.3854   YZ=             -0.3945

  Exact polarizability: 104.337  -0.057  77.888   3.492  -2.144  56.719
 Approx polarizability: 161.213  -6.958 106.267  10.437  -3.503  89.772

                      1                      2                      3
                      A                      A                      A
 Frequencies --     65.0679               133.5332               194.5034
 Red. masses --      4.3824                 3.0169                 1.1204
 Frc consts  --      0.0109                 0.0317                 0.0250
 IR Inten    --      3.0571                 1.9710                 0.1112

                      4                      5                      6
                      A                      A                      A
 Frequencies --    220.4316               241.8084               260.6855
 Red. masses --      1.4189                 1.7037                 2.7437
 Frc consts  --      0.0406                 0.0587                 0.1099
 IR Inten    --      0.5158                 0.0783                 4.7545

                      7                      8                      9
                      A                      A                      A
 Frequencies --    335.6350               389.0214               421.7992
 Red. masses --      3.5391                 3.4788                 3.8471
 Frc consts  --      0.2349                 0.3102                 0.4033
 IR Inten    --      0.9988                 4.5704                 7.7705

                     10                     11                     12
                      A                      A                      A
 Frequencies --    450.2891               532.5573               538.3159
 Red. masses --      4.6311                 3.1106                 3.5814
 Frc consts  --      0.5532                 0.5198                 0.6115
 IR Inten    --      8.0568                 1.4351                 1.4776

                     13                     14                     15
                      A                      A                      A
 Frequencies --    653.8085               739.9847               802.4037
 Red. masses --      3.6046                 2.7549                 2.4041
 Frc consts  --      0.9078                 0.8888                 0.9120
 IR Inten    --      2.1400                 6.2130                 5.0191

                     16                     17                     18
                      A                      A                      A
 Frequencies --    816.5348               860.5516               890.5930
 Red. masses --      2.6014                 2.1874                 1.9381
 Frc consts  --      1.0219                 0.9544                 0.9057
 IR Inten    --      6.1231                17.1273                 1.4976

                     19                     20                     21
                      A                      A                      A
 Frequencies --    976.3572              1014.9858              1047.8177
 Red. masses --      1.8628                 1.2534                 1.8381
 Frc consts  --      1.0462                 0.7608                 1.1890
 IR Inten    --      4.3536                 2.7548                 8.9862

                     22                     23                     24
                      A                      A                      A
 Frequencies --   1074.8346              1094.8134              1129.5714
 Red. masses --      1.7172                 1.9362                 1.7364
 Frc consts  --      1.1688                 1.3674                 1.3054
 IR Inten    --     14.9032                39.7634                 9.7827

                     25                     26                     27
                      A                      A                      A
 Frequencies --   1134.0212              1162.1488              1205.6393
 Red. masses --      2.4731                 3.1518                 1.9339
 Frc consts  --      1.8738                 2.5080                 1.6562
 IR Inten    --     40.0853                27.7868                14.9245

                     28                     29                     30
                      A                      A                      A
 Frequencies --   1239.3032              1320.2083              1331.3987
 Red. masses --      1.6882                 1.2095                 1.4947
 Frc consts  --      1.5277                 1.2420                 1.5611
 IR Inten    --     72.5136                29.6918                12.7350

                     31                     32                     33
                      A                      A                      A
 Frequencies --   1348.8864              1374.2181              1400.2986
 Red. masses --      1.7059                 1.4024                 1.3308
 Frc consts  --      1.8287                 1.5604                 1.5375
 IR Inten    --      3.2800                11.0420                20.5011

                     34                     35                     36
                      A                      A                      A
 Frequencies --   1406.1899              1409.7957              1482.0680
 Red. masses --      1.3685                 1.5767                 1.0493
 Frc consts  --      1.5944                 1.8463                 1.3579
 IR Inten    --      3.6097                 1.7171                 7.2982

                     37                     38                     39
                      A                      A                      A
 Frequencies --   1483.7350              1495.9636              1499.8947
 Red. masses --      1.0537                 1.0529                 1.0533
 Frc consts  --      1.3667                 1.3883                 1.3961
 IR Inten    --      3.2160                 0.7743                 2.3069

                     40                     41                     42
                      A                      A                      A
 Frequencies --   1682.5723              1782.6010              2897.6638
 Red. masses --      7.4882                11.8925                 1.0788
 Frc consts  --     12.4903                22.2655                 5.3369
 IR Inten    --     10.2052               201.5515                42.7920

                     43                     44                     45
                      A                      A                      A
 Frequencies --   2915.6658              3047.8960              3056.4536
 Red. masses --      1.0795                 1.0343                 1.0351
 Frc consts  --      5.4068                 5.6612                 5.6973
 IR Inten    --     39.1714                16.2829                14.4337

                     46                     47                     48
                      A                      A                      A
 Frequencies --   3124.4309              3129.1348              3132.0462
 Red. masses --      1.1022                 1.1024                 1.1026
 Frc consts  --      6.3392                 6.3598                 6.3728
 IR Inten    --     16.2043                17.0834                14.8972

                     49                     50                     51
                      A                      A                      A
 Frequencies --   3150.5382              3153.8705              3189.2116
 Red. masses --      1.1015                 1.0871                 1.0963
 Frc consts  --      6.4415                 6.3708                 6.5697
 IR Inten    --      6.8616                10.1105                 9.5499

 - Thermochemistry -
 -------------------
 Temperature   298.150 Kelvin.  Pressure   1.00000 Atm.
 Atom     1 has atomic number  6 and mass  12.00000

 Molecular mass:   126.06808 amu.
 Principal axes and moments of inertia in atomic units:
                           1         2         3
     Eigenvalues --   653.681351285.681861835.03371
           X            0.99877   0.04947  -0.00427
           Y           -0.04947   0.99878   0.00090
           Z            0.00431  -0.00068   0.99999
 This molecule is an asymmetric top.
 Rotational symmetry number  1.
 Warning -- assumption of classical behavior for rotation
           may cause significant error
 Rotational temperatures (Kelvin)      0.13250     0.06737     0.04720
 Rotational constants (GHZ):           2.76089     1.40372     0.98349
 Zero-point vibrational energy     415354.0 (Joules/Mol)
                                   99.27198 (Kcal/Mol)
 Warning -- explicit consideration of  12 degrees of freedom as
           vibrations may cause significant error
 Vibrational temperatures:     93.62   192.12   279.85   317.15   347.91
          (Kelvin)            375.07   482.90   559.71   606.87   647.86
                              766.23   774.52   940.68  1064.67  1154.48
                             1174.81  1238.14  1281.36  1404.76  1460.34
                             1507.57  1546.45  1575.19  1625.20  1631.60
                             1672.07  1734.64  1783.08  1899.48  1915.58
                             1940.74  1977.19  2014.71  2023.19  2028.38
                             2132.36  2134.76  2152.36  2158.01  2420.84
                             2564.76  4169.09  4194.99  4385.24  4397.55
                             4495.35  4502.12  4506.31  4532.92  4537.71
                             4588.56

 Zero-point correction=                           0.158200 (Hartree/Particle)
 Thermal correction to Energy=                    0.167062
 Thermal correction to Enthalpy=                  0.168007
 Thermal correction to Gibbs Free Energy=         0.124650
 Sum of electronic and zero-point Energies=           -423.061916
 Sum of electronic and thermal Energies=              -423.053054
 Sum of electronic and thermal Enthalpies=            -423.052110
 Sum of electronic and thermal Free Energies=         -423.095466

                     E (Thermal)             CV                S
                      KCal/Mol        Cal/Mol-Kelvin    Cal/Mol-Kelvin
 Total                  104.833             33.272             91.251
 Electronic               0.000              0.000              0.000
 Translational            0.889              2.981             40.409
 Rotational               0.889              2.981             28.824
 Vibrational            103.056             27.310             22.018
 Vibration     1          0.597              1.971              4.297
 Vibration     2          0.613              1.920              2.895
 Vibration     3          0.635              1.848              2.184
 Vibration     4          0.647              1.810              1.956
 Vibration     5          0.658              1.776              1.790
 Vibration     6          0.669              1.745              1.657
 Vibration     7          0.717              1.604              1.233
 Vibration     8          0.757              1.494              1.004
 Vibration     9          0.784              1.423              0.886
 Vibration    10          0.809              1.360              0.795
 Vibration    11          0.888              1.178              0.582
 Vibration    12          0.893              1.165              0.569

 Optimization completed.
    -- Stationary point found.
 Normal termination of Gaussian 09 at Tue Jan 28 01:23:15 2020.
