 Gaussian 09, Revision D.01,
 Gaussian 09:  ES64L-G09RevD.01 24-Apr-2013

 -----------------------------
 # b3lyp 6-31G(2df,p) opt Freq
 -----------------------------

 -----
 titel
 -----
 Symbolic Z-matrix:
 Charge =  0 Multiplicity = 1

 SCF Done:  E(RB3LYP) =  -423.191150939     A.U. after   14 cycles
 Optimization completed.
    -- Stationary point found.
 Normal termination of Gaussian 09 at Mon Jan 27 15:55:55 2020.

 ----------------------------------------------------------------------
 #N Geom=AllCheck Guess=TCheck SCRF=Check GenChk RB3LYP/6-31G(2df,p) Fr
 eq
 ----------------------------------------------------------------------

 Structure from the checkpoint file:  "/scratch/puck/g09_3c2a9d49-7d7f-495d-ad46-1c0d6442771c/Gau-10364.chk"
 -----
 titel
 -----
 Charge =  0 Multiplicity = 1

                         Standard orientation:
 ---------------------------------------------------------------------
 Center     Atomic      Atomic             Coordinates (Angstroms)
 Number     Number       Type             X           Y           Z
 ---------------------------------------------------------------------
      1          6           0        2.675415   -1.344194    0.135973
      2          6           0        1.573927   -0.315102    0.460914
      3          6           0        0.224531   -0.799205   -0.080704
      4          8           0       -0.788706    0.101364    0.386617
      5          6           0       -2.035032   -0.120062   -0.086332
      6          6           0       -2.999404    0.905633    0.457492
      7          8           0       -2.310395   -1.019193   -0.839304
      8          6           0        1.915553    1.007632   -0.060167
      9          6           0        2.218185    2.080553   -0.509121
     10          1           0        2.784919   -1.467447   -0.945492
     11          1           0        3.636268   -1.014160    0.536630
     12          1           0        2.432185   -2.317362    0.573471
     13          1           0        1.477041   -0.241310    1.552278
     14          1           0        0.220371   -0.823379   -1.174164
     15          1           0        0.007824   -1.809543    0.281827
     16          1           0       -2.692528    1.907477    0.143703
     17          1           0       -4.002137    0.691446    0.090078
     18          1           0       -2.988556    0.890819    1.550847
     19          1           0        2.478363    3.034555   -0.896021
 ---------------------------------------------------------------------

 SCF Done:  E(RB3LYP) =  -423.191150939     A.U. after    1 cycles

 The electronic state is 1-A.
 Alpha  occ. eigenvalues --  -19.18020 -19.12281 -10.30548 -10.24353 -10.22161
 Alpha  occ. eigenvalues --  -10.19306 -10.19044 -10.18131 -10.17248  -1.09977
 Alpha  occ. eigenvalues --   -1.01196  -0.82697  -0.75816  -0.72888  -0.69391
 Alpha  occ. eigenvalues --   -0.62791  -0.57081  -0.53173  -0.50107  -0.48864
 Alpha  occ. eigenvalues --   -0.47403  -0.46398  -0.43117  -0.42116  -0.41177
 Alpha  occ. eigenvalues --   -0.39737  -0.37726  -0.37232  -0.36165  -0.35161
 Alpha  occ. eigenvalues --   -0.30031  -0.26897  -0.26708  -0.26599
 Alpha virt. eigenvalues --    0.01634   0.04955   0.05343   0.09573   0.10691
 Alpha virt. eigenvalues --    0.12634   0.12805   0.13498   0.15156   0.15922
 Alpha virt. eigenvalues --    0.17219   0.17423   0.18914   0.19565   0.22008

 Mulliken charges:
               1
     1  C   -0.396622
     2  C   -0.173506
     3  C   -0.051670
     4  O   -0.238276
     5  C    0.429710
     6  C   -0.478942
     7  O   -0.349291
     8  C    0.347134
     9  C   -0.485938
    10  H    0.132745
    11  H    0.133459
    12  H    0.119535
    13  H    0.116408
    14  H    0.129963
    15  H    0.117045
    16  H    0.153827
    17  H    0.147689
    18  H    0.148802
    19  H    0.197928
 Sum of Mulliken charges =   0.00000

 Dipole moment (field-independent basis, Debye):
    X=              0.9320    Y=              0.6950    Z=              1.2391  Tot=              1.6991
 Quadrupole moment (field-independent basis, Debye-Ang):
   XX=            -52.6148   YY=            -50.6700   ZZ=            -53.4625
   XY=             -5.5522   XZ=             -3.8751   YZ=             -3.6263

  Exact polarizability:  86.451   1.991  86.846  -1.213  -3.497  61.485
 Approx polarizability: 103.128  11.481 134.055   0.180  -6.225  98.462

                      1                      2                      3
                      A                      A                      A
 Frequencies --     27.7126                53.4404                68.0288
 Red. masses --      4.8073                 1.8293                 1.5645
 Frc consts  --      0.0022                 0.0031                 0.0043
 IR Inten    --      1.6644                 1.1092                 0.1838

                      4                      5                      6
                      A                      A                      A
 Frequencies --    119.2428               160.1200               206.8753
 Red. masses --      3.5639                 4.3919                 2.0735
 Frc consts  --      0.0299                 0.0663                 0.0523
 IR Inten    --      1.0920                 2.5368                 0.9839

                      7                      8                      9
                      A                      A                      A
 Frequencies --    213.3154               251.4695               297.2301
 Red. masses --      1.7422                 1.6382                 3.2227
 Frc consts  --      0.0467                 0.0610                 0.1677
 IR Inten    --      3.4939                 1.0798                 2.7092

                     10                     11                     12
                      A                      A                      A
 Frequencies --    316.3896               458.2078               535.8415
 Red. masses --      4.7997                 3.4341                 3.3981
 Frc consts  --      0.2831                 0.4248                 0.5748
 IR Inten    --      2.1381                 3.7905                 3.4300

                     13                     14                     15
                      A                      A                      A
 Frequencies --    562.9387               606.2168               629.4935
 Red. masses --      4.3087                 2.6101                 1.2607
 Frc consts  --      0.8045                 0.5651                 0.2943
 IR Inten    --      9.7294                 4.3876                34.6504

                     16                     17                     18
                      A                      A                      A
 Frequencies --    638.6882               645.8890               797.2706
 Red. masses --      1.5375                 2.3431                 2.9062
 Frc consts  --      0.3695                 0.5759                 1.0884
 IR Inten    --     44.1644                13.4569                 0.9442

                     19                     20                     21
                      A                      A                      A
 Frequencies --    919.2350               923.9939               955.8684
 Red. masses --      2.9374                 1.7960                 1.7354
 Frc consts  --      1.4624                 0.9034                 0.9342
 IR Inten    --     17.8871                 0.1213                 5.3784

                     22                     23                     24
                      A                      A                      A
 Frequencies --    997.6309              1064.9154              1070.7297
 Red. masses --      1.9571                 1.8264                 3.4091
 Frc consts  --      1.1476                 1.2203                 2.3028
 IR Inten    --      0.4554                 7.1833                93.6164

                     25                     26                     27
                      A                      A                      A
 Frequencies --   1093.2569              1114.5551              1172.2054
 Red. masses --      3.3600                 1.7167                 2.0277
 Frc consts  --      2.3661                 1.2565                 1.6416
 IR Inten    --     27.1890                 0.7157                 2.5904

                     28                     29                     30
                      A                      A                      A
 Frequencies --   1257.8814              1266.3265              1301.9240
 Red. masses --      1.1403                 3.6391                 1.2960
 Frc consts  --      1.0630                 3.4382                 1.2943
 IR Inten    --      1.5912               442.7283                 0.3361

                     31                     32                     33
                      A                      A                      A
 Frequencies --   1363.9722              1385.9243              1402.2356
 Red. masses --      1.4320                 1.2818                 1.3942
 Frc consts  --      1.5696                 1.4507                 1.6152
 IR Inten    --     12.9957                15.3523                39.1055

                     34                     35                     36
                      A                      A                      A
 Frequencies --   1416.6006              1469.4623              1475.6319
 Red. masses --      1.3203                 1.0517                 1.0465
 Frc consts  --      1.5611                 1.3380                 1.3426
 IR Inten    --      3.2344                10.9803                 6.6350

                     37                     38                     39
                      A                      A                      A
 Frequencies --   1492.4617              1499.6092              1507.8919
 Red. masses --      1.0486                 1.0539                 1.0813
 Frc consts  --      1.3762                 1.3964                 1.4486
 IR Inten    --      3.3087                 3.4004                 6.0990

                     40                     41                     42
                      A                      A                      A
 Frequencies --   1825.8153              2238.0897              3022.1966
 Red. masses --     11.2079                 5.9203                 1.0817
 Frc consts  --     22.0135                17.4723                 5.8211
 IR Inten    --    229.5468                 0.6917                 8.1545

                     43                     44                     45
                      A                      A                      A
 Frequencies --   3043.1418              3050.2300              3057.9380
 Red. masses --      1.0377                 1.0552                 1.0363
 Frc consts  --      5.6618                 5.7844                 5.7095
 IR Inten    --      7.8267                33.2361                 2.8658

                     46                     47                     48
                      A                      A                      A
 Frequencies --   3102.3838              3116.7403              3122.9374
 Red. masses --      1.1066                 1.1024                 1.0993
 Frc consts  --      6.2751                 6.3092                 6.3166
 IR Inten    --      9.6929                31.0624                 4.9020

                     49                     50                     51
                      A                      A                      A
 Frequencies --   3130.4660              3169.9780              3505.1574
 Red. masses --      1.1018                 1.1029                 1.1623
 Frc consts  --      6.3619                 6.5299                 8.4140
 IR Inten    --     16.8535                 7.4579                62.5433

 - Thermochemistry -
 -------------------
 Temperature   298.150 Kelvin.  Pressure   1.00000 Atm.
 Atom     1 has atomic number  6 and mass  12.00000

 Molecular mass:   126.06808 amu.
 Principal axes and moments of inertia in atomic units:
                           1         2         3
     Eigenvalues --   637.400712042.032262458.99624
           X            0.99903  -0.04311  -0.00900
           Y            0.04302   0.99902  -0.01066
           Z            0.00945   0.01026   0.99990
 This molecule is an asymmetric top.
 Rotational symmetry number  1.
 Warning -- assumption of classical behavior for rotation
           may cause significant error
 Rotational temperatures (Kelvin)      0.13589     0.04242     0.03522
 Rotational constants (GHZ):           2.83141     0.88380     0.73393
 Zero-point vibrational energy     407482.5 (Joules/Mol)
                                   97.39066 (Kcal/Mol)
 Warning -- explicit consideration of  14 degrees of freedom as
           vibrations may cause significant error
 Vibrational temperatures:     39.87    76.89    97.88   171.56   230.38
          (Kelvin)            297.65   306.91   361.81   427.65   455.21
                              659.26   770.96   809.94   872.21   905.70
                              918.93   929.29  1147.09  1322.57  1329.42
                             1375.28  1435.37  1532.17  1540.54  1572.95
                             1603.59  1686.54  1809.81  1821.96  1873.18
                             1962.45  1994.03  2017.50  2038.17  2114.23
                             2123.10  2147.32  2157.60  2169.52  2626.94
                             3220.11  4348.26  4378.40  4388.60  4399.69
                             4463.63  4484.29  4493.20  4504.04  4560.89
                             5043.13

 Zero-point correction=                           0.155202 (Hartree/Particle)
 Thermal correction to Energy=                    0.165959
 Thermal correction to Enthalpy=                  0.166903
 Thermal correction to Gibbs Free Energy=         0.117607
 Sum of electronic and zero-point Energies=           -423.035949
 Sum of electronic and thermal Energies=              -423.025192
 Sum of electronic and thermal Enthalpies=            -423.024248
 Sum of electronic and thermal Free Energies=         -423.073544

                     E (Thermal)             CV                S
                      KCal/Mol        Cal/Mol-Kelvin    Cal/Mol-Kelvin
 Total                  104.141             37.086            103.752
 Electronic               0.000              0.000              0.000
 Translational            0.889              2.981             40.409
 Rotational               0.889              2.981             29.550
 Vibrational            102.363             31.124             33.794
 Vibration     1          0.593              1.984              5.987
 Vibration     2          0.596              1.976              4.686
 Vibration     3          0.598              1.969              4.210
 Vibration     4          0.609              1.933              3.113
 Vibration     5          0.622              1.891              2.548
 Vibration     6          0.641              1.830              2.071
 Vibration     7          0.644              1.821              2.015
 Vibration     8          0.663              1.760              1.720
 Vibration     9          0.691              1.679              1.432
 Vibration    10          0.703              1.642              1.329
 Vibration    11          0.816              1.343              0.771
 Vibration    12          0.891              1.171              0.574
 Vibration    13          0.919              1.111              0.518
 Vibration    14          0.965              1.019              0.439

 Optimization completed on the basis of negligible forces.
    -- Stationary point found.
 Normal termination of Gaussian 09 at Mon Jan 27 17:25:43 2020.
