 Gaussian 09, Revision D.01,
 Gaussian 09:  ES64L-G09RevD.01 24-Apr-2013

 -----------------------------
 # b3lyp 6-31G(2df,p) opt Freq
 -----------------------------

 -----
 titel
 -----
 Symbolic Z-matrix:
 Charge =  0 Multiplicity = 1

 SCF Done:  E(RB3LYP) =  -423.136818496     A.U. after   14 cycles
 Optimization completed.
    -- Stationary point found.
 Normal termination of Gaussian 09 at Tue Jan 28 00:40:58 2020.

 ----------------------------------------------------------------------
 #N Geom=AllCheck Guess=TCheck SCRF=Check GenChk RB3LYP/6-31G(2df,p) Fr
 eq
 ----------------------------------------------------------------------

 Structure from the checkpoint file:  "/scratch/puck/g09_2f6e6471-074c-4d2a-bbeb-8efd8d158a9c/Gau-81360.chk"
 -----
 titel
 -----
 Charge =  0 Multiplicity = 1

                         Standard orientation:
 ---------------------------------------------------------------------
 Center     Atomic      Atomic             Coordinates (Angstroms)
 Number     Number       Type             X           Y           Z
 ---------------------------------------------------------------------
      1          6           0        2.555476   -0.399853    0.225888
      2          6           0        1.337311   -0.643592   -0.659854
      3          6           0        0.190954   -1.460657    0.006290
      4          6           0       -0.634350   -0.159808    0.215257
      5          8           0       -0.410650    0.320854    1.545945
      6          6           0       -2.047175   -0.169242   -0.115749
      7          6           0       -3.216005   -0.143595   -0.400030
      8          6           0        0.351514    0.569042   -0.780325
      9          8           0        0.770115    1.842743   -0.395535
     10          1           0        3.202751    0.371232   -0.202740
     11          1           0        2.263507   -0.079094    1.230946
     12          1           0        3.142447   -1.318107    0.331328
     13          1           0        1.660499   -1.031993   -1.629654
     14          1           0       -0.307226   -2.158183   -0.668639
     15          1           0        0.432881   -1.970483    0.941376
     16          1           0       -1.068854    1.003772    1.717595
     17          1           0       -4.247632   -0.130958   -0.652698
     18          1           0       -0.077551    0.651679   -1.781514
     19          1           0        0.897104    1.799588    0.561856
 ---------------------------------------------------------------------

 SCF Done:  E(RB3LYP) =  -423.136818496     A.U. after    1 cycles

 The electronic state is 1-A.
 Alpha  occ. eigenvalues --  -19.15957 -19.13785 -10.25901 -10.22965 -10.18783
 Alpha  occ. eigenvalues --  -10.18575 -10.18555 -10.18448 -10.17279  -1.04736
 Alpha  occ. eigenvalues --   -1.01598  -0.83891  -0.76219  -0.71744  -0.65736
 Alpha  occ. eigenvalues --   -0.63990  -0.56809  -0.55629  -0.51909  -0.51060
 Alpha  occ. eigenvalues --   -0.45382  -0.44585  -0.42421  -0.41035  -0.39181
 Alpha  occ. eigenvalues --   -0.38848  -0.36814  -0.33839  -0.33116  -0.32115
 Alpha  occ. eigenvalues --   -0.29177  -0.28325  -0.26902  -0.24696
 Alpha virt. eigenvalues --    0.02310   0.03953   0.07492   0.10268   0.11350
 Alpha virt. eigenvalues --    0.12242   0.12728   0.15280   0.15972   0.16890
 Alpha virt. eigenvalues --    0.17741   0.18487   0.19441   0.20065   0.23342

 Mulliken charges:
               1
     1  C   -0.411477
     2  C   -0.040013
     3  C   -0.268112
     4  C    0.192920
     5  O   -0.476539
     6  C    0.241535
     7  C   -0.448164
     8  C    0.104115
     9  O   -0.427843
    10  H    0.124957
    11  H    0.124242
    12  H    0.113740
    13  H    0.069843
    14  H    0.113674
    15  H    0.117622
    16  H    0.291708
    17  H    0.200150
    18  H    0.094707
    19  H    0.282935
 Sum of Mulliken charges =   0.00000

 Dipole moment (field-independent basis, Debye):
    X=             -0.8271    Y=             -0.6100    Z=              0.2371  Tot=              1.0547
 Quadrupole moment (field-independent basis, Debye-Ang):
   XX=            -47.8173   YY=            -55.1243   ZZ=            -53.0321
   XY=             -2.4471   XZ=              0.8758   YZ=              4.4318

  Exact polarizability: 103.669  -1.018  66.324   5.000   1.835  64.292
 Approx polarizability: 144.671  -0.259  97.772  10.753   2.449  99.961

                      1                      2                      3
                      A                      A                      A
 Frequencies --     74.2135               128.1216               162.1944
 Red. masses --      3.3556                 4.1261                 2.3081
 Frc consts  --      0.0109                 0.0399                 0.0358
 IR Inten    --      0.5316                 3.0705                43.8142

                      4                      5                      6
                      A                      A                      A
 Frequencies --    197.5172               222.2889               253.9597
 Red. masses --      1.4845                 1.4572                 1.8577
 Frc consts  --      0.0341                 0.0424                 0.0706
 IR Inten    --    111.6466                10.9101                 1.1160

                      7                      8                      9
                      A                      A                      A
 Frequencies --    273.5834               323.0553               394.0375
 Red. masses --      3.7062                 3.2448                 2.0131
 Frc consts  --      0.1634                 0.1995                 0.1842
 IR Inten    --      3.7111                 2.1094                 8.1913

                     10                     11                     12
                      A                      A                      A
 Frequencies --    407.6844               503.6787               525.0375
 Red. masses --      5.6878                 4.2962                 1.1849
 Frc consts  --      0.5570                 0.6422                 0.1924
 IR Inten    --      2.7647                 4.1985                44.2173

                     13                     14                     15
                      A                      A                      A
 Frequencies --    576.5808               603.5680               618.3772
 Red. masses --      4.3866                 3.1429                 1.3376
 Frc consts  --      0.8592                 0.6746                 0.3014
 IR Inten    --     20.4290                 2.5341                40.6850

                     16                     17                     18
                      A                      A                      A
 Frequencies --    642.0104               668.5918               787.4644
 Red. masses --      4.0847                 1.2474                 2.4521
 Frc consts  --      0.9920                 0.3285                 0.8959
 IR Inten    --      3.6910                33.9462                12.8183

                     19                     20                     21
                      A                      A                      A
 Frequencies --    815.6106               852.2357               900.1192
 Red. masses --      3.2625                 2.1063                 2.3250
 Frc consts  --      1.2787                 0.9013                 1.1099
 IR Inten    --      6.9135                23.4052                 2.9089

                     22                     23                     24
                      A                      A                      A
 Frequencies --    975.6599              1001.1824              1028.0783
 Red. masses --      1.6021                 4.1624                 1.5635
 Frc consts  --      0.8985                 2.4582                 0.9737
 IR Inten    --     14.2535                10.2551                30.7898

                     25                     26                     27
                      A                      A                      A
 Frequencies --   1072.1989              1103.1771              1151.4400
 Red. masses --      1.9482                 2.2908                 1.8791
 Frc consts  --      1.3196                 1.6426                 1.4679
 IR Inten    --     18.8823                17.0544                98.4232

                     28                     29                     30
                      A                      A                      A
 Frequencies --   1172.7510              1193.0283              1233.6426
 Red. masses --      2.7041                 1.8132                 1.5528
 Frc consts  --      2.1912                 1.5205                 1.3924
 IR Inten    --     62.3170                 5.0953                 9.8011

                     31                     32                     33
                      A                      A                      A
 Frequencies --   1268.3753              1271.1765              1310.1329
 Red. masses --      1.5708                 1.4384                 1.5021
 Frc consts  --      1.4889                 1.3694                 1.5191
 IR Inten    --      1.7164                 4.4515                 2.6402

                     34                     35                     36
                      A                      A                      A
 Frequencies --   1360.7325              1374.9355              1410.6563
 Red. masses --      1.5015                 1.6177                 1.2625
 Frc consts  --      1.6380                 1.8018                 1.4803
 IR Inten    --     35.0915                38.4329                 2.7706

                     37                     38                     39
                      A                      A                      A
 Frequencies --   1438.6167              1470.3200              1495.8561
 Red. masses --      1.1985                 1.1245                 1.0486
 Frc consts  --      1.4614                 1.4323                 1.3824
 IR Inten    --     56.9921                17.6598                 7.8664

                     40                     41                     42
                      A                      A                      A
 Frequencies --   1509.6507              2227.2130              3035.9187
 Red. masses --      1.0489                 5.9665                 1.0349
 Frc consts  --      1.4085                17.4378                 5.6201
 IR Inten    --      1.7236                 1.2553                23.5267

                     43                     44                     45
                      A                      A                      A
 Frequencies --   3058.6562              3075.1526              3090.5301
 Red. masses --      1.0855                 1.0607                 1.0871
 Frc consts  --      5.9832                 5.9100                 6.1175
 IR Inten    --     17.7352                17.3960                21.2348

                     46                     47                     48
                      A                      A                      A
 Frequencies --   3103.6711              3111.8339              3136.8017
 Red. masses --      1.1009                 1.1016                 1.1082
 Frc consts  --      6.2479                 6.2850                 6.4245
 IR Inten    --     27.2501                25.5285                13.5535

                     49                     50                     51
                      A                      A                      A
 Frequencies --   3499.3820              3756.4856              3806.9786
 Red. masses --      1.1611                 1.0645                 1.0663
 Frc consts  --      8.3771                 8.8503                 9.1054
 IR Inten    --     75.9993                28.9114                33.5079

 - Thermochemistry -
 -------------------
 Temperature   298.150 Kelvin.  Pressure   1.00000 Atm.
 Atom     1 has atomic number  6 and mass  12.00000

 Molecular mass:   126.06808 amu.
 Principal axes and moments of inertia in atomic units:
                           1         2         3
     Eigenvalues --   637.452451466.401631611.20926
           X            0.99980  -0.01819   0.00880
           Y            0.01767   0.99828   0.05592
           Z           -0.00980  -0.05575   0.99840
 This molecule is an asymmetric top.
 Rotational symmetry number  1.
 Warning -- assumption of classical behavior for rotation
           may cause significant error
 Rotational temperatures (Kelvin)      0.13587     0.05907     0.05376
 Rotational constants (GHZ):           2.83118     1.23073     1.12012
 Zero-point vibrational energy     410762.7 (Joules/Mol)
                                   98.17465 (Kcal/Mol)
 Warning -- explicit consideration of  15 degrees of freedom as
           vibrations may cause significant error
 Vibrational temperatures:    106.78   184.34   233.36   284.18   319.82
          (Kelvin)            365.39   393.63   464.80   566.93   586.57
                              724.68   755.41   829.57   868.40   889.71
                              923.71   961.95  1132.98  1173.48  1226.18
                             1295.07  1403.76  1440.48  1479.17  1542.65
                             1587.22  1656.66  1687.33  1716.50  1774.93
                             1824.91  1828.94  1884.99  1957.79  1978.22
                             2029.62  2069.85  2115.46  2152.20  2172.05
                             3204.46  4368.00  4400.72  4424.45  4446.58
                             4465.48  4477.23  4513.15  5034.82  5404.74
                             5477.39

 Zero-point correction=                           0.156451 (Hartree/Particle)
 Thermal correction to Energy=                    0.166173
 Thermal correction to Enthalpy=                  0.167117
 Thermal correction to Gibbs Free Energy=         0.122374
 Sum of electronic and zero-point Energies=           -422.980367
 Sum of electronic and thermal Energies=              -422.970646
 Sum of electronic and thermal Enthalpies=            -422.969702
 Sum of electronic and thermal Free Energies=         -423.014444

                     E (Thermal)             CV                S
                      KCal/Mol        Cal/Mol-Kelvin    Cal/Mol-Kelvin
 Total                  104.275             36.876             94.169
 Electronic               0.000              0.000              0.000
 Translational            0.889              2.981             40.409
 Rotational               0.889              2.981             28.801
 Vibrational            102.498             30.914             24.960
 Vibration     1          0.599              1.966              4.038
 Vibration     2          0.611              1.925              2.974
 Vibration     3          0.622              1.889              2.524
 Vibration     4          0.637              1.843              2.156
 Vibration     5          0.648              1.807              1.940
 Vibration     6          0.665              1.756              1.703
 Vibration     7          0.676              1.722              1.573
 Vibration     8          0.708              1.629              1.295
 Vibration     9          0.761              1.483              0.985
 Vibration    10          0.772              1.454              0.935
 Vibration    11          0.859              1.242              0.649
 Vibration    12          0.880              1.195              0.598
 Vibration    13          0.933              1.082              0.492
 Vibration    14          0.962              1.024              0.444
 Vibration    15          0.978              0.993              0.419

 Normal termination of Gaussian 09 at Tue Jan 28 01:23:46 2020.
