 Gaussian 09, Revision D.01,
 Gaussian 09:  ES64L-G09RevD.01 24-Apr-2013

 -----------------------------
 # b3lyp 6-31G(2df,p) opt Freq
 -----------------------------

 -----
 titel
 -----
 Symbolic Z-matrix:
 Charge =  0 Multiplicity = 1

 SCF Done:  E(RB3LYP) =  -423.222523025     A.U. after   14 cycles
 Optimization completed.
    -- Stationary point found.
 Normal termination of Gaussian 09 at Mon Jan 27 10:18:20 2020.

 ----------------------------------------------------------------------
 #N Geom=AllCheck Guess=TCheck SCRF=Check GenChk RB3LYP/6-31G(2df,p) Fr
 eq
 ----------------------------------------------------------------------

 Structure from the checkpoint file:  "/scratch/puck/g09_26023e84-e65f-4924-8e77-e57e9bb2c16e/Gau-91831.chk"
 -----
 titel
 -----
 Charge =  0 Multiplicity = 1

                         Standard orientation:
 ---------------------------------------------------------------------
 Center     Atomic      Atomic             Coordinates (Angstroms)
 Number     Number       Type             X           Y           Z
 ---------------------------------------------------------------------
      1          6           0        3.039282   -0.109780    0.661552
      2          6           0        2.104615    0.346513   -0.472990
      3          6           0        0.682935   -0.047433   -0.276497
      4          6           0       -0.475023    0.647912   -0.085486
      5          8           0       -0.690453    1.993225   -0.025382
      6          6           0       -1.545625   -0.300518    0.055699
      7          6           0       -2.989392    0.015852    0.278923
      8          6           0       -0.944718   -1.513663   -0.060416
      9          8           0        0.393094   -1.390562   -0.260567
     10          1           0        3.005922   -1.197372    0.768179
     11          1           0        4.073968    0.182450    0.457026
     12          1           0        2.738602    0.329816    1.617425
     13          1           0        2.150340    1.439156   -0.571597
     14          1           0        2.473353   -0.053485   -1.427304
     15          1           0        0.145940    2.452875   -0.150150
     16          1           0       -3.586532   -0.897616    0.345522
     17          1           0       -3.135496    0.584347    1.204155
     18          1           0       -3.394656    0.627092   -0.535135
     19          1           0       -1.325021   -2.521868   -0.025240
 ---------------------------------------------------------------------

 SCF Done:  E(RB3LYP) =  -423.222523025     A.U. after    1 cycles

 The electronic state is 1-A.
 Alpha  occ. eigenvalues --  -19.18712 -19.16530 -10.22240 -10.21514 -10.21277
 Alpha  occ. eigenvalues --  -10.19707 -10.17893 -10.17730 -10.17626  -1.09063
 Alpha  occ. eigenvalues --   -1.04914  -0.79672  -0.79050  -0.71850  -0.68734
 Alpha  occ. eigenvalues --   -0.63308  -0.58810  -0.55856  -0.51719  -0.45942
 Alpha  occ. eigenvalues --   -0.44793  -0.43863  -0.42978  -0.41931  -0.40137
 Alpha  occ. eigenvalues --   -0.38163  -0.37950  -0.37023  -0.36848  -0.35847
 Alpha  occ. eigenvalues --   -0.35128  -0.32661  -0.23374  -0.19560
 Alpha virt. eigenvalues --    0.03024   0.05473   0.09244   0.11068   0.12712
 Alpha virt. eigenvalues --    0.14357   0.14633   0.15398   0.17019   0.17472
 Alpha virt. eigenvalues --    0.18220   0.19613   0.21161   0.22092   0.23516

 Mulliken charges:
               1
     1  C   -0.365039
     2  C   -0.306280
     3  C    0.242194
     4  C    0.103528
     5  O   -0.442659
     6  C    0.191316
     7  C   -0.497875
     8  C   -0.113209
     9  O   -0.193302
    10  H    0.134508
    11  H    0.110494
    12  H    0.118964
    13  H    0.088119
    14  H    0.119879
    15  H    0.294948
    16  H    0.120476
    17  H    0.133108
    18  H    0.133287
    19  H    0.127542
 Sum of Mulliken charges =   0.00000

 Dipole moment (field-independent basis, Debye):
    X=              0.8068    Y=              0.6137    Z=             -0.0801  Tot=              1.0168
 Quadrupole moment (field-independent basis, Debye-Ang):
   XX=            -49.8525   YY=            -50.5066   ZZ=            -54.6165
   XY=              5.0958   XZ=             -0.8545   YZ=             -0.7863

  Exact polarizability: 105.660   1.555  81.319  -3.922   0.094  53.134
 Approx polarizability: 140.657  -4.807 133.978  -8.742   2.066  80.226

                      1                      2                      3
                      A                      A                      A
 Frequencies --     46.8522               103.8164               127.6251
 Red. masses --      2.5452                 3.0843                 1.0301
 Frc consts  --      0.0033                 0.0196                 0.0099
 IR Inten    --      0.0818                 0.1872                 0.5792

                      4                      5                      6
                      A                      A                      A
 Frequencies --    190.7052               226.6677               234.6713
 Red. masses --      1.4408                 2.5458                 3.1536
 Frc consts  --      0.0309                 0.0771                 0.1023
 IR Inten    --      0.1980                 7.4274                 6.3076

                      7                      8                      9
                      A                      A                      A
 Frequencies --    254.1495               284.2061               347.0243
 Red. masses --      1.1263                 1.8253                 5.0280
 Frc consts  --      0.0429                 0.0869                 0.3568
 IR Inten    --     77.0551                 1.9184                 4.5329

                     10                     11                     12
                      A                      A                      A
 Frequencies --    385.3990               510.5659               560.0105
 Red. masses --      3.9616                 3.1697                 4.2034
 Frc consts  --      0.3467                 0.4868                 0.7767
 IR Inten    --      2.3879                 8.6542                 1.5086

                     13                     14                     15
                      A                      A                      A
 Frequencies --    631.8928               694.5860               726.0460
 Red. masses --      4.0059                 5.7301                 4.4592
 Frc consts  --      0.9424                 1.6288                 1.3850
 IR Inten    --      5.2121                 3.4873                 1.0436

                     16                     17                     18
                      A                      A                      A
 Frequencies --    736.6737               737.7678               780.3981
 Red. masses --      2.9123                 1.5612                 1.3771
 Frc consts  --      0.9312                 0.5007                 0.4941
 IR Inten    --     11.6478                14.6536                 0.9343

                     19                     20                     21
                      A                      A                      A
 Frequencies --    942.3373               984.0866              1013.0326
 Red. masses --      3.1153                 1.9933                 1.4907
 Frc consts  --      1.6299                 1.1373                 0.9013
 IR Inten    --      9.1022                 5.2748                 8.3621

                     22                     23                     24
                      A                      A                      A
 Frequencies --   1056.8933              1066.1491              1086.0881
 Red. masses --      2.1502                 1.4526                 1.6994
 Frc consts  --      1.4151                 0.9728                 1.1811
 IR Inten    --     37.7951                 0.8091                 6.8383

                     25                     26                     27
                      A                      A                      A
 Frequencies --   1179.6516              1186.9672              1257.7291
 Red. masses --      2.5994                 5.1192                 1.6889
 Frc consts  --      2.1313                 4.2494                 1.5741
 IR Inten    --     36.2513                44.3604               106.9546

                     28                     29                     30
                      A                      A                      A
 Frequencies --   1269.9501              1288.3785              1329.4107
 Red. masses --      3.0224                 1.2388                 1.7256
 Frc consts  --      2.8719                 1.2115                 1.7969
 IR Inten    --     25.8826                14.4690                 8.3916

                     31                     32                     33
                      A                      A                      A
 Frequencies --   1359.5003              1405.7148              1420.4601
 Red. masses --      1.6341                 1.2214                 1.2733
 Frc consts  --      1.7795                 1.4220                 1.5136
 IR Inten    --     15.3301                 1.1124                 0.2335

                     34                     35                     36
                      A                      A                      A
 Frequencies --   1465.4216              1475.9915              1479.6855
 Red. masses --      1.3995                 1.4032                 1.0424
 Frc consts  --      1.7707                 1.8010                 1.3446
 IR Inten    --      4.4878                 1.5320                 4.8856

                     37                     38                     39
                      A                      A                      A
 Frequencies --   1495.2944              1504.0601              1511.9610
 Red. masses --      1.0416                 1.1209                 1.4203
 Frc consts  --      1.3722                 1.4941                 1.9129
 IR Inten    --      5.8928                 4.9449                 5.7125

                     40                     41                     42
                      A                      A                      A
 Frequencies --   1611.4988              1694.8498              3009.0004
 Red. masses --      6.3055                 8.3759                 1.0603
 Frc consts  --      9.6478                14.1757                 5.6560
 IR Inten    --      8.8409                48.1259                35.0624

                     43                     44                     45
                      A                      A                      A
 Frequencies --   3031.5603              3039.3314              3041.7764
 Red. masses --      1.0365                 1.0493                 1.0841
 Frc consts  --      5.6122                 5.7107                 5.9096
 IR Inten    --     34.7477                33.3915                20.2687

                     46                     47                     48
                      A                      A                      A
 Frequencies --   3082.2470              3110.6600              3112.8000
 Red. masses --      1.0998                 1.1023                 1.1005
 Frc consts  --      6.1559                 6.2843                 6.2826
 IR Inten    --     16.9098                37.1271                17.3504

                     49                     50                     51
                      A                      A                      A
 Frequencies --   3121.6303              3268.0235              3824.5342
 Red. masses --      1.1020                 1.0976                 1.0658
 Frc consts  --      6.3270                 6.9069                 9.1848
 IR Inten    --     23.1025                 0.8078                28.3124

 - Thermochemistry -
 -------------------
 Temperature   298.150 Kelvin.  Pressure   1.00000 Atm.
 Atom     1 has atomic number  6 and mass  12.00000

 Molecular mass:   126.06808 amu.
 Principal axes and moments of inertia in atomic units:
                           1         2         3
     Eigenvalues --   593.121311529.231471988.54843
           X            0.99988   0.01510   0.00167
           Y           -0.01508   0.99984  -0.00983
           Z           -0.00182   0.00981   0.99995
 This molecule is an asymmetric top.
 Rotational symmetry number  1.
 Warning -- assumption of classical behavior for rotation
           may cause significant error
 Rotational temperatures (Kelvin)      0.14603     0.05664     0.04356
 Rotational constants (GHZ):           3.04279     1.18016     0.90757
 Zero-point vibrational energy     414540.3 (Joules/Mol)
                                   99.07752 (Kcal/Mol)
 Warning -- explicit consideration of  12 degrees of freedom as
           vibrations may cause significant error
 Vibrational temperatures:     67.41   149.37   183.62   274.38   326.12
          (Kelvin)            337.64   365.66   408.91   499.29   554.50
                              734.59   805.73   909.15   999.35  1044.62
                             1059.91  1061.48  1122.82  1355.81  1415.88
                             1457.53  1520.63  1533.95  1562.64  1697.25
                             1707.78  1809.59  1827.17  1853.69  1912.72
                             1956.02  2022.51  2043.72  2108.41  2123.62
                             2128.93  2151.39  2164.00  2175.37  2318.58
                             2438.51  4329.28  4361.73  4372.91  4376.43
                             4434.66  4475.54  4478.62  4491.32  4701.95
                             5502.64

 Zero-point correction=                           0.157890 (Hartree/Particle)
 Thermal correction to Energy=                    0.167577
 Thermal correction to Enthalpy=                  0.168521
 Thermal correction to Gibbs Free Energy=         0.122986
 Sum of electronic and zero-point Energies=           -423.064633
 Sum of electronic and thermal Energies=              -423.054946
 Sum of electronic and thermal Enthalpies=            -423.054002
 Sum of electronic and thermal Free Energies=         -423.099537

                     E (Thermal)             CV                S
                      KCal/Mol        Cal/Mol-Kelvin    Cal/Mol-Kelvin
 Total                  105.156             34.986             95.836
 Electronic               0.000              0.000              0.000
 Translational            0.889              2.981             40.409
 Rotational               0.889              2.981             28.980
 Vibrational            103.379             29.024             26.448
 Vibration     1          0.595              1.979              4.946
 Vibration     2          0.605              1.946              3.381
 Vibration     3          0.611              1.926              2.982
 Vibration     4          0.634              1.853              2.221
 Vibration     5          0.650              1.800              1.905
 Vibration     6          0.654              1.788              1.843
 Vibration     7          0.665              1.756              1.702
 Vibration     8          0.683              1.703              1.508
 Vibration     9          0.725              1.581              1.180
 Vibration    10          0.754              1.501              1.018
 Vibration    11          0.866              1.227              0.632
 Vibration    12          0.916              1.118              0.524

 Optimization completed.
    -- Stationary point found.
 Normal termination of Gaussian 09 at Mon Jan 27 10:57:03 2020.
