 Gaussian 09, Revision D.01,
 Gaussian 09:  ES64L-G09RevD.01 24-Apr-2013

 -----------------------------
 # b3lyp 6-31G(2df,p) opt Freq
 -----------------------------

 -----
 titel
 -----
 Symbolic Z-matrix:
 Charge =  0 Multiplicity = 1

 SCF Done:  E(RB3LYP) =  -423.217155326     A.U. after   14 cycles
 Optimization completed.
    -- Stationary point found.
 Normal termination of Gaussian 09 at Mon Jan 27 22:03:35 2020.

 ----------------------------------------------------------------------
 #N Geom=AllCheck Guess=TCheck SCRF=Check GenChk RB3LYP/6-31G(2df,p) Fr
 eq
 ----------------------------------------------------------------------

 Structure from the checkpoint file:  "/scratch/puck/g09_a94d3e3e-e788-40d4-bbf4-fb7a173294be/Gau-180958.chk"
 -----
 titel
 -----
 Charge =  0 Multiplicity = 1

                         Standard orientation:
 ---------------------------------------------------------------------
 Center     Atomic      Atomic             Coordinates (Angstroms)
 Number     Number       Type             X           Y           Z
 ---------------------------------------------------------------------
      1          6           0       -0.088631    2.302202   -0.010654
      2          6           0       -0.616408    0.904020   -0.048180
      3          6           0       -1.842536    0.479442   -0.356265
      4          6           0       -1.999856   -1.017854   -0.259978
      5          6           0       -0.695634   -1.460727    0.444615
      6          6           0        0.301101   -0.272632    0.296201
      7          8           0        1.064807   -0.054037    1.456476
      8          6           0        1.242621   -0.514148   -0.874523
      9          8           0        2.443552   -0.450761   -0.764524
     10          1           0        0.326256    2.520996    0.978814
     11          1           0        0.728535    2.445007   -0.729654
     12          1           0       -0.870525    3.031895   -0.234983
     13          1           0       -2.658235    1.131761   -0.651877
     14          1           0       -2.897475   -1.312224    0.295865
     15          1           0       -2.098057   -1.472516   -1.255039
     16          1           0       -0.851733   -1.580971    1.519418
     17          1           0       -0.297289   -2.405770    0.063356
     18          1           0        1.992861   -0.095466    1.174415
     19          1           0        0.754848   -0.746148   -1.843229
 ---------------------------------------------------------------------

 SCF Done:  E(RB3LYP) =  -423.217155326     A.U. after    1 cycles

 The electronic state is 1-A.
 Alpha  occ. eigenvalues --  -19.15948 -19.13442 -10.27990 -10.24581 -10.19317
 Alpha  occ. eigenvalues --  -10.19246 -10.19110 -10.18607 -10.18368  -1.07058
 Alpha  occ. eigenvalues --   -1.01720  -0.85068  -0.75571  -0.72267  -0.67383
 Alpha  occ. eigenvalues --   -0.62302  -0.57276  -0.53248  -0.52396  -0.48437
 Alpha  occ. eigenvalues --   -0.46342  -0.44955  -0.43262  -0.41688  -0.40291
 Alpha  occ. eigenvalues --   -0.38415  -0.36997  -0.36562  -0.35476  -0.35164
 Alpha  occ. eigenvalues --   -0.34821  -0.28225  -0.26739  -0.24179
 Alpha virt. eigenvalues --   -0.03838   0.02427   0.09330   0.09868   0.11800
 Alpha virt. eigenvalues --    0.13056   0.13830   0.14508   0.16368   0.17340
 Alpha virt. eigenvalues --    0.17814   0.18494   0.19996   0.21063   0.23559

 Mulliken charges:
               1
     1  C   -0.500377
     2  C    0.272578
     3  C   -0.172170
     4  C   -0.260815
     5  C   -0.283348
     6  C    0.249608
     7  O   -0.480136
     8  C    0.114034
     9  O   -0.279851
    10  H    0.147986
    11  H    0.128502
    12  H    0.123520
    13  H    0.094143
    14  H    0.110657
    15  H    0.109052
    16  H    0.132482
    17  H    0.102970
    18  H    0.290762
    19  H    0.100402
 Sum of Mulliken charges =   0.00000

 Dipole moment (field-independent basis, Debye):
    X=             -2.0081    Y=             -0.0975    Z=             -1.1337  Tot=              2.3080
 Quadrupole moment (field-independent basis, Debye-Ang):
   XX=            -56.2868   YY=            -50.5129   ZZ=            -55.4484
   XY=              1.0671   XZ=              1.6036   YZ=             -0.0831

  Exact polarizability:  94.078   5.539  77.123   3.987   1.255  63.104
 Approx polarizability: 148.918   9.926 104.580   8.387   3.750  98.129

                      1                      2                      3
                      A                      A                      A
 Frequencies --     78.3548                89.7893               155.6283
 Red. masses --      2.9329                 4.4690                 1.0583
 Frc consts  --      0.0106                 0.0212                 0.0151
 IR Inten    --      0.4840                 0.4379                 0.2256

                      4                      5                      6
                      A                      A                      A
 Frequencies --    216.8908               254.4428               259.4085
 Red. masses --      2.6197                 2.8425                 2.4934
 Frc consts  --      0.0726                 0.1084                 0.0989
 IR Inten    --      2.6106                 2.6223                 2.7293

                      7                      8                      9
                      A                      A                      A
 Frequencies --    294.5074               356.0475               418.9092
 Red. masses --      2.6756                 3.8357                 2.6612
 Frc consts  --      0.1367                 0.2865                 0.2751
 IR Inten    --      5.3419                13.7401                24.6686

                     10                     11                     12
                      A                      A                      A
 Frequencies --    480.9653               509.8210               577.8693
 Red. masses --      2.7759                 1.4535                 3.5504
 Frc consts  --      0.3783                 0.2226                 0.6985
 IR Inten    --     15.7648                25.4893                 9.8592

                     13                     14                     15
                      A                      A                      A
 Frequencies --    620.3861               688.6518               803.3450
 Red. masses --      3.7492                 2.4763                 1.7813
 Frc consts  --      0.8502                 0.6919                 0.6773
 IR Inten    --      2.4246                 3.0999                10.4537

                     16                     17                     18
                      A                      A                      A
 Frequencies --    822.0168               865.7384               926.0173
 Red. masses --      5.0204                 1.2655                 2.3887
 Frc consts  --      1.9987                 0.5588                 1.2068
 IR Inten    --     35.2470                 2.6483                 1.1642

                     19                     20                     21
                      A                      A                      A
 Frequencies --    934.8000               946.2989               996.8826
 Red. masses --      2.4448                 1.8699                 1.8416
 Frc consts  --      1.2587                 0.9866                 1.0783
 IR Inten    --      0.6291                16.3330                 5.2752

                     22                     23                     24
                      A                      A                      A
 Frequencies --   1035.4815              1061.7983              1070.9877
 Red. masses --      1.6992                 1.7324                 2.1081
 Frc consts  --      1.0734                 1.1507                 1.4246
 IR Inten    --     11.3063                 1.9499                19.2991

                     25                     26                     27
                      A                      A                      A
 Frequencies --   1096.3977              1142.3001              1201.2499
 Red. masses --      2.0889                 1.8135                 2.5376
 Frc consts  --      1.4795                 1.3942                 2.1574
 IR Inten    --      4.3972                44.4120                 3.0783

                     28                     29                     30
                      A                      A                      A
 Frequencies --   1221.7148              1248.2135              1286.0459
 Red. masses --      1.8442                 1.6377                 1.5474
 Frc consts  --      1.6218                 1.5034                 1.5078
 IR Inten    --     24.4270                 1.5298                 1.7676

                     31                     32                     33
                      A                      A                      A
 Frequencies --   1318.2143              1345.1606              1382.9889
 Red. masses --      1.5097                 1.7441                 1.2022
 Frc consts  --      1.5457                 1.8594                 1.3548
 IR Inten    --      0.3159                21.0283                61.1719

                     34                     35                     36
                      A                      A                      A
 Frequencies --   1410.1164              1428.4171              1473.8153
 Red. masses --      1.2811                 1.3760                 1.0468
 Frc consts  --      1.5008                 1.6541                 1.3397
 IR Inten    --      2.9204                43.2466                 8.2557

                     37                     38                     39
                      A                      A                      A
 Frequencies --   1481.5377              1490.8507              1502.2196
 Red. masses --      1.0819                 1.0594                 1.0930
 Frc consts  --      1.3992                 1.3873                 1.4533
 IR Inten    --      3.4625                 5.7963                 1.1768

                     40                     41                     42
                      A                      A                      A
 Frequencies --   1723.9457              1806.1003              2930.4576
 Red. masses --      7.3424                10.3834                 1.0861
 Frc consts  --     12.8569                19.9561                 5.4951
 IR Inten    --      0.9712               171.8218                58.1673

                     43                     44                     45
                      A                      A                      A
 Frequencies --   3015.4603              3023.8404              3050.9513
 Red. masses --      1.0665                 1.0418                 1.0939
 Frc consts  --      5.7138                 5.6124                 5.9993
 IR Inten    --     38.7431                20.9731                24.1107

                     46                     47                     48
                      A                      A                      A
 Frequencies --   3060.7595              3081.3197              3111.6154
 Red. masses --      1.0632                 1.0921                 1.1032
 Frc consts  --      5.8686                 6.1093                 6.2933
 IR Inten    --     28.0713                11.6438                13.5297

                     49                     50                     51
                      A                      A                      A
 Frequencies --   3121.3637              3182.1202              3681.1069
 Red. masses --      1.1014                 1.0934                 1.0647
 Frc consts  --      6.3224                 6.5233                 8.5001
 IR Inten    --     13.8993                15.8044                75.6287

 - Thermochemistry -
 -------------------
 Temperature   298.150 Kelvin.  Pressure   1.00000 Atm.
 Atom     1 has atomic number  6 and mass  12.00000

 Molecular mass:   126.06808 amu.
 Principal axes and moments of inertia in atomic units:
                           1         2         3
     Eigenvalues --   807.493181172.380191487.11498
           X            0.99864   0.04957   0.01638
           Y           -0.04948   0.99876  -0.00586
           Z           -0.01665   0.00504   0.99985
 This molecule is an asymmetric top.
 Rotational symmetry number  1.
 Warning -- assumption of classical behavior for rotation
           may cause significant error
 Rotational temperatures (Kelvin)      0.10726     0.07388     0.05824
 Rotational constants (GHZ):           2.23499     1.53938     1.21359
 Zero-point vibrational energy     414406.3 (Joules/Mol)
                                   99.04548 (Kcal/Mol)
 Warning -- explicit consideration of  13 degrees of freedom as
           vibrations may cause significant error
 Vibrational temperatures:    112.73   129.19   223.91   312.06   366.09
          (Kelvin)            373.23   423.73   512.27   602.72   692.00
                              733.52   831.42   892.60   990.82  1155.83
                             1182.70  1245.60  1332.33  1344.97  1361.51
                             1434.29  1489.83  1527.69  1540.91  1577.47
                             1643.51  1728.33  1757.77  1795.90  1850.33
                             1896.61  1935.38  1989.81  2028.84  2055.17
                             2120.49  2131.60  2145.00  2161.36  2480.37
                             2598.57  4216.27  4338.57  4350.63  4389.63
                             4403.74  4433.33  4476.91  4490.94  4578.36
                             5296.29

 Zero-point correction=                           0.157839 (Hartree/Particle)
 Thermal correction to Energy=                    0.166941
 Thermal correction to Enthalpy=                  0.167885
 Thermal correction to Gibbs Free Energy=         0.123986
 Sum of electronic and zero-point Energies=           -423.059316
 Sum of electronic and thermal Energies=              -423.050214
 Sum of electronic and thermal Enthalpies=            -423.049270
 Sum of electronic and thermal Free Energies=         -423.093169

                     E (Thermal)             CV                S
                      KCal/Mol        Cal/Mol-Kelvin    Cal/Mol-Kelvin
 Total                  104.757             33.925             92.393
 Electronic               0.000              0.000              0.000
 Translational            0.889              2.981             40.409
 Rotational               0.889              2.981             28.733
 Vibrational            102.980             27.964             23.251
 Vibration     1          0.600              1.964              3.932
 Vibration     2          0.602              1.956              3.665
 Vibration     3          0.620              1.896              2.602
 Vibration     4          0.646              1.815              1.985
 Vibration     5          0.665              1.755              1.700
 Vibration     6          0.668              1.747              1.666
 Vibration     7          0.689              1.684              1.448
 Vibration     8          0.732              1.563              1.139
 Vibration     9          0.782              1.429              0.896
 Vibration    10          0.837              1.292              0.707
 Vibration    11          0.865              1.228              0.634
 Vibration    12          0.934              1.079              0.489
 Vibration    13          0.980              0.989              0.416

 Normal termination of Gaussian 09 at Mon Jan 27 22:48:30 2020.
