 Gaussian 09, Revision D.01,
 Gaussian 09:  ES64L-G09RevD.01 24-Apr-2013

 -----------------------------
 # b3lyp 6-31G(2df,p) opt Freq
 -----------------------------

 -----
 titel
 -----
 Symbolic Z-matrix:
 Charge =  0 Multiplicity = 1

 SCF Done:  E(RB3LYP) =  -423.184780954     A.U. after   14 cycles
 Optimization completed.
    -- Stationary point found.
 Normal termination of Gaussian 09 at Mon Jan 27 23:06:59 2020.

 ----------------------------------------------------------------------
 #N Geom=AllCheck Guess=TCheck SCRF=Check GenChk RB3LYP/6-31G(2df,p) Fr
 eq
 ----------------------------------------------------------------------

 Structure from the checkpoint file:  "/scratch/puck/g09_54077cdb-1948-4163-a821-260766ae011f/Gau-79625.chk"
 -----
 titel
 -----
 Charge =  0 Multiplicity = 1

                         Standard orientation:
 ---------------------------------------------------------------------
 Center     Atomic      Atomic             Coordinates (Angstroms)
 Number     Number       Type             X           Y           Z
 ---------------------------------------------------------------------
      1          8           0       -2.336296   -1.091907   -0.076213
      2          6           0       -1.676108    0.117363   -0.316926
      3          6           0       -0.900157    0.875739    0.801546
      4          6           0       -0.138937    1.561878   -0.368404
      5          6           0       -0.292263    0.170880   -1.045195
      6          6           0        0.571839   -0.740566   -0.120859
      7          6           0        0.123973   -0.181227    1.265167
      8          6           0        2.041771   -0.605833   -0.431168
      9          8           0        2.834255    0.037035    0.212083
     10          1           0       -1.816068   -1.619635    0.537872
     11          1           0       -2.399093    0.763513   -0.820377
     12          1           0       -1.414165    1.447015    1.574249
     13          1           0       -0.727465    2.334927   -0.866421
     14          1           0        0.871749    1.920880   -0.168266
     15          1           0       -0.197076    0.023707   -2.121187
     16          1           0        0.296959   -1.790991   -0.281093
     17          1           0       -0.311710   -0.951969    1.910579
     18          1           0        0.968432    0.259864    1.798431
     19          1           0        2.364056   -1.137748   -1.355721
 ---------------------------------------------------------------------

 SCF Done:  E(RB3LYP) =  -423.184780954     A.U. after    1 cycles

 The electronic state is 1-A.
 Alpha  occ. eigenvalues --  -19.14680 -19.14370 -10.27319 -10.23921 -10.20475
 Alpha  occ. eigenvalues --  -10.20307 -10.19584 -10.19166 -10.18989  -1.04972
 Alpha  occ. eigenvalues --   -1.03228  -0.89256  -0.75657  -0.71197  -0.65535
 Alpha  occ. eigenvalues --   -0.61951  -0.57306  -0.54048  -0.51446  -0.50877
 Alpha  occ. eigenvalues --   -0.48883  -0.44441  -0.42739  -0.41159  -0.39711
 Alpha  occ. eigenvalues --   -0.38633  -0.37256  -0.35804  -0.35125  -0.33583
 Alpha  occ. eigenvalues --   -0.31929  -0.31015  -0.26707  -0.25280
 Alpha virt. eigenvalues --   -0.02527   0.06004   0.10388   0.10940   0.12897
 Alpha virt. eigenvalues --    0.14006   0.14440   0.15285   0.15629   0.16703
 Alpha virt. eigenvalues --    0.18371   0.18580   0.19257   0.20402   0.21524

 Mulliken charges:
               1
     1  O   -0.446311
     2  C    0.175448
     3  C   -0.067333
     4  C   -0.239304
     5  C   -0.087407
     6  C   -0.087198
     7  C   -0.266394
     8  C    0.133581
     9  O   -0.244402
    10  H    0.286425
    11  H    0.092769
    12  H    0.067225
    13  H    0.104080
    14  H    0.121696
    15  H    0.070692
    16  H    0.081311
    17  H    0.091547
    18  H    0.134050
    19  H    0.079524
 Sum of Mulliken charges =   0.00000

 Dipole moment (field-independent basis, Debye):
    X=             -0.8589    Y=             -0.5312    Z=             -0.3161  Tot=              1.0582
 Quadrupole moment (field-independent basis, Debye-Ang):
   XX=            -65.9787   YY=            -50.2949   ZZ=            -51.3381
   XY=             -4.3739   XZ=             -3.2955   YZ=             -1.4595

  Exact polarizability:  82.836  -1.224  71.343  -0.212   1.240  70.616
 Approx polarizability: 120.508   5.064 109.697   5.427   3.929 108.692

                      1                      2                      3
                      A                      A                      A
 Frequencies --     78.7538               150.5353               209.7893
 Red. masses --      5.1846                 4.2851                 3.3982
 Frc consts  --      0.0189                 0.0572                 0.0881
 IR Inten    --      7.6693                10.8742                 6.0350

                      4                      5                      6
                      A                      A                      A
 Frequencies --    259.9268               270.0975               328.2681
 Red. masses --      1.2222                 2.6682                 3.1986
 Frc consts  --      0.0487                 0.1147                 0.2031
 IR Inten    --     65.0466                 3.0893                 3.2794

                      7                      8                      9
                      A                      A                      A
 Frequencies --    428.7795               474.7232               592.2276
 Red. masses --      2.5903                 2.1224                 3.6280
 Frc consts  --      0.2806                 0.2818                 0.7497
 IR Inten    --     13.3556                 1.7510                 0.3108

                     10                     11                     12
                      A                      A                      A
 Frequencies --    649.2153               696.5941               785.2785
 Red. masses --      4.4199                 3.0501                 3.6425
 Frc consts  --      1.0976                 0.8720                 1.3234
 IR Inten    --      8.7619                 3.8670                18.4002

                     13                     14                     15
                      A                      A                      A
 Frequencies --    815.6268               822.9007               836.3732
 Red. masses --      2.5906                 2.6805                 2.8057
 Frc consts  --      1.0154                 1.0694                 1.1564
 IR Inten    --      0.7484                 3.1970                 0.3927

                     16                     17                     18
                      A                      A                      A
 Frequencies --    869.7070               936.8326               963.1683
 Red. masses --      2.3343                 1.9451                 1.7997
 Frc consts  --      1.0403                 1.0058                 0.9837
 IR Inten    --     11.4325                 6.0524                 5.4159

                     19                     20                     21
                      A                      A                      A
 Frequencies --    995.2822              1004.0210              1017.1713
 Red. masses --      1.4340                 1.7849                 2.6399
 Frc consts  --      0.8370                 1.0601                 1.6093
 IR Inten    --      3.4977                 9.6618                 7.6370

                     22                     23                     24
                      A                      A                      A
 Frequencies --   1032.6000              1068.1763              1102.7953
 Red. masses --      1.5529                 1.6246                 1.3479
 Frc consts  --      0.9756                 1.0921                 0.9658
 IR Inten    --      0.4131                12.7925                 6.8445

                     25                     26                     27
                      A                      A                      A
 Frequencies --   1118.3166              1141.7912              1174.3065
 Red. masses --      1.6409                 2.2494                 1.4900
 Frc consts  --      1.2091                 1.7278                 1.2106
 IR Inten    --     11.3314               103.3328                49.8798

                     28                     29                     30
                      A                      A                      A
 Frequencies --   1185.4158              1207.1459              1238.0999
 Red. masses --      1.6209                 1.4132                 1.4760
 Frc consts  --      1.3420                 1.2133                 1.3331
 IR Inten    --      7.1186                 7.0888                 4.3061

                     31                     32                     33
                      A                      A                      A
 Frequencies --   1262.2502              1278.0411              1294.4487
 Red. masses --      1.5675                 1.5429                 1.5624
 Frc consts  --      1.4714                 1.4848                 1.5425
 IR Inten    --     16.3615                 9.2180                 2.5308

                     34                     35                     36
                      A                      A                      A
 Frequencies --   1302.1741              1326.6496              1369.4425
 Red. masses --      1.5876                 1.4762                 1.6668
 Frc consts  --      1.5861                 1.5308                 1.8417
 IR Inten    --     11.4826                 6.2446                 7.0907

                     37                     38                     39
                      A                      A                      A
 Frequencies --   1425.9694              1443.6091              1501.7345
 Red. masses --      1.2000                 1.1907                 1.1014
 Frc consts  --      1.4376                 1.4621                 1.4634
 IR Inten    --      8.6197                56.4283                13.6354

                     40                     41                     42
                      A                      A                      A
 Frequencies --   1516.8149              1819.1491              2868.2983
 Red. masses --      1.1049                10.0943                 1.0825
 Frc consts  --      1.4978                19.6817                 5.2473
 IR Inten    --      6.4247               139.6541               126.1189

                     43                     44                     45
                      A                      A                      A
 Frequencies --   3023.3933              3046.9395              3076.5312
 Red. masses --      1.0827                 1.0683                 1.0584
 Frc consts  --      5.8310                 5.8435                 5.9021
 IR Inten    --     21.2411                41.6867                15.3249

                     46                     47                     48
                      A                      A                      A
 Frequencies --   3091.1818              3113.8629              3115.7040
 Red. masses --      1.0848                 1.0962                 1.0890
 Frc consts  --      6.1071                 6.2626                 6.2284
 IR Inten    --     24.0083                 8.3045                57.8431

                     49                     50                     51
                      A                      A                      A
 Frequencies --   3122.1280              3139.0577              3821.6491
 Red. masses --      1.0915                 1.1097                 1.0652
 Frc consts  --      6.2689                 6.4425                 9.1658
 IR Inten    --     23.5095                18.3601                11.6446

 - Thermochemistry -
 -------------------
 Temperature   298.150 Kelvin.  Pressure   1.00000 Atm.
 Atom     1 has atomic number  8 and mass  15.99491

 Molecular mass:   126.06808 amu.
 Principal axes and moments of inertia in atomic units:
                           1         2         3
     Eigenvalues --   547.038511419.777331511.97450
           X            0.99985  -0.01515  -0.00863
           Y            0.01484   0.99931  -0.03406
           Z            0.00914   0.03393   0.99938
 This molecule is an asymmetric top.
 Rotational symmetry number  1.
 Warning -- assumption of classical behavior for rotation
           may cause significant error
 Rotational temperatures (Kelvin)      0.15833     0.06101     0.05729
 Rotational constants (GHZ):           3.29911     1.27114     1.19363
 Zero-point vibrational energy     421163.0 (Joules/Mol)
                                  100.66036 (Kcal/Mol)
 Warning -- explicit consideration of   9 degrees of freedom as
           vibrations may cause significant error
 Vibrational temperatures:    113.31   216.59   301.84   373.98   388.61
          (Kelvin)            472.30   616.92   683.02   852.08   934.07
                             1002.24  1129.84  1173.50  1183.97  1203.35
                             1251.31  1347.89  1385.78  1431.99  1444.56
                             1463.48  1485.68  1536.87  1586.67  1609.01
                             1642.78  1689.56  1705.55  1736.81  1781.35
                             1816.09  1838.81  1862.42  1873.54  1908.75
                             1970.32  2051.65  2077.03  2160.66  2182.36
                             2617.35  4126.84  4349.98  4383.86  4426.44
                             4447.52  4480.15  4482.80  4492.04  4516.40
                             5498.49

 Zero-point correction=                           0.160412 (Hartree/Particle)
 Thermal correction to Energy=                    0.168308
 Thermal correction to Enthalpy=                  0.169252
 Thermal correction to Gibbs Free Energy=         0.127912
 Sum of electronic and zero-point Energies=           -423.024368
 Sum of electronic and thermal Energies=              -423.016473
 Sum of electronic and thermal Enthalpies=            -423.015529
 Sum of electronic and thermal Free Energies=         -423.056869

                     E (Thermal)             CV                S
                      KCal/Mol        Cal/Mol-Kelvin    Cal/Mol-Kelvin
 Total                  105.615             30.802             87.008
 Electronic               0.000              0.000              0.000
 Translational            0.889              2.981             40.409
 Rotational               0.889              2.981             28.553
 Vibrational            103.837             24.840             18.046
 Vibration     1          0.600              1.963              3.922
 Vibration     2          0.618              1.902              2.665
 Vibration     3          0.642              1.826              2.046
 Vibration     4          0.668              1.746              1.662
 Vibration     5          0.674              1.728              1.596
 Vibration     6          0.711              1.619              1.269
 Vibration     7          0.790              1.408              0.863
 Vibration     8          0.831              1.306              0.724
 Vibration     9          0.950              1.048              0.463

 Optimization completed.
    -- Stationary point found.
 Normal termination of Gaussian 09 at Mon Jan 27 23:53:54 2020.
