 Gaussian 09, Revision D.01,
 Gaussian 09:  ES64L-G09RevD.01 24-Apr-2013

 -----------------------------
 # b3lyp 6-31G(2df,p) opt Freq
 -----------------------------

 -----
 titel
 -----
 Symbolic Z-matrix:
 Charge =  0 Multiplicity = 1

 SCF Done:  E(RB3LYP) =  -423.236585031     A.U. after   14 cycles
 SCF Done:  E(RB3LYP) =  -423.236585012     A.U. after    7 cycles
 SCF Done:  E(RB3LYP) =  -423.236585048     A.U. after    7 cycles
 SCF Done:  E(RB3LYP) =  -423.236584668     A.U. after    7 cycles
 Optimization completed.
    -- Stationary point found.
 Normal termination of Gaussian 09 at Mon Jan 27 14:18:32 2020.

 ----------------------------------------------------------------------
 #N Geom=AllCheck Guess=TCheck SCRF=Check GenChk RB3LYP/6-31G(2df,p) Fr
 eq
 ----------------------------------------------------------------------

 Structure from the checkpoint file:  "/scratch/puck/g09_aa55e1c3-fbf0-402a-9260-ac9769e327b4/Gau-2380.chk"
 -----
 titel
 -----
 Charge =  0 Multiplicity = 1

                         Standard orientation:
 ---------------------------------------------------------------------
 Center     Atomic      Atomic             Coordinates (Angstroms)
 Number     Number       Type             X           Y           Z
 ---------------------------------------------------------------------
      1          8           0        3.137869   -0.068467    0.298256
      2          6           0        2.242175   -0.717903   -0.176758
      3          6           0        0.836396   -0.206005   -0.419914
      4          6           0        0.651009    1.262080   -0.026252
      5          6           0       -0.784142    1.731020   -0.294274
      6          6           0       -1.820909    0.844031    0.425908
      7          6           0       -1.608030   -0.629159    0.112382
      8          8           0       -2.491642   -1.358006   -0.271034
      9          6           0       -0.177800   -1.124374    0.312621
     10          1           0        2.398080   -1.782291   -0.469932
     11          1           0        0.655143   -0.324919   -1.500879
     12          1           0        0.896111    1.378635    1.036684
     13          1           0        1.367828    1.883168   -0.571189
     14          1           0       -0.908765    2.771391    0.022531
     15          1           0       -0.982485    1.708592   -1.373654
     16          1           0       -1.707031    0.972207    1.511918
     17          1           0       -2.846437    1.112004    0.162438
     18          1           0        0.041797   -1.104060    1.389481
     19          1           0       -0.116251   -2.161081   -0.027447
 ---------------------------------------------------------------------

 SCF Done:  E(RB3LYP) =  -423.236584668     A.U. after    1 cycles

 The electronic state is 1-A.
 Alpha  occ. eigenvalues --  -19.14941 -19.13485 -10.27866 -10.27464 -10.21505
 Alpha  occ. eigenvalues --  -10.20655 -10.20102 -10.19736 -10.19568  -1.05610
 Alpha  occ. eigenvalues --   -1.04521  -0.84861  -0.77744  -0.73810  -0.66652
 Alpha  occ. eigenvalues --   -0.62168  -0.56169  -0.54071  -0.48914  -0.48745
 Alpha  occ. eigenvalues --   -0.47040  -0.45344  -0.44732  -0.42364  -0.41676
 Alpha  occ. eigenvalues --   -0.40624  -0.39823  -0.36894  -0.36272  -0.34701
 Alpha  occ. eigenvalues --   -0.34272  -0.33474  -0.26612  -0.24255
 Alpha virt. eigenvalues --   -0.02993  -0.02092   0.08283   0.09385   0.10902
 Alpha virt. eigenvalues --    0.13106   0.13932   0.14606   0.15135   0.15919
 Alpha virt. eigenvalues --    0.16384   0.16810   0.19405   0.19962   0.22360

 Mulliken charges:
               1
     1  O   -0.238710
     2  C    0.140438
     3  C   -0.089336
     4  C   -0.188782
     5  C   -0.229484
     6  C   -0.287369
     7  C    0.383811
     8  O   -0.298844
     9  C   -0.313757
    10  H    0.081452
    11  H    0.104856
    12  H    0.111431
    13  H    0.114923
    14  H    0.108832
    15  H    0.109587
    16  H    0.118803
    17  H    0.121573
    18  H    0.126741
    19  H    0.123836
 Sum of Mulliken charges =   0.00000

 Dipole moment (field-independent basis, Debye):
    X=             -0.1074    Y=              1.0403    Z=             -0.0659  Tot=              1.0479
 Quadrupole moment (field-independent basis, Debye-Ang):
   XX=            -69.6919   YY=            -52.9465   ZZ=            -50.9557
   XY=             -7.5574   XZ=             -4.3985   YZ=             -0.6884

  Exact polarizability:  90.112   0.968  79.259   2.184   3.057  60.428
 Approx polarizability: 126.924  12.803 114.162   9.759   8.557  99.044

                      1                      2                      3
                      A                      A                      A
 Frequencies --     67.1459                98.4836               121.8169
 Red. masses --      5.3853                 3.6021                 3.1895
 Frc consts  --      0.0143                 0.0206                 0.0279
 IR Inten    --      9.2577                 1.8646                 5.2480

                      4                      5                      6
                      A                      A                      A
 Frequencies --    218.4232               241.2017               332.7994
 Red. masses --      3.7693                 1.9908                 3.5066
 Frc consts  --      0.1060                 0.0682                 0.2288
 IR Inten    --      7.3650                 0.2372                 0.3115

                      7                      8                      9
                      A                      A                      A
 Frequencies --    378.6397               415.7170               469.9017
 Red. masses --      3.1236                 2.5172                 1.7434
 Frc consts  --      0.2638                 0.2563                 0.2268
 IR Inten    --      0.5358                 1.4122                 0.8282

                     10                     11                     12
                      A                      A                      A
 Frequencies --    505.5201               624.0103               701.7144
 Red. masses --      3.1294                 4.3884                 4.4732
 Frc consts  --      0.4712                 1.0068                 1.2977
 IR Inten    --      8.7429                 3.4520                18.3698

                     13                     14                     15
                      A                      A                      A
 Frequencies --    757.9887               810.6048               823.1590
 Red. masses --      2.0115                 2.9568                 1.6815
 Frc consts  --      0.6809                 1.1447                 0.6713
 IR Inten    --      3.7216                 3.8461                 3.4148

                     16                     17                     18
                      A                      A                      A
 Frequencies --    871.0665               902.9681               937.7472
 Red. masses --      1.5079                 2.3866                 2.2119
 Frc consts  --      0.6741                 1.1465                 1.1460
 IR Inten    --      7.8777                 0.3927                21.8601

                     19                     20                     21
                      A                      A                      A
 Frequencies --    958.2011              1041.0254              1054.5435
 Red. masses --      1.5493                 1.9434                 1.7832
 Frc consts  --      0.8381                 1.2409                 1.1684
 IR Inten    --      0.1324                 2.8583                 1.4002

                     22                     23                     24
                      A                      A                      A
 Frequencies --   1059.9304              1110.1504              1129.0600
 Red. masses --      1.3785                 2.6187                 2.2718
 Frc consts  --      0.9125                 1.9015                 1.7063
 IR Inten    --     13.1145                21.7425                 9.3318

                     25                     26                     27
                      A                      A                      A
 Frequencies --   1207.9405              1230.1001              1240.1911
 Red. masses --      1.7547                 1.7332                 1.4115
 Frc consts  --      1.5085                 1.5452                 1.2791
 IR Inten    --      2.4396                37.8666                 1.3369

                     28                     29                     30
                      A                      A                      A
 Frequencies --   1269.7816              1286.5645              1324.6806
 Red. masses --      1.4059                 1.2443                 1.3521
 Frc consts  --      1.3356                 1.2135                 1.3980
 IR Inten    --     12.2872                 0.9390                 2.5840

                     31                     32                     33
                      A                      A                      A
 Frequencies --   1325.6418              1340.9606              1373.7339
 Red. masses --      1.4671                 1.3355                 1.4648
 Frc consts  --      1.5190                 1.4149                 1.6286
 IR Inten    --      0.7741                 4.8263                13.0995

                     34                     35                     36
                      A                      A                      A
 Frequencies --   1387.5204              1428.6207              1462.2328
 Red. masses --      1.6633                 1.2216                 1.1007
 Frc consts  --      1.8866                 1.4690                 1.3866
 IR Inten    --      2.0749                 6.9956                 6.8368

                     37                     38                     39
                      A                      A                      A
 Frequencies --   1469.8458              1487.7902              1499.8480
 Red. masses --      1.0879                 1.0854                 1.0942
 Frc consts  --      1.3847                 1.4155                 1.4502
 IR Inten    --      3.9281                 9.8916                 0.7051

                     40                     41                     42
                      A                      A                      A
 Frequencies --   1820.8001              1829.2976              2862.7351
 Red. masses --     11.2116                10.5387                 1.0827
 Frc consts  --     21.8998                20.7781                 5.2278
 IR Inten    --    255.6832               111.7619               119.9051

                     43                     44                     45
                      A                      A                      A
 Frequencies --   2980.3557              3013.5046              3020.5503
 Red. masses --      1.0805                 1.0674                 1.0662
 Frc consts  --      5.6547                 5.7110                 5.7313
 IR Inten    --     12.7301                 1.4890                 9.6739

                     46                     47                     48
                      A                      A                      A
 Frequencies --   3027.4595              3040.7398              3077.8814
 Red. masses --      1.0648                 1.0638                 1.0971
 Frc consts  --      5.7503                 5.7950                 6.1237
 IR Inten    --     27.2645                19.5807                33.3668

                     49                     50                     51
                      A                      A                      A
 Frequencies --   3091.2998              3105.1347              3110.5525
 Red. masses --      1.0992                 1.0964                 1.0954
 Frc consts  --      6.1887                 6.2287                 6.2445
 IR Inten    --     23.5039                14.9361                16.4257

 - Thermochemistry -
 -------------------
 Temperature   298.150 Kelvin.  Pressure   1.00000 Atm.
 Atom     1 has atomic number  8 and mass  15.99491

 Molecular mass:   126.06808 amu.
 Principal axes and moments of inertia in atomic units:
                           1         2         3
     Eigenvalues --   595.091251610.706162065.17754
           X            0.99941  -0.03326  -0.00864
           Y            0.03324   0.99944  -0.00264
           Z            0.00873   0.00235   0.99996
 This molecule is an asymmetric top.
 Rotational symmetry number  1.
 Warning -- assumption of classical behavior for rotation
           may cause significant error
 Rotational temperatures (Kelvin)      0.14555     0.05377     0.04194
 Rotational constants (GHZ):           3.03271     1.12047     0.87389
 Zero-point vibrational energy     418379.4 (Joules/Mol)
                                   99.99509 (Kcal/Mol)
 Warning -- explicit consideration of  10 degrees of freedom as
           vibrations may cause significant error
 Vibrational temperatures:     96.61   141.70   175.27   314.26   347.03
          (Kelvin)            478.82   544.78   598.12   676.08   727.33
                              897.81  1009.61  1090.58  1166.28  1184.34
                             1253.27  1299.17  1349.21  1378.64  1497.80
                             1517.25  1525.00  1597.26  1624.46  1737.95
                             1769.84  1784.36  1826.93  1851.08  1905.92
                             1907.30  1929.34  1976.49  1996.33  2055.46
                             2103.82  2114.78  2140.60  2157.94  2619.72
                             2631.95  4118.83  4288.06  4335.76  4345.89
                             4355.83  4374.94  4428.38  4447.69  4467.59
                             4475.39

 Zero-point correction=                           0.159352 (Hartree/Particle)
 Thermal correction to Energy=                    0.167905
 Thermal correction to Enthalpy=                  0.168849
 Thermal correction to Gibbs Free Energy=         0.125522
 Sum of electronic and zero-point Energies=           -423.077232
 Sum of electronic and thermal Energies=              -423.068680
 Sum of electronic and thermal Enthalpies=            -423.067736
 Sum of electronic and thermal Free Energies=         -423.111062

                     E (Thermal)             CV                S
                      KCal/Mol        Cal/Mol-Kelvin    Cal/Mol-Kelvin
 Total                  105.362             31.685             91.188
 Electronic               0.000              0.000              0.000
 Translational            0.889              2.981             40.409
 Rotational               0.889              2.981             29.072
 Vibrational            103.584             25.723             21.708
 Vibration     1          0.598              1.970              4.235
 Vibration     2          0.604              1.950              3.484
 Vibration     3          0.609              1.931              3.071
 Vibration     4          0.646              1.813              1.972
 Vibration     5          0.658              1.777              1.794
 Vibration     6          0.715              1.610              1.246
 Vibration     7          0.749              1.516              1.045
 Vibration     8          0.779              1.436              0.907
 Vibration     9          0.827              1.317              0.738
 Vibration    10          0.861              1.238              0.644

 Optimization completed.
    -- Stationary point found.
 Normal termination of Gaussian 09 at Mon Jan 27 16:06:00 2020.
