 Gaussian 09, Revision D.01,
 Gaussian 09:  ES64L-G09RevD.01 24-Apr-2013

 -----------------------------
 # b3lyp 6-31G(2df,p) opt Freq
 -----------------------------

 -----
 titel
 -----
 Symbolic Z-matrix:
 Charge =  0 Multiplicity = 1

 SCF Done:  E(RB3LYP) =  -423.155161953     A.U. after   13 cycles
 Optimization completed.
    -- Stationary point found.
 Normal termination of Gaussian 09 at Tue Jan 28 00:03:09 2020.

 ----------------------------------------------------------------------
 #N Geom=AllCheck Guess=TCheck SCRF=Check GenChk RB3LYP/6-31G(2df,p) Fr
 eq
 ----------------------------------------------------------------------

 Structure from the checkpoint file:  "/scratch/puck/g09_c0482f9c-b743-447f-9349-80a8c696fad5/Gau-31930.chk"
 -----
 titel
 -----
 Charge =  0 Multiplicity = 1

                         Standard orientation:
 ---------------------------------------------------------------------
 Center     Atomic      Atomic             Coordinates (Angstroms)
 Number     Number       Type             X           Y           Z
 ---------------------------------------------------------------------
      1          8           0       -2.615770    0.119652   -0.247149
      2          6           0       -1.239065    0.376066   -0.447192
      3          6           0       -0.410614    0.644101    0.845376
      4          6           0        0.847360    1.454784    0.497746
      5          6           0        1.511706    0.821214   -0.754498
      6          6           0        1.150937   -0.661601   -0.740016
      7          8           0        1.359089   -1.146151    0.624772
      8          6           0       -0.030852   -0.898367    0.868955
      9          6           0       -0.398432   -0.903389   -0.631343
     10          1           0       -2.707440   -0.580240    0.408417
     11          1           0       -1.201257    1.144869   -1.223999
     12          1           0       -0.963175    1.048961    1.696213
     13          1           0        0.590985    2.504217    0.322402
     14          1           0        1.543794    1.420800    1.339656
     15          1           0        1.160293    1.285124   -1.683022
     16          1           0        2.598626    0.943006   -0.723645
     17          1           0        1.696263   -1.266739   -1.468196
     18          1           0       -0.448929   -1.529017    1.656361
     19          1           0       -0.801968   -1.755837   -1.179342
 ---------------------------------------------------------------------

 SCF Done:  E(RB3LYP) =  -423.155161953     A.U. after    1 cycles

 The electronic state is 1-A.
 Alpha  occ. eigenvalues --  -19.13955 -19.13211 -10.23959 -10.23553 -10.23150
 Alpha  occ. eigenvalues --  -10.18822 -10.18591 -10.18545 -10.18526  -1.04626
 Alpha  occ. eigenvalues --   -1.02077  -0.83711  -0.76409  -0.72349  -0.64341
 Alpha  occ. eigenvalues --   -0.60681  -0.59913  -0.53641  -0.51344  -0.48832
 Alpha  occ. eigenvalues --   -0.46879  -0.46237  -0.41457  -0.41027  -0.39008
 Alpha  occ. eigenvalues --   -0.38658  -0.36391  -0.35813  -0.34561  -0.33861
 Alpha  occ. eigenvalues --   -0.30117  -0.28097  -0.25414  -0.23765
 Alpha virt. eigenvalues --    0.05942   0.08609   0.09223   0.10653   0.12647
 Alpha virt. eigenvalues --    0.14570   0.15353   0.15426   0.16216   0.16621
 Alpha virt. eigenvalues --    0.16914   0.18732   0.20764   0.21266   0.21847

 Mulliken charges:
               1
     1  O   -0.449048
     2  C    0.150436
     3  C   -0.115998
     4  C   -0.208566
     5  C   -0.226756
     6  C    0.089422
     7  O   -0.301988
     8  C    0.102543
     9  C   -0.125485
    10  H    0.279649
    11  H    0.083308
    12  H    0.067097
    13  H    0.098848
    14  H    0.115144
    15  H    0.105184
    16  H    0.106987
    17  H    0.078751
    18  H    0.076197
    19  H    0.074274
 Sum of Mulliken charges =   0.00000

 Dipole moment (field-independent basis, Debye):
    X=              0.0797    Y=              0.0573    Z=             -0.1303  Tot=              0.1632
 Quadrupole moment (field-independent basis, Debye-Ang):
   XX=            -58.3651   YY=            -52.6313   ZZ=            -51.3535
   XY=              5.0919   XZ=             -5.3600   YZ=              0.4949

  Exact polarizability:  77.218   2.386  71.672  -3.861   0.318  69.231
 Approx polarizability: 110.636  -0.628 104.548  -2.552  -2.673 107.162

                      1                      2                      3
                      A                      A                      A
 Frequencies --    182.2690               235.4960               268.2907
 Red. masses --      3.9168                 1.1001                 1.8672
 Frc consts  --      0.0767                 0.0359                 0.0792
 IR Inten    --      6.5885                59.4330                 0.5624

                      4                      5                      6
                      A                      A                      A
 Frequencies --    336.4876               350.4442               402.9552
 Red. masses --      4.4263                 2.5795                 4.9099
 Frc consts  --      0.2953                 0.1866                 0.4697
 IR Inten    --     27.3992                 0.8943                 3.6088

                      7                      8                      9
                      A                      A                      A
 Frequencies --    471.8846               563.0880               667.5182
 Red. masses --      4.1720                 5.2673                 3.2382
 Frc consts  --      0.5474                 0.9840                 0.8501
 IR Inten    --      2.3019                 0.5567                 0.7696

                     10                     11                     12
                      A                      A                      A
 Frequencies --    744.3479               796.0711               802.4872
 Red. masses --      3.7340                 2.6416                 1.6667
 Frc consts  --      1.2189                 0.9863                 0.6324
 IR Inten    --      3.8182                 6.2773                 0.2288

                     13                     14                     15
                      A                      A                      A
 Frequencies --    833.9566               853.4079               888.2631
 Red. masses --      2.1863                 2.3846                 2.7287
 Frc consts  --      0.8959                 1.0232                 1.2685
 IR Inten    --     10.7431                 6.4361                 2.0655

                     16                     17                     18
                      A                      A                      A
 Frequencies --    911.9475               936.9801               965.9567
 Red. masses --      2.5646                 2.4614                 1.9022
 Frc consts  --      1.2566                 1.2732                 1.0457
 IR Inten    --     12.9830                13.2323                 4.9428

                     19                     20                     21
                      A                      A                      A
 Frequencies --   1002.6600              1005.6105              1041.4305
 Red. masses --      3.3350                 4.5412                 1.6838
 Frc consts  --      1.9754                 2.7057                 1.0760
 IR Inten    --     13.2655                81.7539                 7.4405

                     22                     23                     24
                      A                      A                      A
 Frequencies --   1059.7075              1074.8794              1103.9875
 Red. masses --      2.1575                 2.0587                 1.9315
 Frc consts  --      1.4275                 1.4014                 1.3870
 IR Inten    --      1.9296                 5.1930                12.1643

                     25                     26                     27
                      A                      A                      A
 Frequencies --   1108.5189              1133.5912              1207.2341
 Red. masses --      2.3729                 1.2860                 1.4642
 Frc consts  --      1.7179                 0.9736                 1.2573
 IR Inten    --     71.0722                22.1561                 3.2250

                     28                     29                     30
                      A                      A                      A
 Frequencies --   1212.7059              1227.4285              1233.0022
 Red. masses --      1.6386                 1.3258                 1.4888
 Frc consts  --      1.4198                 1.1768                 1.3336
 IR Inten    --      1.7944                 0.8424                26.9525

                     31                     32                     33
                      A                      A                      A
 Frequencies --   1259.5045              1279.4439              1300.0942
 Red. masses --      1.5392                 1.2822                 1.4870
 Frc consts  --      1.4386                 1.2366                 1.4808
 IR Inten    --      5.5496                 1.6775                 3.8226

                     34                     35                     36
                      A                      A                      A
 Frequencies --   1315.6913              1323.5562              1345.0297
 Red. masses --      1.6245                 1.6207                 1.5898
 Frc consts  --      1.6568                 1.6728                 1.6945
 IR Inten    --      1.5355                 5.4247                 9.0822

                     37                     38                     39
                      A                      A                      A
 Frequencies --   1357.7474              1368.3520              1440.9633
 Red. masses --      1.4844                 1.3979                 1.2661
 Frc consts  --      1.6123                 1.5421                 1.5489
 IR Inten    --      3.7570                 3.5577                51.4760

                     40                     41                     42
                      A                      A                      A
 Frequencies --   1478.9068              1496.1485              3041.3552
 Red. masses --      1.0778                 1.1033                 1.0619
 Frc consts  --      1.3888                 1.4551                 5.7871
 IR Inten    --      1.5565                 6.7730                13.0283

                     43                     44                     45
                      A                      A                      A
 Frequencies --   3054.6662              3071.4959              3078.0111
 Red. masses --      1.0617                 1.0858                 1.0918
 Frc consts  --      5.8369                 6.0351                 6.0944
 IR Inten    --     27.3752                35.1467                35.5750

                     46                     47                     48
                      A                      A                      A
 Frequencies --   3080.7422              3084.8689              3090.7919
 Red. masses --      1.0883                 1.0985                 1.0885
 Frc consts  --      6.0859                 6.1591                 6.1266
 IR Inten    --     32.8104                29.9666                59.7138

                     49                     50                     51
                      A                      A                      A
 Frequencies --   3103.7044              3107.7432              3803.8757
 Red. masses --      1.1041                 1.0923                 1.0658
 Frc consts  --      6.2665                 6.2159                 9.0865
 IR Inten    --     34.5756                32.5080                13.6674

 - Thermochemistry -
 -------------------
 Temperature   298.150 Kelvin.  Pressure   1.00000 Atm.
 Atom     1 has atomic number  8 and mass  15.99491

 Molecular mass:   126.06808 amu.
 Principal axes and moments of inertia in atomic units:
                           1         2         3
     Eigenvalues --   610.462331080.782861231.00033
           X            0.99824   0.05215  -0.02830
           Y           -0.05137   0.99829   0.02777
           Z            0.02970  -0.02627   0.99921
 This molecule is an asymmetric top.
 Rotational symmetry number  1.
 Warning -- assumption of classical behavior for rotation
           may cause significant error
 Rotational temperatures (Kelvin)      0.14188     0.08014     0.07036
 Rotational constants (GHZ):           2.95635     1.66985     1.46608
 Zero-point vibrational energy     425304.1 (Joules/Mol)
                                  101.65013 (Kcal/Mol)
 Warning -- explicit consideration of   8 degrees of freedom as
           vibrations may cause significant error
 Vibrational temperatures:    262.24   338.83   386.01   484.13   504.21
          (Kelvin)            579.76   678.94   810.16   960.41  1070.95
                             1145.37  1154.60  1199.88  1227.86  1278.01
                             1312.09  1348.10  1389.79  1442.60  1446.85
                             1498.38  1524.68  1546.51  1588.39  1594.91
                             1630.98  1736.94  1744.81  1765.99  1774.01
                             1812.14  1840.83  1870.54  1892.98  1904.30
                             1935.20  1953.49  1968.75  2073.22  2127.81
                             2152.62  4375.83  4394.98  4419.19  4428.57
                             4432.50  4438.43  4446.95  4465.53  4471.34
                             5472.92

 Zero-point correction=                           0.161990 (Hartree/Particle)
 Thermal correction to Energy=                    0.168955
 Thermal correction to Enthalpy=                  0.169899
 Thermal correction to Gibbs Free Energy=         0.131036
 Sum of electronic and zero-point Energies=           -422.993172
 Sum of electronic and thermal Energies=              -422.986207
 Sum of electronic and thermal Enthalpies=            -422.985263
 Sum of electronic and thermal Free Energies=         -423.024126

                     E (Thermal)             CV                S
                      KCal/Mol        Cal/Mol-Kelvin    Cal/Mol-Kelvin
 Total                  106.021             29.021             81.794
 Electronic               0.000              0.000              0.000
 Translational            0.889              2.981             40.409
 Rotational               0.889              2.981             28.187
 Vibrational            104.243             23.059             13.199
 Vibration     1          0.630              1.864              2.305
 Vibration     2          0.655              1.786              1.837
 Vibration     3          0.673              1.731              1.607
 Vibration     4          0.717              1.603              1.229
 Vibration     5          0.727              1.574              1.164
 Vibration     6          0.768              1.464              0.952
 Vibration     7          0.829              1.312              0.732
 Vibration     8          0.919              1.111              0.518

 Normal termination of Gaussian 09 at Tue Jan 28 00:54:18 2020.
