 Gaussian 09, Revision D.01,
 Gaussian 09:  ES64L-G09RevD.01 24-Apr-2013

 -----------------------------
 # b3lyp 6-31G(2df,p) opt Freq
 -----------------------------

 -----
 titel
 -----
 Symbolic Z-matrix:
 Charge =  0 Multiplicity = 1

 SCF Done:  E(RB3LYP) =  -423.117918620     A.U. after   14 cycles
 Optimization completed.
    -- Stationary point found.
 Normal termination of Gaussian 09 at Tue Jan 28 08:11:38 2020.

 ----------------------------------------------------------------------
 #N Geom=AllCheck Guess=TCheck SCRF=Check GenChk RB3LYP/6-31G(2df,p) Fr
 eq
 ----------------------------------------------------------------------

 Structure from the checkpoint file:  "/scratch/puck/g09_780d81d4-c514-437e-985f-071e6b28211c/Gau-102037.chk"
 -----
 titel
 -----
 Charge =  0 Multiplicity = 1

                         Standard orientation:
 ---------------------------------------------------------------------
 Center     Atomic      Atomic             Coordinates (Angstroms)
 Number     Number       Type             X           Y           Z
 ---------------------------------------------------------------------
      1          6           0        3.915476   -0.340506   -0.441785
      2          8           0        2.770200   -0.544971    0.364438
      3          6           0        1.599709   -0.107367   -0.239974
      4          6           0        1.210383    1.337769   -0.130507
      5          6           0        0.486546    0.275736    0.704806
      6          6           0       -0.869573   -0.080170    0.413195
      7          6           0       -2.007258   -0.385839    0.152814
      8          6           0       -3.404950   -0.707399   -0.125481
      9          8           0       -4.215058    0.433577   -0.382425
     10          1           0        3.846755   -0.894982   -1.389523
     11          1           0        4.064567    0.723877   -0.672563
     12          1           0        4.774097   -0.710038    0.123008
     13          1           0        1.320519   -0.642273   -1.148125
     14          1           0        1.880753    1.993518    0.413347
     15          1           0        0.661259    1.794818   -0.945028
     16          1           0        0.776170    0.247847    1.751174
     17          1           0       -3.479501   -1.330506   -1.023991
     18          1           0       -3.811003   -1.305395    0.706544
     19          1           0       -4.056743    1.060937    0.330647
 ---------------------------------------------------------------------

 SCF Done:  E(RB3LYP) =  -423.117918620     A.U. after    1 cycles

 The electronic state is 1-A.
 Alpha  occ. eigenvalues --  -19.15190 -19.13616 -10.24771 -10.24517 -10.22991
 Alpha  occ. eigenvalues --  -10.21429 -10.19575 -10.17851 -10.17122  -1.04787
 Alpha  occ. eigenvalues --   -1.01762  -0.86602  -0.76109  -0.70275  -0.68967
 Alpha  occ. eigenvalues --   -0.62525  -0.59386  -0.53872  -0.51754  -0.50379
 Alpha  occ. eigenvalues --   -0.46652  -0.45535  -0.44447  -0.43913  -0.42622
 Alpha  occ. eigenvalues --   -0.39446  -0.35823  -0.35300  -0.34178  -0.31266
 Alpha  occ. eigenvalues --   -0.28163  -0.26769  -0.24453  -0.24120
 Alpha virt. eigenvalues --    0.03051   0.04974   0.09240   0.10279   0.11448
 Alpha virt. eigenvalues --    0.12781   0.13306   0.14113   0.14712   0.15516
 Alpha virt. eigenvalues --    0.16921   0.18225   0.18624   0.19455   0.23492

 Mulliken charges:
               1
     1  C   -0.233773
     2  O   -0.239643
     3  C    0.134124
     4  C   -0.311521
     5  C   -0.239489
     6  C    0.037468
     7  C    0.082169
     8  C   -0.191970
     9  O   -0.403739
    10  H    0.110196
    11  H    0.110846
    12  H    0.130949
    13  H    0.100860
    14  H    0.123852
    15  H    0.127788
    16  H    0.122141
    17  H    0.137288
    18  H    0.116787
    19  H    0.285667
 Sum of Mulliken charges =   0.00000

 Dipole moment (field-independent basis, Debye):
    X=              1.7697    Y=              0.5819    Z=              0.0889  Tot=              1.8650
 Quadrupole moment (field-independent basis, Debye-Ang):
   XX=            -53.0571   YY=            -51.6344   ZZ=            -52.3979
   XY=              2.5629   XZ=             -6.8399   YZ=              2.5915

  Exact polarizability: 125.777   6.796  67.013   1.497   1.804  61.404
 Approx polarizability: 161.153  12.756  98.777   8.814   2.431  93.722

                      1                      2                      3
                      A                      A                      A
 Frequencies --     20.8216                62.6095                87.3099
 Red. masses --      3.4611                 3.6552                 3.0527
 Frc consts  --      0.0009                 0.0084                 0.0137
 IR Inten    --      2.1068                 0.6369                 3.3098

                      4                      5                      6
                      A                      A                      A
 Frequencies --    117.9303               162.6822               206.5478
 Red. masses --      3.1055                 3.0236                 1.2837
 Frc consts  --      0.0254                 0.0471                 0.0323
 IR Inten    --      1.0388                 1.7858                 0.8321

                      7                      8                      9
                      A                      A                      A
 Frequencies --    217.8429               289.6095               328.8645
 Red. masses --      2.5764                 1.8910                 1.8894
 Frc consts  --      0.0720                 0.0934                 0.1204
 IR Inten    --      5.8188                66.7594                65.1377

                     10                     11                     12
                      A                      A                      A
 Frequencies --    379.3172               429.5291               463.3419
 Red. masses --      3.7790                 3.9805                 4.3701
 Frc consts  --      0.3204                 0.4327                 0.5528
 IR Inten    --      6.3861                11.4115                 3.2862

                     13                     14                     15
                      A                      A                      A
 Frequencies --    518.2042               582.9238               737.4249
 Red. masses --      3.2879                 4.3596                 2.5278
 Frc consts  --      0.5202                 0.8728                 0.8099
 IR Inten    --      3.1840                 4.9631                 7.5713

                     16                     17                     18
                      A                      A                      A
 Frequencies --    813.3884               900.6342               925.1118
 Red. masses --      2.3832                 2.4833                 2.8378
 Frc consts  --      0.9290                 1.1868                 1.4309
 IR Inten    --     13.2294                15.7942                 8.7822

                     19                     20                     21
                      A                      A                      A
 Frequencies --    966.7798               987.1356              1033.5198
 Red. masses --      2.6699                 1.6369                 3.6018
 Frc consts  --      1.4703                 0.9398                 2.2668
 IR Inten    --     23.5172                41.1844                67.8785

                     22                     23                     24
                      A                      A                      A
 Frequencies --   1052.6405              1055.4864              1091.6282
 Red. masses --      1.4094                 3.0767                 1.1663
 Frc consts  --      0.9201                 2.0195                 0.8188
 IR Inten    --     15.0489                46.0857                 1.9022

                     25                     26                     27
                      A                      A                      A
 Frequencies --   1123.0839              1157.5859              1183.3401
 Red. masses --      1.6702                 2.2399                 1.3048
 Frc consts  --      1.2412                 1.7684                 1.0765
 IR Inten    --     24.5387                32.6220                 2.8090

                     28                     29                     30
                      A                      A                      A
 Frequencies --   1196.7985              1214.8539              1225.0625
 Red. masses --      2.1110                 1.1223                 1.6197
 Frc consts  --      1.7815                 0.9759                 1.4322
 IR Inten    --     32.7817                26.1282                16.5593

                     31                     32                     33
                      A                      A                      A
 Frequencies --   1244.3647              1334.6677              1354.1362
 Red. masses --      2.2449                 1.3743                 1.2125
 Frc consts  --      2.0481                 1.4424                 1.3099
 IR Inten    --     87.7122                21.5448                 4.3766

                     34                     35                     36
                      A                      A                      A
 Frequencies --   1411.9241              1420.9971              1466.4132
 Red. masses --      1.3826                 1.3473                 1.2335
 Frc consts  --      1.6239                 1.6029                 1.5628
 IR Inten    --     97.8734                46.7457                12.2946

                     37                     38                     39
                      A                      A                      A
 Frequencies --   1486.4827              1491.4359              1492.0567
 Red. masses --      1.0632                 1.0924                 1.3162
 Frc consts  --      1.3842                 1.4317                 1.7264
 IR Inten    --      4.0523                 2.9036                10.6197

                     40                     41                     42
                      A                      A                      A
 Frequencies --   1508.6891              2353.5645              2972.2433
 Red. masses --      1.0832                11.8498                 1.0716
 Frc consts  --      1.4527                38.6734                 5.5776
 IR Inten    --      3.9650                36.2841                55.5401

                     43                     44                     45
                      A                      A                      A
 Frequencies --   2986.6605              3038.6133              3057.8702
 Red. masses --      1.0360                 1.1032                 1.0879
 Frc consts  --      5.4446                 6.0012                 5.9935
 IR Inten    --     60.3738                48.5114                19.7224

                     46                     47                     48
                      A                      A                      A
 Frequencies --   3103.5141              3122.9575              3142.4920
 Red. masses --      1.0877                 1.0978                 1.0539
 Frc consts  --      6.1727                 6.3080                 6.1320
 IR Inten    --     19.7021                28.6316                 5.4140

                     49                     50                     51
                      A                      A                      A
 Frequencies --   3153.9063              3239.1773              3816.2183
 Red. masses --      1.0865                 1.1182                 1.0662
 Frc consts  --      6.3674                 6.9123                 9.1488
 IR Inten    --      5.8186                 4.5801                19.7322

 - Thermochemistry -
 -------------------
 Temperature   298.150 Kelvin.  Pressure   1.00000 Atm.
 Atom     1 has atomic number  6 and mass  12.00000

 Molecular mass:   126.06808 amu.
 Principal axes and moments of inertia in atomic units:
                           1         2         3
     Eigenvalues --   283.439373457.822213558.69544
           X            0.99994   0.00691  -0.00831
           Y           -0.00640   0.99820   0.05961
           Z            0.00871  -0.05956   0.99819
 This molecule is an asymmetric top.
 Rotational symmetry number  1.
 Rotational temperatures (Kelvin)      0.30558     0.02505     0.02434
 Rotational constants (GHZ):           6.36729     0.52193     0.50714
 Zero-point vibrational energy     411099.0 (Joules/Mol)
                                   98.25503 (Kcal/Mol)
 Warning -- explicit consideration of  14 degrees of freedom as
           vibrations may cause significant error
 Vibrational temperatures:     29.96    90.08   125.62   169.68   234.06
          (Kelvin)            297.18   313.43   416.68   473.16   545.75
                              618.00   666.64   745.58   838.70  1060.99
                             1170.28  1295.81  1331.03  1390.98  1420.27
                             1487.00  1514.51  1518.61  1570.61  1615.87
                             1665.51  1702.56  1721.92  1747.90  1762.59
                             1790.36  1920.29  1948.30  2031.44  2044.50
                             2109.84  2138.71  2145.84  2146.73  2170.66
                             3386.25  4276.39  4297.13  4371.88  4399.59
                             4465.26  4493.23  4521.34  4537.76  4660.45
                             5490.68

 Zero-point correction=                           0.156579 (Hartree/Particle)
 Thermal correction to Energy=                    0.167003
 Thermal correction to Enthalpy=                  0.167947
 Thermal correction to Gibbs Free Energy=         0.119217
 Sum of electronic and zero-point Energies=           -422.961339
 Sum of electronic and thermal Energies=              -422.950916
 Sum of electronic and thermal Enthalpies=            -422.949972
 Sum of electronic and thermal Free Energies=         -422.998702

                     E (Thermal)             CV                S
                      KCal/Mol        Cal/Mol-Kelvin    Cal/Mol-Kelvin
 Total                  104.796             35.948            102.561
 Electronic               0.000              0.000              0.000
 Translational            0.889              2.981             40.409
 Rotational               0.889              2.981             29.635
 Vibrational            103.018             29.986             32.518
 Vibration     1          0.593              1.986              6.554
 Vibration     2          0.597              1.972              4.373
 Vibration     3          0.601              1.958              3.719
 Vibration     4          0.608              1.934              3.134
 Vibration     5          0.623              1.888              2.518
 Vibration     6          0.641              1.831              2.074
 Vibration     7          0.646              1.814              1.977
 Vibration     8          0.686              1.693              1.476
 Vibration     9          0.712              1.618              1.266
 Vibration    10          0.749              1.514              1.042
 Vibration    11          0.791              1.406              0.860
 Vibration    12          0.821              1.331              0.756
 Vibration    13          0.873              1.210              0.614
 Vibration    14          0.940              1.068              0.480

 Optimization completed.
    -- Stationary point found.
 Normal termination of Gaussian 09 at Tue Jan 28 08:43:14 2020.
