 Gaussian 09, Revision D.01,
 Gaussian 09:  ES64L-G09RevD.01 24-Apr-2013

 -----------------------------
 # b3lyp 6-31G(2df,p) opt Freq
 -----------------------------

 -----
 titel
 -----
 Symbolic Z-matrix:
 Charge =  0 Multiplicity = 1

 SCF Done:  E(RB3LYP) =  -423.153099308     A.U. after   14 cycles
 Optimization completed.
    -- Stationary point found.
 Normal termination of Gaussian 09 at Tue Jan 28 14:03:04 2020.

 ----------------------------------------------------------------------
 #N Geom=AllCheck Guess=TCheck SCRF=Check GenChk RB3LYP/6-31G(2df,p) Fr
 eq
 ----------------------------------------------------------------------

 Structure from the checkpoint file:  "/scratch/puck/g09_4910d2cb-6d2d-4fbb-8f20-70a069ed93d5/Gau-10203.chk"
 -----
 titel
 -----
 Charge =  0 Multiplicity = 1

                         Standard orientation:
 ---------------------------------------------------------------------
 Center     Atomic      Atomic             Coordinates (Angstroms)
 Number     Number       Type             X           Y           Z
 ---------------------------------------------------------------------
      1          8           0        3.161195   -0.957081    0.184387
      2          6           0        2.558038    0.218710   -0.340066
      3          6           0        1.215399    0.395979    0.318218
      4          6           0        0.137393    1.087075   -0.473896
      5          6           0       -1.107497    1.300852    0.395909
      6          6           0       -1.178989   -0.233732    0.652334
      7          6           0       -2.389757   -0.921386    0.070305
      8          8           0       -3.287709   -0.378780   -0.521975
      9          6           0        0.077687   -0.420672   -0.230594
     10          1           0        4.056927   -1.013141   -0.161761
     11          1           0        3.183280    1.104529   -0.146275
     12          1           0        2.424972    0.146163   -1.432366
     13          1           0        1.267615    0.561627    1.393923
     14          1           0        0.357739    1.617300   -1.393056
     15          1           0       -0.979242    1.938765    1.275334
     16          1           0       -1.981641    1.627335   -0.169633
     17          1           0       -1.050904   -0.585543    1.684719
     18          1           0       -2.389062   -2.027235    0.210978
     19          1           0        0.248779   -1.243860   -0.914424
 ---------------------------------------------------------------------

 SCF Done:  E(RB3LYP) =  -423.153099308     A.U. after    1 cycles

 The electronic state is 1-A.
 Alpha  occ. eigenvalues --  -19.13995 -19.13649 -10.26946 -10.23464 -10.20154
 Alpha  occ. eigenvalues --  -10.20097 -10.19757 -10.19537 -10.18621  -1.04618
 Alpha  occ. eigenvalues --   -1.01768  -0.90449  -0.76625  -0.69536  -0.66954
 Alpha  occ. eigenvalues --   -0.58701  -0.57576  -0.53138  -0.50634  -0.50132
 Alpha  occ. eigenvalues --   -0.48261  -0.47487  -0.43148  -0.41943  -0.40627
 Alpha  occ. eigenvalues --   -0.39217  -0.37660  -0.34832  -0.33073  -0.32743
 Alpha  occ. eigenvalues --   -0.29358  -0.26972  -0.26739  -0.25009
 Alpha virt. eigenvalues --   -0.02110   0.07082   0.09651   0.10582   0.10785
 Alpha virt. eigenvalues --    0.12346   0.13175   0.15298   0.15639   0.16435
 Alpha virt. eigenvalues --    0.17124   0.18617   0.19454   0.20651   0.22163

 Mulliken charges:
               1
     1  O   -0.421099
     2  C   -0.119051
     3  C   -0.002454
     4  C   -0.057677
     5  C   -0.270064
     6  C   -0.108399
     7  C    0.134147
     8  O   -0.237015
     9  C   -0.044344
    10  H    0.286653
    11  H    0.091603
    12  H    0.083640
    13  H    0.083377
    14  H    0.087107
    15  H    0.097153
    16  H    0.134918
    17  H    0.087981
    18  H    0.078147
    19  H    0.095376
 Sum of Mulliken charges =   0.00000

 Dipole moment (field-independent basis, Debye):
    X=              2.9176    Y=              0.2700    Z=              0.1035  Tot=              2.9319
 Quadrupole moment (field-independent basis, Debye-Ang):
   XX=            -56.0981   YY=            -52.5397   ZZ=            -52.3260
   XY=              2.1490   XZ=             -7.0080   YZ=              0.4174

  Exact polarizability:  95.398   0.341  73.501   0.634  -1.458  63.163
 Approx polarizability: 123.093  -3.902 111.511   6.770  -5.299 100.322

                      1                      2                      3
                      A                      A                      A
 Frequencies --     66.7229                81.2591               150.6174
 Red. masses --      6.2390                 4.1149                 3.7311
 Frc consts  --      0.0164                 0.0160                 0.0499
 IR Inten    --      4.1056                 3.0050                 2.0702

                      4                      5                      6
                      A                      A                      A
 Frequencies --    174.5704               199.4531               266.4275
 Red. masses --      2.5899                 3.0090                 1.1747
 Frc consts  --      0.0465                 0.0705                 0.0491
 IR Inten    --      5.3751                 4.3834               100.0193

                      7                      8                      9
                      A                      A                      A
 Frequencies --    312.2891               346.3222               401.1229
 Red. masses --      2.0913                 3.2627                 3.7544
 Frc consts  --      0.1202                 0.2306                 0.3559
 IR Inten    --      5.5208                 2.9493                 6.1292

                     10                     11                     12
                      A                      A                      A
 Frequencies --    487.7750               683.2807               702.7932
 Red. masses --      2.8267                 2.7433                 4.1126
 Frc consts  --      0.3963                 0.7546                 1.1968
 IR Inten    --      8.9114                 5.2418                 8.7698

                     13                     14                     15
                      A                      A                      A
 Frequencies --    787.6228               850.2204               860.1773
 Red. masses --      2.1148                 2.8914                 1.4679
 Frc consts  --      0.7729                 1.2315                 0.6399
 IR Inten    --      0.4922                12.9038                 9.7813

                     16                     17                     18
                      A                      A                      A
 Frequencies --    893.7195               922.4118               981.7821
 Red. masses --      2.7111                 1.8207                 1.7435
 Frc consts  --      1.2759                 0.9127                 0.9902
 IR Inten    --     12.2437                 3.8420                 1.1882

                     19                     20                     21
                      A                      A                      A
 Frequencies --    994.3860              1023.4734              1042.1857
 Red. masses --      1.7047                 1.3860                 2.3824
 Frc consts  --      0.9931                 0.8554                 1.5246
 IR Inten    --      3.0541                12.7799                 6.2840

                     22                     23                     24
                      A                      A                      A
 Frequencies --   1047.1276              1071.2221              1071.4176
 Red. masses --      2.1744                 1.8836                 3.7338
 Frc consts  --      1.4047                 1.2735                 2.5253
 IR Inten    --     26.6237                 0.3075                60.1119

                     25                     26                     27
                      A                      A                      A
 Frequencies --   1107.2546              1122.7810              1167.0886
 Red. masses --      1.4938                 1.8848                 1.4080
 Frc consts  --      1.0790                 1.3999                 1.1299
 IR Inten    --      2.7690                35.1968                 4.7580

                     28                     29                     30
                      A                      A                      A
 Frequencies --   1198.5611              1210.3913              1240.5013
 Red. masses --      1.6149                 1.3926                 1.4280
 Frc consts  --      1.3669                 1.2021                 1.2947
 IR Inten    --      4.9723                 3.5973                 3.4984

                     31                     32                     33
                      A                      A                      A
 Frequencies --   1248.3614              1266.4988              1283.7009
 Red. masses --      1.2277                 1.3671                 1.5276
 Frc consts  --      1.1273                 1.2920                 1.4832
 IR Inten    --     29.0577                 1.3147                33.9760

                     34                     35                     36
                      A                      A                      A
 Frequencies --   1298.7350              1348.5293              1415.1900
 Red. masses --      1.2959                 1.7055                 1.6165
 Frc consts  --      1.2878                 1.8274                 1.9074
 IR Inten    --      7.6904                14.6468                 1.8001

                     37                     38                     39
                      A                      A                      A
 Frequencies --   1427.1031              1471.6364              1487.1694
 Red. masses --      1.4077                 1.6791                 1.1270
 Frc consts  --      1.6892                 2.1425                 1.4686
 IR Inten    --     10.5965                18.7898                 1.8107

                     40                     41                     42
                      A                      A                      A
 Frequencies --   1518.0624              1826.1933              2864.1826
 Red. masses --      1.0828                10.3388                 1.0823
 Frc consts  --      1.4702                20.3148                 5.2311
 IR Inten    --      3.5189               162.4956               126.1692

                     43                     44                     45
                      A                      A                      A
 Frequencies --   2960.7059              2991.6518              3020.4608
 Red. masses --      1.0574                 1.1032                 1.0832
 Frc consts  --      5.4609                 5.8172                 5.8226
 IR Inten    --     53.0683                58.5962                31.6907

                     46                     47                     48
                      A                      A                      A
 Frequencies --   3057.9279              3108.0168              3129.0478
 Red. masses --      1.0631                 1.0886                 1.1027
 Frc consts  --      5.8568                 6.1957                 6.3611
 IR Inten    --     41.7887                23.3093                 5.5821

                     49                     50                     51
                      A                      A                      A
 Frequencies --   3173.4269              3184.0134              3825.5209
 Red. masses --      1.0878                 1.0961                 1.0662
 Frc consts  --      6.4546                 6.5470                 9.1937
 IR Inten    --     14.8533                13.3155                18.4838

 - Thermochemistry -
 -------------------
 Temperature   298.150 Kelvin.  Pressure   1.00000 Atm.
 Atom     1 has atomic number  8 and mass  15.99491

 Molecular mass:   126.06808 amu.
 Principal axes and moments of inertia in atomic units:
                           1         2         3
     Eigenvalues --   406.421222159.275782356.81054
           X            0.99992   0.00239  -0.01219
           Y           -0.00234   0.99999   0.00420
           Z            0.01220  -0.00418   0.99992
 This molecule is an asymmetric top.
 Rotational symmetry number  1.
 Rotational temperatures (Kelvin)      0.21311     0.04011     0.03675
 Rotational constants (GHZ):           4.44057     0.83581     0.76576
 Zero-point vibrational energy     414931.3 (Joules/Mol)
                                   99.17095 (Kcal/Mol)
 Warning -- explicit consideration of  10 degrees of freedom as
           vibrations may cause significant error
 Vibrational temperatures:     96.00   116.91   216.70   251.17   286.97
          (Kelvin)            383.33   449.31   498.28   577.13   701.80
                              983.09  1011.16  1133.21  1223.28  1237.60
                             1285.86  1327.14  1412.56  1430.70  1472.55
                             1499.47  1506.58  1541.25  1541.53  1593.09
                             1615.43  1679.18  1724.46  1741.48  1784.80
                             1796.11  1822.21  1846.96  1868.59  1940.23
                             2036.14  2053.28  2117.35  2139.70  2184.15
                             2627.48  4120.91  4259.79  4304.31  4345.76
                             4399.67  4471.74  4502.00  4565.85  4581.08
                             5504.06

 Zero-point correction=                           0.158039 (Hartree/Particle)
 Thermal correction to Energy=                    0.167001
 Thermal correction to Enthalpy=                  0.167945
 Thermal correction to Gibbs Free Energy=         0.123688
 Sum of electronic and zero-point Energies=           -422.995060
 Sum of electronic and thermal Energies=              -422.986098
 Sum of electronic and thermal Enthalpies=            -422.985154
 Sum of electronic and thermal Free Energies=         -423.029411

                     E (Thermal)             CV                S
                      KCal/Mol        Cal/Mol-Kelvin    Cal/Mol-Kelvin
 Total                  104.795             32.663             93.148
 Electronic               0.000              0.000              0.000
 Translational            0.889              2.981             40.409
 Rotational               0.889              2.981             29.116
 Vibrational            103.017             26.701             23.623
 Vibration     1          0.598              1.970              4.248
 Vibration     2          0.600              1.962              3.860
 Vibration     3          0.618              1.902              2.664
 Vibration     4          0.627              1.874              2.386
 Vibration     5          0.638              1.841              2.138
 Vibration     6          0.672              1.735              1.619
 Vibration     7          0.701              1.650              1.350
 Vibration     8          0.724              1.583              1.183
 Vibration     9          0.767              1.468              0.959
 Vibration    10          0.844              1.277              0.689

 Normal termination of Gaussian 09 at Tue Jan 28 14:47:44 2020.
