 Gaussian 09, Revision D.01,
 Gaussian 09:  ES64L-G09RevD.01 24-Apr-2013

 -----------------------------
 # b3lyp 6-31G(2df,p) opt Freq
 -----------------------------

 -----
 titel
 -----
 Symbolic Z-matrix:
 Charge =  0 Multiplicity = 1

 SCF Done:  E(RB3LYP) =  -423.183271036     A.U. after   14 cycles
 Optimization completed.
    -- Stationary point found.
 Normal termination of Gaussian 09 at Tue Jan 28 02:38:10 2020.

 ----------------------------------------------------------------------
 #N Geom=AllCheck Guess=TCheck SCRF=Check GenChk RB3LYP/6-31G(2df,p) Fr
 eq
 ----------------------------------------------------------------------

 Structure from the checkpoint file:  "/scratch/puck/g09_7cb9cd5f-4043-4598-8905-9d2c349125cb/Gau-172335.chk"
 -----
 titel
 -----
 Charge =  0 Multiplicity = 1

                         Standard orientation:
 ---------------------------------------------------------------------
 Center     Atomic      Atomic             Coordinates (Angstroms)
 Number     Number       Type             X           Y           Z
 ---------------------------------------------------------------------
      1          6           0       -3.156066    0.517577   -0.008988
      2          6           0       -1.987760   -0.445357    0.015260
      3          6           0       -0.926227   -0.289988    1.126471
      4          6           0        0.063737   -0.096949   -0.038548
      5          6           0        1.034959    1.113338   -0.105182
      6          6           0        2.200382    0.115650   -0.025064
      7          8           0        3.370669    0.220037    0.200173
      8          6           0        1.257069   -1.076737   -0.244441
      9          8           0       -0.996796   -0.141879   -1.003432
     10          1           0       -3.684990    0.452912   -0.964982
     11          1           0       -3.865264    0.277391    0.790809
     12          1           0       -2.813209    1.548283    0.125134
     13          1           0       -2.343427   -1.477839   -0.102545
     14          1           0       -1.063749    0.595369    1.751753
     15          1           0       -0.756321   -1.159737    1.763164
     16          1           0        0.986438    1.600697   -1.085584
     17          1           0        0.974920    1.876171    0.675660
     18          1           0        1.294731   -1.436653   -1.278715
     19          1           0        1.363331   -1.927079    0.434333
 ---------------------------------------------------------------------

 SCF Done:  E(RB3LYP) =  -423.183271036     A.U. after    1 cycles

 The electronic state is 1-A.
 Alpha  occ. eigenvalues --  -19.13797 -19.13649 -10.27179 -10.25196 -10.24238
 Alpha  occ. eigenvalues --  -10.19509 -10.19090 -10.19053 -10.18323  -1.04811
 Alpha  occ. eigenvalues --   -1.04359  -0.84180  -0.76788  -0.71870  -0.68745
 Alpha  occ. eigenvalues --   -0.61436  -0.53797  -0.53096  -0.49974  -0.48958
 Alpha  occ. eigenvalues --   -0.47750  -0.44688  -0.43061  -0.42234  -0.41185
 Alpha  occ. eigenvalues --   -0.39581  -0.38392  -0.37192  -0.35774  -0.35457
 Alpha  occ. eigenvalues --   -0.31439  -0.30953  -0.25998  -0.23542
 Alpha virt. eigenvalues --   -0.02220   0.07858   0.09362   0.09804   0.10951
 Alpha virt. eigenvalues --    0.12424   0.14602   0.14900   0.15313   0.15818
 Alpha virt. eigenvalues --    0.16927   0.17764   0.18158   0.18629   0.23438

 Mulliken charges:
               1
     1  C   -0.398832
     2  C    0.159771
     3  C   -0.374689
     4  C    0.443337
     5  C   -0.412318
     6  C    0.403935
     7  O   -0.291695
     8  C   -0.411894
     9  O   -0.329286
    10  H    0.130038
    11  H    0.118372
    12  H    0.119440
    13  H    0.078429
    14  H    0.111452
    15  H    0.112925
    16  H    0.144675
    17  H    0.126383
    18  H    0.143971
    19  H    0.125985
 Sum of Mulliken charges =   0.00000

 Dipole moment (field-independent basis, Debye):
    X=             -2.9944    Y=             -0.3761    Z=              0.9824  Tot=              3.1738
 Quadrupole moment (field-independent basis, Debye-Ang):
   XX=            -63.9388   YY=            -50.6408   ZZ=            -53.1683
   XY=             -0.7335   XZ=             -3.3384   YZ=             -0.3214

  Exact polarizability:  94.693   0.019  71.437   0.331   0.139  62.836
 Approx polarizability: 122.656   1.975 104.837   3.329   0.369  98.076

                      1                      2                      3
                      A                      A                      A
 Frequencies --     49.2765                52.5680               226.7334
 Red. masses --      3.6412                 4.2764                 1.0947
 Frc consts  --      0.0052                 0.0070                 0.0332
 IR Inten    --      0.4889                 3.8270                 0.8371

                      4                      5                      6
                      A                      A                      A
 Frequencies --    234.1660               313.1390               318.0973
 Red. masses --      2.2136                 2.3329                 4.1768
 Frc consts  --      0.0715                 0.1348                 0.2490
 IR Inten    --      1.2093                 3.4012                 2.0403

                      7                      8                      9
                      A                      A                      A
 Frequencies --    384.4967               394.7143               421.8023
 Red. masses --      3.0251                 2.6247                 1.9449
 Frc consts  --      0.2635                 0.2409                 0.2039
 IR Inten    --      1.6938                 3.7607                 1.1490

                     10                     11                     12
                      A                      A                      A
 Frequencies --    492.4168               518.6902               651.5947
 Red. masses --      3.4097                 2.5929                 1.5049
 Frc consts  --      0.4871                 0.4110                 0.3765
 IR Inten    --      2.5025                 0.3771                 0.2598

                     13                     14                     15
                      A                      A                      A
 Frequencies --    711.0074               771.4449               836.2437
 Red. masses --      3.2956                 2.5626                 2.4027
 Frc consts  --      0.9816                 0.8986                 0.9900
 IR Inten    --      1.3811                 2.6361                 3.6041

                     16                     17                     18
                      A                      A                      A
 Frequencies --    858.8586               907.9564               912.9757
 Red. masses --      1.9716                 2.6673                 3.8007
 Frc consts  --      0.8569                 1.2955                 1.8665
 IR Inten    --      0.7581                 4.3434                17.0799

                     19                     20                     21
                      A                      A                      A
 Frequencies --    938.3109               942.9706               985.3037
 Red. masses --      1.7007                 2.3797                 1.1602
 Frc consts  --      0.8822                 1.2467                 0.6636
 IR Inten    --     13.4992                18.3938                 2.3914

                     22                     23                     24
                      A                      A                      A
 Frequencies --   1061.7112              1074.1425              1104.7535
 Red. masses --      2.7697                 3.0068                 1.9695
 Frc consts  --      1.8395                 2.0440                 1.4162
 IR Inten    --     73.2777               115.5302                 1.6668

                     25                     26                     27
                      A                      A                      A
 Frequencies --   1114.1045              1151.8665              1169.1567
 Red. masses --      2.0532                 2.0780                 1.8037
 Frc consts  --      1.5015                 1.6245                 1.4527
 IR Inten    --     12.6762                 8.2848                14.9436

                     28                     29                     30
                      A                      A                      A
 Frequencies --   1190.0602              1219.5806              1227.0571
 Red. masses --      1.9613                 1.8957                 1.6333
 Frc consts  --      1.6366                 1.6612                 1.4489
 IR Inten    --     14.4540                21.7944                26.0443

                     31                     32                     33
                      A                      A                      A
 Frequencies --   1250.4795              1298.4229              1324.2429
 Red. masses --      1.4682                 2.3879                 1.6059
 Frc consts  --      1.3526                 2.3719                 1.6592
 IR Inten    --      1.1699                50.8600                 6.3440

                     34                     35                     36
                      A                      A                      A
 Frequencies --   1389.4743              1409.8131              1413.0472
 Red. masses --      1.3015                 1.3967                 1.1023
 Frc consts  --      1.4804                 1.6356                 1.2967
 IR Inten    --      4.4084                12.1038                25.9548

                     37                     38                     39
                      A                      A                      A
 Frequencies --   1433.7244              1482.2343              1490.5860
 Red. masses --      1.1336                 1.0517                 1.1042
 Frc consts  --      1.3729                 1.3613                 1.4455
 IR Inten    --      1.2639                 3.8482                 4.0445

                     40                     41                     42
                      A                      A                      A
 Frequencies --   1496.1290              1897.1090              3009.3582
 Red. masses --      1.0745                12.6637                 1.0851
 Frc consts  --      1.4171                26.8532                 5.7899
 IR Inten    --      1.6904               282.9430                48.9651

                     43                     44                     45
                      A                      A                      A
 Frequencies --   3033.3739              3048.7428              3054.6696
 Red. masses --      1.0350                 1.0584                 1.0604
 Frc consts  --      5.6109                 5.7959                 5.8299
 IR Inten    --     15.0255                 4.0741                 2.4719

                     46                     47                     48
                      A                      A                      A
 Frequencies --   3069.3271              3106.3081              3112.4213
 Red. masses --      1.0599                 1.1008                 1.1049
 Frc consts  --      5.8831                 6.2581                 6.3060
 IR Inten    --     18.8685                20.1301                 5.6946

                     49                     50                     51
                      A                      A                      A
 Frequencies --   3113.0275              3113.3990              3127.2786
 Red. masses --      1.1031                 1.1040                 1.1079
 Frc consts  --      6.2984                 6.3050                 6.3837
 IR Inten    --     21.3196                 6.6216                22.3956

 - Thermochemistry -
 -------------------
 Temperature   298.150 Kelvin.  Pressure   1.00000 Atm.
 Atom     1 has atomic number  6 and mass  12.00000

 Molecular mass:   126.06808 amu.
 Principal axes and moments of inertia in atomic units:
                           1         2         3
     Eigenvalues --   354.839551991.537442031.58751
           X            0.99991  -0.00997  -0.00913
           Y            0.00973   0.99961  -0.02613
           Z            0.00939   0.02604   0.99962
 This molecule is an asymmetric top.
 Rotational symmetry number  1.
 Rotational temperatures (Kelvin)      0.24409     0.04349     0.04263
 Rotational constants (GHZ):           5.08608     0.90621     0.88834
 Zero-point vibrational energy     412163.6 (Joules/Mol)
                                   98.50946 (Kcal/Mol)
 Warning -- explicit consideration of  11 degrees of freedom as
           vibrations may cause significant error
 Vibrational temperatures:     70.90    75.63   326.22   336.91   450.54
          (Kelvin)            457.67   553.20   567.91   606.88   708.48
                              746.28   937.50  1022.98  1109.94  1203.17
                             1235.70  1306.35  1313.57  1350.02  1356.72
                             1417.63  1527.56  1545.45  1589.49  1602.95
                             1657.28  1682.15  1712.23  1754.70  1765.46
                             1799.16  1868.14  1905.29  1999.14  2028.40
                             2033.06  2062.81  2132.60  2144.62  2152.59
                             2729.51  4329.79  4364.34  4386.46  4394.98
                             4416.07  4469.28  4478.07  4478.95  4479.48
                             4499.45

 Zero-point correction=                           0.156985 (Hartree/Particle)
 Thermal correction to Energy=                    0.165651
 Thermal correction to Enthalpy=                  0.166595
 Thermal correction to Gibbs Free Energy=         0.122960
 Sum of electronic and zero-point Energies=           -423.026286
 Sum of electronic and thermal Energies=              -423.017621
 Sum of electronic and thermal Enthalpies=            -423.016676
 Sum of electronic and thermal Free Energies=         -423.060311

                     E (Thermal)             CV                S
                      KCal/Mol        Cal/Mol-Kelvin    Cal/Mol-Kelvin
 Total                  103.947             32.855             91.837
 Electronic               0.000              0.000              0.000
 Translational            0.889              2.981             40.409
 Rotational               0.889              2.981             28.753
 Vibrational            102.170             26.893             22.676
 Vibration     1          0.595              1.978              4.846
 Vibration     2          0.596              1.977              4.718
 Vibration     3          0.650              1.800              1.905
 Vibration     4          0.654              1.789              1.847
 Vibration     5          0.701              1.649              1.346
 Vibration     6          0.704              1.639              1.320
 Vibration     7          0.753              1.503              1.021
 Vibration     8          0.762              1.481              0.982
 Vibration     9          0.784              1.423              0.886
 Vibration    10          0.848              1.267              0.677
 Vibration    11          0.874              1.209              0.613

 Optimization completed.
    -- Stationary point found.
 Normal termination of Gaussian 09 at Tue Jan 28 03:11:10 2020.
