 Gaussian 09, Revision D.01,
 Gaussian 09:  ES64L-G09RevD.01 24-Apr-2013

 ----------------------------------------------------
 # b3lyp 6-31G(2df,p) opt(MaxCycles=100,CalcAll) Freq
 ----------------------------------------------------

 -----
 titel
 -----
 Symbolic Z-matrix:
 Charge =  0 Multiplicity = 1

 SCF Done:  E(RB3LYP) =  -423.120706250     A.U. after   14 cycles
 SCF Done:  E(RB3LYP) =  -423.120706302     A.U. after    6 cycles
 Optimization completed.
    -- Stationary point found.
 Normal termination of Gaussian 09 at Fri Jan 31 18:01:08 2020.

 ----------------------------------------------------------------------
 #N Geom=AllCheck Guess=TCheck SCRF=Check GenChk RB3LYP/6-31G(2df,p) Fr
 eq
 ----------------------------------------------------------------------

 Structure from the checkpoint file:  "/scratch/puck/g09_eabc8d19-7cd3-4844-9928-55a144bd3734/Gau-177147.chk"
 -----
 titel
 -----
 Charge =  0 Multiplicity = 1

                         Standard orientation:
 ---------------------------------------------------------------------
 Center     Atomic      Atomic             Coordinates (Angstroms)
 Number     Number       Type             X           Y           Z
 ---------------------------------------------------------------------
      1          8           0       -2.895851   -0.776819    0.168173
      2          6           0       -2.036934    0.152190   -0.481775
      3          6           0       -0.573080   -0.259543   -0.379243
      4          6           0        0.113833    0.067960    0.972515
      5          8           0        0.179773    1.471537    0.528175
      6          6           0        0.441935    0.840448   -0.781587
      7          6           0        1.841991    0.237236   -0.551477
      8          6           0        2.000028   -1.246485   -0.333326
      9          6           0        1.585263   -0.369095    0.821000
     10          1           0       -2.777117   -0.671902    1.117072
     11          1           0       -2.341289    0.144405   -1.534524
     12          1           0       -2.171532    1.170620   -0.098846
     13          1           0       -0.462383   -1.263377   -0.790591
     14          1           0       -0.364927   -0.061877    1.944489
     15          1           0        0.293510    1.512053   -1.627567
     16          1           0        2.707985    0.853631   -0.758925
     17          1           0        1.322618   -1.964725   -0.777925
     18          1           0        3.026841   -1.599369   -0.296974
     19          1           0        2.256706   -0.213472    1.656372
 ---------------------------------------------------------------------

 SCF Done:  E(RB3LYP) =  -423.120706302     A.U. after    1 cycles

 The electronic state is 1-A.
 Alpha  occ. eigenvalues --  -19.13321 -19.12992 -10.24384 -10.24332 -10.22352
 Alpha  occ. eigenvalues --  -10.19707 -10.19510 -10.19485 -10.19188  -1.04553
 Alpha  occ. eigenvalues --   -1.01250  -0.86645  -0.76014  -0.70047  -0.67098
 Alpha  occ. eigenvalues --   -0.61915  -0.55658  -0.54049  -0.52893  -0.51235
 Alpha  occ. eigenvalues --   -0.47397  -0.46187  -0.43812  -0.40804  -0.40172
 Alpha  occ. eigenvalues --   -0.38426  -0.36208  -0.33449  -0.33274  -0.32234
 Alpha  occ. eigenvalues --   -0.29695  -0.27503  -0.26481  -0.24524
 Alpha virt. eigenvalues --    0.06896   0.08562   0.09528   0.10133   0.11849
 Alpha virt. eigenvalues --    0.12619   0.13944   0.14315   0.15897   0.16607
 Alpha virt. eigenvalues --    0.18020   0.19038   0.19472   0.21505   0.23471

 Mulliken charges:
               1
     1  O   -0.422811
     2  C   -0.109651
     3  C   -0.004252
     4  C    0.045219
     5  O   -0.305853
     6  C    0.037087
     7  C   -0.041804
     8  C   -0.309766
     9  C   -0.042947
    10  H    0.282896
    11  H    0.105977
    12  H    0.110165
    13  H    0.075103
    14  H    0.067728
    15  H    0.078256
    16  H    0.099173
    17  H    0.122895
    18  H    0.114095
    19  H    0.098489
 Sum of Mulliken charges =   0.00000

 Dipole moment (field-independent basis, Debye):
    X=              1.4412    Y=             -0.6019    Z=              0.1300  Tot=              1.5673
 Quadrupole moment (field-independent basis, Debye-Ang):
   XX=            -55.5187   YY=            -57.0315   ZZ=            -49.0823
   XY=             -2.8958   XZ=             -2.3610   YZ=             -2.6744

  Exact polarizability:  83.553  -2.984  67.520  -0.702  -1.989  69.597
 Approx polarizability: 107.031  -1.648 108.660  -2.802  -1.852 111.811

                      1                      2                      3
                      A                      A                      A
 Frequencies --     92.2455               154.6045               242.7332
 Red. masses --      3.0920                 3.8800                 1.7040
 Frc consts  --      0.0155                 0.0546                 0.0592
 IR Inten    --      3.9906                 0.7738                48.2564

                      4                      5                      6
                      A                      A                      A
 Frequencies --    285.5532               334.3309               372.9953
 Red. masses --      1.4502                 2.8708                 4.4077
 Frc consts  --      0.0697                 0.1891                 0.3613
 IR Inten    --     71.0408                 0.1481                 0.2914

                      7                      8                      9
                      A                      A                      A
 Frequencies --    460.3907               563.2730               608.9292
 Red. masses --      3.2587                 3.0799                 6.0176
 Frc consts  --      0.4070                 0.5757                 1.3146
 IR Inten    --      6.9630                 9.3283                 5.9873

                     10                     11                     12
                      A                      A                      A
 Frequencies --    667.3115               768.9950               805.8573
 Red. masses --      4.0441                 2.5773                 1.6510
 Frc consts  --      1.0610                 0.8980                 0.6317
 IR Inten    --      0.5213                19.2023                 8.1433

                     13                     14                     15
                      A                      A                      A
 Frequencies --    810.2240               844.1801               858.0611
 Red. masses --      2.1011                 3.9843                 2.1765
 Frc consts  --      0.8126                 1.6729                 0.9441
 IR Inten    --      6.8021                19.9049                22.8456

                     16                     17                     18
                      A                      A                      A
 Frequencies --    886.0241               917.2831               924.8696
 Red. masses --      3.1193                 2.4370                 2.4344
 Frc consts  --      1.4428                 1.2081                 1.2269
 IR Inten    --     22.4583                 2.9948                10.6305

                     19                     20                     21
                      A                      A                      A
 Frequencies --    991.1910              1010.2390              1041.1837
 Red. masses --      2.6018                 2.0978                 1.3317
 Frc consts  --      1.5060                 1.2614                 0.8506
 IR Inten    --      5.1099                24.6279                 4.8329

                     22                     23                     24
                      A                      A                      A
 Frequencies --   1043.6581              1060.2240              1082.1505
 Red. masses --      1.3728                 4.9234                 2.9333
 Frc consts  --      0.8810                 3.2607                 2.0239
 IR Inten    --      9.8562                76.7498                 9.7984

                     25                     26                     27
                      A                      A                      A
 Frequencies --   1087.0116              1100.6176              1123.0478
 Red. masses --      1.3421                 1.3105                 2.2397
 Frc consts  --      0.9344                 0.9353                 1.6643
 IR Inten    --      0.7251                 3.9379                22.3544

                     28                     29                     30
                      A                      A                      A
 Frequencies --   1171.9239              1189.2054              1195.7097
 Red. masses --      1.3823                 1.4279                 1.6836
 Frc consts  --      1.1186                 1.1898                 1.4182
 IR Inten    --     11.4235                 3.2705                 4.7251

                     31                     32                     33
                      A                      A                      A
 Frequencies --   1219.7487              1253.0425              1278.2094
 Red. masses --      1.3382                 1.5088                 1.6590
 Frc consts  --      1.1730                 1.3957                 1.5970
 IR Inten    --      0.7242                 0.1894                 3.9706

                     34                     35                     36
                      A                      A                      A
 Frequencies --   1284.5482              1311.3512              1352.1413
 Red. masses --      1.3919                 1.4842                 1.6764
 Frc consts  --      1.3532                 1.5038                 1.8058
 IR Inten    --      7.0408                 3.7391                 0.4334

                     37                     38                     39
                      A                      A                      A
 Frequencies --   1382.0266              1410.6034              1416.9638
 Red. masses --      1.4462                 1.2790                 1.4724
 Frc consts  --      1.6275                 1.4995                 1.7418
 IR Inten    --      4.9873                21.1511                38.5471

                     40                     41                     42
                      A                      A                      A
 Frequencies --   1499.2603              1509.7454              3030.6220
 Red. masses --      1.1818                 1.0910                 1.0569
 Frc consts  --      1.5651                 1.4651                 5.7196
 IR Inten    --      3.7707                 2.2360                33.8945

                     43                     44                     45
                      A                      A                      A
 Frequencies --   3073.8472              3101.5572              3105.7845
 Red. masses --      1.1041                 1.0862                 1.0897
 Frc consts  --      6.1464                 6.1563                 6.1930
 IR Inten    --     12.6629                43.7109                37.9400

                     46                     47                     48
                      A                      A                      A
 Frequencies --   3120.6004              3133.1545              3184.0758
 Red. masses --      1.0909                 1.0577                 1.0892
 Frc consts  --      6.2592                 6.1174                 6.5064
 IR Inten    --     31.1778                24.8302                15.2385

                     49                     50                     51
                      A                      A                      A
 Frequencies --   3191.5049              3214.3032              3822.8691
 Red. masses --      1.0964                 1.1104                 1.0663
 Frc consts  --      6.5799                 6.7592                 9.1810
 IR Inten    --      7.5524                16.6674                13.5545

 - Thermochemistry -
 -------------------
 Temperature   298.150 Kelvin.  Pressure   1.00000 Atm.
 Atom     1 has atomic number  8 and mass  15.99491

 Molecular mass:   126.06808 amu.
 Principal axes and moments of inertia in atomic units:
                           1         2         3
     Eigenvalues --   513.138851456.051371570.10189
           X            0.99978  -0.02104  -0.00031
           Y            0.02099   0.99848  -0.05096
           Z            0.00138   0.05094   0.99870
 This molecule is an asymmetric top.
 Rotational symmetry number  1.
 Warning -- assumption of classical behavior for rotation
           may cause significant error
 Rotational temperatures (Kelvin)      0.16879     0.05949     0.05516
 Rotational constants (GHZ):           3.51706     1.23948     1.14944
 Zero-point vibrational energy     422221.9 (Joules/Mol)
                                  100.91345 (Kcal/Mol)
 Warning -- explicit consideration of   9 degrees of freedom as
           vibrations may cause significant error
 Vibrational temperatures:    132.72   222.44   349.24   410.85   481.03
          (Kelvin)            536.66   662.40   810.42   876.11   960.11
                             1106.41  1159.45  1165.73  1214.59  1234.56
                             1274.79  1319.76  1330.68  1426.10  1453.51
                             1498.03  1501.59  1525.42  1556.97  1563.97
                             1583.54  1615.81  1686.14  1711.00  1720.36
                             1754.94  1802.85  1839.06  1848.18  1886.74
                             1945.43  1988.43  2029.54  2038.69  2157.10
                             2172.18  4360.38  4422.57  4462.44  4468.53
                             4489.84  4507.90  4581.17  4591.86  4624.66
                             5500.25

 Zero-point correction=                           0.160816 (Hartree/Particle)
 Thermal correction to Energy=                    0.168352
 Thermal correction to Enthalpy=                  0.169297
 Thermal correction to Gibbs Free Energy=         0.128779
 Sum of electronic and zero-point Energies=           -422.959890
 Sum of electronic and thermal Energies=              -422.952354
 Sum of electronic and thermal Enthalpies=            -422.951410
 Sum of electronic and thermal Free Energies=         -422.991927

                     E (Thermal)             CV                S
                      KCal/Mol        Cal/Mol-Kelvin    Cal/Mol-Kelvin
 Total                  105.643             30.276             85.276
 Electronic               0.000              0.000              0.000
 Translational            0.889              2.981             40.409
 Rotational               0.889              2.981             28.552
 Vibrational            103.865             24.314             16.315
 Vibration     1          0.602              1.955              3.612
 Vibration     2          0.620              1.898              2.615
 Vibration     3          0.659              1.775              1.783
 Vibration     4          0.683              1.701              1.500
 Vibration     5          0.716              1.607              1.239
 Vibration     6          0.744              1.528              1.067
 Vibration     7          0.818              1.338              0.765
 Vibration     8          0.919              1.111              0.517
 Vibration     9          0.968              1.013              0.435

 Optimization completed.
    -- Stationary point found.
 Normal termination of Gaussian 09 at Fri Jan 31 18:37:58 2020.
