 Gaussian 09, Revision D.01,
 Gaussian 09:  ES64L-G09RevD.01 24-Apr-2013

 -----------------------------
 # b3lyp 6-31G(2df,p) opt Freq
 -----------------------------

 -----
 titel
 -----
 Symbolic Z-matrix:
 Charge =  0 Multiplicity = 1

 SCF Done:  E(RB3LYP) =  -423.168316129     A.U. after   14 cycles
 Optimization completed.
    -- Stationary point found.
 Normal termination of Gaussian 09 at Mon Jan 27 17:58:01 2020.

 ----------------------------------------------------------------------
 #N Geom=AllCheck Guess=TCheck SCRF=Check GenChk RB3LYP/6-31G(2df,p) Fr
 eq
 ----------------------------------------------------------------------

 Structure from the checkpoint file:  "/scratch/puck/g09_f0fc6bf6-86c5-4862-9027-c122c5d1b995/Gau-51881.chk"
 -----
 titel
 -----
 Charge =  0 Multiplicity = 1

                         Standard orientation:
 ---------------------------------------------------------------------
 Center     Atomic      Atomic             Coordinates (Angstroms)
 Number     Number       Type             X           Y           Z
 ---------------------------------------------------------------------
      1          6           0       -0.251078    2.155781   -0.330730
      2          6           0        0.259575    0.789198    0.022959
      3          8           0        1.295900    0.703257    1.022602
      4          6           0        1.590471    0.251516   -0.308624
      5          6           0        1.534027   -1.256475   -0.456737
      6          6           0        0.196262   -1.645451    0.223518
      7          6           0       -0.674555   -0.395717    0.121459
      8          6           0       -2.064206   -0.320334    0.575537
      9          8           0       -1.758034   -0.402641   -0.822173
     10          1           0       -0.862125    2.564334    0.481615
     11          1           0        0.580265    2.843099   -0.502910
     12          1           0       -0.870605    2.104862   -1.229754
     13          1           0        2.331782    0.839571   -0.844824
     14          1           0        1.528060   -1.510417   -1.523032
     15          1           0        2.395917   -1.753899   -0.002432
     16          1           0       -0.295414   -2.496990   -0.251017
     17          1           0        0.364952   -1.888712    1.275376
     18          1           0       -2.534227   -1.205877    1.002084
     19          1           0       -2.484500    0.627982    0.907169
 ---------------------------------------------------------------------

 SCF Done:  E(RB3LYP) =  -423.168316129     A.U. after    1 cycles

 The electronic state is 1-A.
 Alpha  occ. eigenvalues --  -19.15118 -19.14743 -10.24210 -10.23951 -10.23367
 Alpha  occ. eigenvalues --  -10.23353 -10.19001 -10.18727 -10.18267  -1.07645
 Alpha  occ. eigenvalues --   -1.06303  -0.80177  -0.75088  -0.69779  -0.65708
 Alpha  occ. eigenvalues --   -0.64802  -0.58294  -0.54458  -0.50555  -0.48934
 Alpha  occ. eigenvalues --   -0.46647  -0.44937  -0.42960  -0.41023  -0.40820
 Alpha  occ. eigenvalues --   -0.39297  -0.36993  -0.36005  -0.35446  -0.34958
 Alpha  occ. eigenvalues --   -0.31675  -0.28120  -0.27620  -0.25182
 Alpha virt. eigenvalues --    0.07976   0.09437   0.10520   0.10709   0.11456
 Alpha virt. eigenvalues --    0.12951   0.13745   0.14778   0.16294   0.16840
 Alpha virt. eigenvalues --    0.17410   0.17642   0.20032   0.21066   0.21599

 Mulliken charges:
               1
     1  C   -0.506194
     2  C    0.349333
     3  O   -0.309561
     4  C   -0.012854
     5  C   -0.251810
     6  C   -0.307608
     7  C    0.391482
     8  C   -0.256554
     9  O   -0.279528
    10  H    0.126712
    11  H    0.128495
    12  H    0.143414
    13  H    0.092725
    14  H    0.112434
    15  H    0.111372
    16  H    0.115599
    17  H    0.123116
    18  H    0.115317
    19  H    0.114111
 Sum of Mulliken charges =   0.00000

 Dipole moment (field-independent basis, Debye):
    X=              0.1437    Y=             -0.2910    Z=             -0.1375  Tot=              0.3524
 Quadrupole moment (field-independent basis, Debye-Ang):
   XX=            -52.7276   YY=            -50.2457   ZZ=            -55.5043
   XY=             -1.6842   XZ=             -6.4638   YZ=             -2.1832

  Exact polarizability:  84.675  -3.330  77.232  -5.961  -0.591  61.188
 Approx polarizability: 119.186  -3.674 101.459  -2.717   2.308 104.239

                      1                      2                      3
                      A                      A                      A
 Frequencies --    100.8557               170.8238               223.2860
 Red. masses --      2.9160                 1.1068                 2.3409
 Frc consts  --      0.0175                 0.0190                 0.0688
 IR Inten    --      2.8082                 0.3465                 3.3808

                      4                      5                      6
                      A                      A                      A
 Frequencies --    248.6210               259.9354               351.2343
 Red. masses --      2.8052                 2.6274                 2.4446
 Frc consts  --      0.1022                 0.1046                 0.1777
 IR Inten    --      5.3062                 3.8606                 3.0511

                      7                      8                      9
                      A                      A                      A
 Frequencies --    388.7651               447.6073               456.8777
 Red. masses --      2.7970                 3.7082                 6.0953
 Frc consts  --      0.2491                 0.4377                 0.7496
 IR Inten    --      0.5486                10.0163                 2.4094

                     10                     11                     12
                      A                      A                      A
 Frequencies --    570.7417               620.8211               688.0965
 Red. masses --      3.7239                 3.8850                 2.8308
 Frc consts  --      0.7147                 0.8822                 0.7897
 IR Inten    --      0.4420                 0.1471                 1.9606

                     13                     14                     15
                      A                      A                      A
 Frequencies --    770.0362               817.4710               842.6944
 Red. masses --      2.8732                 3.3036                 2.5172
 Frc consts  --      1.0038                 1.3007                 1.0532
 IR Inten    --     15.5195                 4.9969                 7.5374

                     16                     17                     18
                      A                      A                      A
 Frequencies --    867.7697               907.8192               924.5278
 Red. masses --      2.4152                 2.0363                 2.0022
 Frc consts  --      1.0716                 0.9887                 1.0083
 IR Inten    --     26.8990                 3.8084                 8.5031

                     19                     20                     21
                      A                      A                      A
 Frequencies --    967.7839               987.1259              1019.1851
 Red. masses --      4.1203                 1.8107                 1.4396
 Frc consts  --      2.2737                 1.0396                 0.8810
 IR Inten    --     34.4810                 1.7908                 1.9780

                     22                     23                     24
                      A                      A                      A
 Frequencies --   1035.4555              1104.7934              1106.9059
 Red. masses --      2.3718                 2.1857                 1.7671
 Frc consts  --      1.4983                 1.5718                 1.2756
 IR Inten    --      7.1817                 4.5051                 9.0350

                     25                     26                     27
                      A                      A                      A
 Frequencies --   1127.2422              1137.0545              1168.8506
 Red. masses --      1.3545                 1.7350                 1.4705
 Frc consts  --      1.0141                 1.3217                 1.1837
 IR Inten    --      8.8041                 8.6983                 2.6144

                     28                     29                     30
                      A                      A                      A
 Frequencies --   1190.0102              1229.0032              1288.6433
 Red. masses --      1.3350                 1.3594                 1.2976
 Frc consts  --      1.1138                 1.2098                 1.2696
 IR Inten    --      3.0864                 1.8545                 3.5205

                     31                     32                     33
                      A                      A                      A
 Frequencies --   1305.9285              1322.7968              1333.1111
 Red. masses --      2.5284                 1.5120                 1.9047
 Frc consts  --      2.5406                 1.5587                 1.9944
 IR Inten    --      9.7948                 0.7936                 0.7007

                     34                     35                     36
                      A                      A                      A
 Frequencies --   1405.4800              1427.4192              1453.7528
 Red. masses --      1.3049                 2.5111                 2.6136
 Frc consts  --      1.5188                 3.0145                 3.2544
 IR Inten    --      7.4495                 7.0486                 8.6868

                     37                     38                     39
                      A                      A                      A
 Frequencies --   1470.5398              1481.5731              1489.0149
 Red. masses --      1.1492                 1.0966                 1.1096
 Frc consts  --      1.4642                 1.4182                 1.4494
 IR Inten    --      3.5210                 7.9820                 3.2624

                     40                     41                     42
                      A                      A                      A
 Frequencies --   1502.0932              1533.3087              3042.3792
 Red. masses --      1.1623                 1.4568                 1.0382
 Frc consts  --      1.5451                 2.0180                 5.6620
 IR Inten    --      2.9923                 3.1466                19.1058

                     43                     44                     45
                      A                      A                      A
 Frequencies --   3044.7972              3071.6750              3081.5720
 Red. masses --      1.0612                 1.0637                 1.0507
 Frc consts  --      5.7964                 5.9129                 5.8788
 IR Inten    --     25.6639                 9.5088                26.1786

                     46                     47                     48
                      A                      A                      A
 Frequencies --   3091.0663              3108.5696              3124.6300
 Red. masses --      1.0987                 1.0967                 1.1051
 Frc consts  --      6.1853                 6.2442                 6.3569
 IR Inten    --     21.2525                14.6402                12.9369

                     49                     50                     51
                      A                      A                      A
 Frequencies --   3135.4642              3142.7467              3165.8810
 Red. masses --      1.1024                 1.0912                 1.1190
 Frc consts  --      6.3854                 6.3498                 6.6080
 IR Inten    --      7.8705                30.4813                21.2450

 - Thermochemistry -
 -------------------
 Temperature   298.150 Kelvin.  Pressure   1.00000 Atm.
 Atom     1 has atomic number  6 and mass  12.00000

 Molecular mass:   126.06808 amu.
 Principal axes and moments of inertia in atomic units:
                           1         2         3
     Eigenvalues --   753.84046 957.779111387.36581
           X            0.99416  -0.09806  -0.04508
           Y            0.09689   0.99491  -0.02758
           Z            0.04756   0.02305   0.99860
 This molecule is an asymmetric top.
 Rotational symmetry number  1.
 Warning -- assumption of classical behavior for rotation
           may cause significant error
 Rotational temperatures (Kelvin)      0.11490     0.09043     0.06243
 Rotational constants (GHZ):           2.39406     1.88430     1.30084
 Zero-point vibrational energy     417220.6 (Joules/Mol)
                                   99.71812 (Kcal/Mol)
 Warning -- explicit consideration of  10 degrees of freedom as
           vibrations may cause significant error
 Vibrational temperatures:    145.11   245.78   321.26   357.71   373.99
          (Kelvin)            505.35   559.35   644.01   657.34   821.17
                              893.22   990.02  1107.91  1176.16  1212.45
                             1248.53  1306.15  1330.19  1392.42  1420.25
                             1466.38  1489.79  1589.55  1592.59  1621.85
                             1635.97  1681.71  1712.16  1768.26  1854.07
                             1878.94  1903.21  1918.05  2022.17  2053.74
                             2091.62  2115.78  2131.65  2142.36  2161.17
                             2206.09  4377.30  4380.78  4419.45  4433.69
                             4447.35  4472.53  4495.64  4511.23  4521.71
                             4554.99

 Zero-point correction=                           0.158911 (Hartree/Particle)
 Thermal correction to Energy=                    0.166987
 Thermal correction to Enthalpy=                  0.167931
 Thermal correction to Gibbs Free Energy=         0.126618
 Sum of electronic and zero-point Energies=           -423.009405
 Sum of electronic and thermal Energies=              -423.001329
 Sum of electronic and thermal Enthalpies=            -423.000385
 Sum of electronic and thermal Free Energies=         -423.041698

                     E (Thermal)             CV                S
                      KCal/Mol        Cal/Mol-Kelvin    Cal/Mol-Kelvin
 Total                  104.786             31.651             86.950
 Electronic               0.000              0.000              0.000
 Translational            0.889              2.981             40.409
 Rotational               0.889              2.981             28.395
 Vibrational            103.008             25.690             18.147
 Vibration     1          0.604              1.948              3.438
 Vibration     2          0.626              1.878              2.426
 Vibration     3          0.649              1.806              1.932
 Vibration     4          0.662              1.765              1.740
 Vibration     5          0.668              1.746              1.662
 Vibration     6          0.728              1.573              1.161
 Vibration     7          0.757              1.494              1.005
 Vibration     8          0.807              1.366              0.803
 Vibration     9          0.815              1.346              0.775
 Vibration    10          0.927              1.095              0.503

 Optimization completed.
    -- Stationary point found.
 Normal termination of Gaussian 09 at Mon Jan 27 18:41:49 2020.
