 Gaussian 09, Revision D.01,
 Gaussian 09:  ES64L-G09RevD.01 24-Apr-2013

 -----------------------------
 # b3lyp 6-31G(2df,p) opt Freq
 -----------------------------

 -----
 titel
 -----
 Symbolic Z-matrix:
 Charge =  0 Multiplicity = 1

 SCF Done:  E(RB3LYP) =  -423.058163918     A.U. after   13 cycles
 Optimization completed.
    -- Stationary point found.
 Normal termination of Gaussian 09 at Mon Jan 27 22:04:38 2020.

 ----------------------------------------------------------------------
 #N Geom=AllCheck Guess=TCheck SCRF=Check GenChk RB3LYP/6-31G(2df,p) Fr
 eq
 ----------------------------------------------------------------------

 Structure from the checkpoint file:  "/scratch/puck/g09_30b4cd7a-72c3-4ad4-a4c3-b8d20859c707/Gau-189492.chk"
 -----
 titel
 -----
 Charge =  0 Multiplicity = 1

                         Standard orientation:
 ---------------------------------------------------------------------
 Center     Atomic      Atomic             Coordinates (Angstroms)
 Number     Number       Type             X           Y           Z
 ---------------------------------------------------------------------
      1          8           0       -2.149733   -1.393654   -0.112855
      2          6           0       -1.077198   -0.620923    0.367192
      3          6           0       -0.894559    0.727307   -0.452598
      4          8           0       -1.381063    1.935753    0.063199
      5          6           0        0.610435    0.480624   -0.324043
      6          6           0        2.010663    0.138463   -0.922509
      7          6           0        1.827176   -0.760429    0.377343
      8          6           0        1.300340    0.507543    1.081570
      9          6           0        0.363779   -1.027759   -0.132409
     10          1           0       -2.193592   -2.205472    0.403040
     11          1           0       -1.171505   -0.416813    1.438614
     12          1           0       -1.243232    0.535024   -1.478190
     13          1           0       -2.331802    1.966276   -0.085670
     14          1           0        2.011599   -0.387130   -1.880708
     15          1           0        2.795572    0.900073   -0.874829
     16          1           0        2.559913   -1.476084    0.761879
     17          1           0        0.680821    0.367745    1.966757
     18          1           0        2.018130    1.317218    1.236295
     19          1           0        0.276645   -1.606576   -1.057213
 ---------------------------------------------------------------------

 SCF Done:  E(RB3LYP) =  -423.058163918     A.U. after    1 cycles

 The electronic state is 1-A.
 Alpha  occ. eigenvalues --  -19.14153 -19.13764 -10.23681 -10.23534 -10.20875
 Alpha  occ. eigenvalues --  -10.19732 -10.19423 -10.18111 -10.17649  -1.02908
 Alpha  occ. eigenvalues --   -1.01680  -0.91926  -0.77131  -0.66633  -0.65032
 Alpha  occ. eigenvalues --   -0.61035  -0.58233  -0.53086  -0.52404  -0.49731
 Alpha  occ. eigenvalues --   -0.46401  -0.45166  -0.43330  -0.41715  -0.37703
 Alpha  occ. eigenvalues --   -0.36235  -0.33925  -0.33447  -0.32210  -0.31449
 Alpha  occ. eigenvalues --   -0.30956  -0.27794  -0.25271  -0.22959
 Alpha virt. eigenvalues --    0.07747   0.08035   0.09173   0.11275   0.11811
 Alpha virt. eigenvalues --    0.12038   0.14196   0.15030   0.15523   0.16162
 Alpha virt. eigenvalues --    0.17558   0.18715   0.19880   0.21701   0.22553

 Mulliken charges:
               1
     1  O   -0.437014
     2  C    0.016430
     3  C    0.011331
     4  O   -0.438530
     5  C    0.282734
     6  C   -0.309279
     7  C   -0.086984
     8  C   -0.238873
     9  C   -0.059075
    10  H    0.284410
    11  H    0.080746
    12  H    0.084835
    13  H    0.289231
    14  H    0.097329
    15  H    0.094047
    16  H    0.067713
    17  H    0.097624
    18  H    0.090329
    19  H    0.072993
 Sum of Mulliken charges =   0.00000

 Dipole moment (field-independent basis, Debye):
    X=             -0.3487    Y=             -1.2006    Z=              0.4259  Tot=              1.3207
 Quadrupole moment (field-independent basis, Debye-Ang):
   XX=            -50.3352   YY=            -53.3562   ZZ=            -52.4155
   XY=             -0.2400   XZ=             -1.4900   YZ=             -2.5519

  Exact polarizability:  90.186   1.118  72.526  -0.653   1.845  68.444
 Approx polarizability: 124.712   1.390 111.833   0.416   3.034 105.875

                      1                      2                      3
                      A                      A                      A
 Frequencies --    137.5404               226.5211               235.7505
 Red. masses --      3.4968                 3.0310                 2.2941
 Frc consts  --      0.0390                 0.0916                 0.0751
 IR Inten    --      0.6611                 8.3851                23.9239

                      4                      5                      6
                      A                      A                      A
 Frequencies --    263.7841               284.1326               308.1149
 Red. masses --      1.1294                 2.5506                 2.1773
 Frc consts  --      0.0463                 0.1213                 0.1218
 IR Inten    --     69.3833                50.7308                69.7913

                      7                      8                      9
                      A                      A                      A
 Frequencies --    401.9277               461.9637               513.7675
 Red. masses --      3.7675                 3.3262                 3.5482
 Frc consts  --      0.3586                 0.4182                 0.5518
 IR Inten    --     16.3507                 3.1702                 1.2129

                     10                     11                     12
                      A                      A                      A
 Frequencies --    549.7645               601.6682               689.4977
 Red. masses --      2.1950                 3.4281                 3.1952
 Frc consts  --      0.3909                 0.7312                 0.8950
 IR Inten    --      5.4739                 1.1720                11.8662

                     13                     14                     15
                      A                      A                      A
 Frequencies --    756.2745               839.4765               848.7718
 Red. masses --      3.0529                 3.3742                 3.7816
 Frc consts  --      1.0288                 1.4010                 1.6051
 IR Inten    --      1.0655                 1.1689                 3.9024

                     16                     17                     18
                      A                      A                      A
 Frequencies --    885.5996               922.9564               955.5829
 Red. masses --      3.5260                 2.7111                 1.9592
 Frc consts  --      1.6293                 1.3607                 1.0541
 IR Inten    --      9.5711                 1.8081                 4.8643

                     19                     20                     21
                      A                      A                      A
 Frequencies --    967.0285               997.8219              1025.9627
 Red. masses --      1.7992                 1.5235                 1.3880
 Frc consts  --      0.9913                 0.8937                 0.8608
 IR Inten    --      3.4934                 3.2968                 4.0772

                     22                     23                     24
                      A                      A                      A
 Frequencies --   1045.3903              1084.0518              1093.5755
 Red. masses --      2.1889                 1.6245                 1.6156
 Frc consts  --      1.4094                 1.1248                 1.1384
 IR Inten    --      8.8732                44.1416                25.3496

                     25                     26                     27
                      A                      A                      A
 Frequencies --   1112.7726              1116.4203              1139.4738
 Red. masses --      2.2658                 1.9626                 1.4687
 Frc consts  --      1.6530                 1.4413                 1.1235
 IR Inten    --     98.5398                22.0787                11.3068

                     28                     29                     30
                      A                      A                      A
 Frequencies --   1155.0330              1175.1443              1189.3704
 Red. masses --      2.1955                 1.6302                 1.4122
 Frc consts  --      1.7257                 1.3264                 1.1770
 IR Inten    --     52.4853                 8.0594                 5.4731

                     31                     32                     33
                      A                      A                      A
 Frequencies --   1207.7891              1216.0184              1228.4171
 Red. masses --      1.6347                 1.3877                 1.8726
 Frc consts  --      1.4050                 1.2090                 1.6649
 IR Inten    --     48.3756                10.8302                30.4858

                     34                     35                     36
                      A                      A                      A
 Frequencies --   1252.7854              1269.4570              1303.4907
 Red. masses --      1.7347                 1.2426                 1.6190
 Frc consts  --      1.6041                 1.1798                 1.6207
 IR Inten    --     14.4568                39.2547                34.0143

                     37                     38                     39
                      A                      A                      A
 Frequencies --   1339.5369              1410.1872              1445.6609
 Red. masses --      1.3770                 1.3471                 1.5526
 Frc consts  --      1.4558                 1.5783                 1.9118
 IR Inten    --     20.7363                 6.4974                18.4989

                     40                     41                     42
                      A                      A                      A
 Frequencies --   1498.3525              1540.2623              3000.7793
 Red. masses --      1.1027                 1.1398                 1.0839
 Frc consts  --      1.4586                 1.5932                 5.7503
 IR Inten    --      1.0851                 0.2062                30.8799

                     43                     44                     45
                      A                      A                      A
 Frequencies --   3040.8509              3044.2690              3055.5136
 Red. masses --      1.0568                 1.0837                 1.0797
 Frc consts  --      5.7573                 5.9172                 5.9393
 IR Inten    --     53.8304                10.0255                53.6798

                     46                     47                     48
                      A                      A                      A
 Frequencies --   3062.6569              3073.2818              3116.7272
 Red. masses --      1.0807                 1.0741                 1.1102
 Frc consts  --      5.9724                 5.9773                 6.3538
 IR Inten    --     92.4014                56.8698                40.0722

                     49                     50                     51
                      A                      A                      A
 Frequencies --   3140.0952              3810.8288              3815.1452
 Red. masses --      1.1046                 1.0660                 1.0660
 Frc consts  --      6.4169                 9.1214                 9.1418
 IR Inten    --     34.0485                26.0452                27.8762

 - Thermochemistry -
 -------------------
 Temperature   298.150 Kelvin.  Pressure   1.00000 Atm.
 Atom     1 has atomic number  8 and mass  15.99491

 Molecular mass:   126.06808 amu.
 Principal axes and moments of inertia in atomic units:
                           1         2         3
     Eigenvalues --   686.700671167.682491513.64614
           X            0.99998   0.00353  -0.00538
           Y           -0.00351   0.99998   0.00424
           Z            0.00539  -0.00422   0.99998
 This molecule is an asymmetric top.
 Rotational symmetry number  1.
 Warning -- assumption of classical behavior for rotation
           may cause significant error
 Rotational temperatures (Kelvin)      0.12613     0.07418     0.05722
 Rotational constants (GHZ):           2.62813     1.54558     1.19231
 Zero-point vibrational energy     417839.1 (Joules/Mol)
                                   99.86594 (Kcal/Mol)
 Warning -- explicit consideration of  11 degrees of freedom as
           vibrations may cause significant error
 Vibrational temperatures:    197.89   325.91   339.19   379.53   408.80
          (Kelvin)            443.31   578.28   664.66   739.20   790.99
                              865.67   992.03  1088.11  1207.82  1221.19
                             1274.18  1327.93  1374.87  1391.34  1435.64
                             1476.13  1504.08  1559.71  1573.41  1601.03
                             1606.28  1639.45  1661.83  1690.77  1711.24
                             1737.74  1749.58  1767.42  1802.48  1826.46
                             1875.43  1927.29  2028.94  2079.98  2155.79
                             2216.09  4317.45  4375.10  4380.02  4396.20
                             4406.47  4421.76  4484.27  4517.89  5482.93
                             5489.14

 Zero-point correction=                           0.159147 (Hartree/Particle)
 Thermal correction to Energy=                    0.167042
 Thermal correction to Enthalpy=                  0.167986
 Thermal correction to Gibbs Free Energy=         0.127215
 Sum of electronic and zero-point Energies=           -422.899017
 Sum of electronic and thermal Energies=              -422.891122
 Sum of electronic and thermal Enthalpies=            -422.890178
 Sum of electronic and thermal Free Energies=         -422.930949

                     E (Thermal)             CV                S
                      KCal/Mol        Cal/Mol-Kelvin    Cal/Mol-Kelvin
 Total                  104.820             31.943             85.811
 Electronic               0.000              0.000              0.000
 Translational            0.889              2.981             40.409
 Rotational               0.889              2.981             28.586
 Vibrational            103.043             25.981             16.816
 Vibration     1          0.614              1.916              2.838
 Vibration     2          0.650              1.801              1.906
 Vibration     3          0.655              1.786              1.835
 Vibration     4          0.670              1.739              1.637
 Vibration     5          0.683              1.703              1.509
 Vibration     6          0.698              1.658              1.372
 Vibration     7          0.768              1.466              0.956
 Vibration     8          0.820              1.334              0.760
 Vibration     9          0.869              1.219              0.625
 Vibration    10          0.905              1.140              0.545
 Vibration    11          0.960              1.028              0.447

 Normal termination of Gaussian 09 at Mon Jan 27 22:50:13 2020.
