 Gaussian 09, Revision D.01,
 Gaussian 09:  ES64L-G09RevD.01 24-Apr-2013

 -----------------------------
 # b3lyp 6-31G(2df,p) opt Freq
 -----------------------------

 -----
 titel
 -----
 Symbolic Z-matrix:
 Charge =  0 Multiplicity = 1

 SCF Done:  E(RB3LYP) =  -423.188962149     A.U. after   14 cycles
 Optimization completed.
    -- Stationary point found.
 Normal termination of Gaussian 09 at Mon Jan 27 22:56:28 2020.

 ----------------------------------------------------------------------
 #N Geom=AllCheck Guess=TCheck SCRF=Check GenChk RB3LYP/6-31G(2df,p) Fr
 eq
 ----------------------------------------------------------------------

 Structure from the checkpoint file:  "/scratch/puck/g09_0e5bf25f-597c-4d91-a85a-8dd6583b8afc/Gau-65260.chk"
 -----
 titel
 -----
 Charge =  0 Multiplicity = 1

                         Standard orientation:
 ---------------------------------------------------------------------
 Center     Atomic      Atomic             Coordinates (Angstroms)
 Number     Number       Type             X           Y           Z
 ---------------------------------------------------------------------
      1          8           0       -3.207238    0.083611   -0.508902
      2          6           0       -1.811527    0.003460   -0.532548
      3          6           0       -1.122984   -0.752472    0.581559
      4          6           0        0.302565   -1.228379    0.350015
      5          6           0        1.052469   -0.001518   -0.245026
      6          6           0        0.300362    1.238039    0.317948
      7          6           0       -1.124169    0.766711    0.560414
      8          6           0        2.511916    0.002283    0.141865
      9          8           0        3.440830   -0.016709   -0.622347
     10          1           0       -3.558674   -0.767010   -0.792544
     11          1           0       -1.370833   -0.006105   -1.530861
     12          1           0       -1.757947   -1.295304    1.273241
     13          1           0        0.748834   -1.512638    1.312579
     14          1           0        0.381291   -2.098605   -0.309712
     15          1           0        1.005039   -0.015982   -1.336358
     16          1           0        0.744181    1.546361    1.273960
     17          1           0        0.375036    2.091698   -0.362931
     18          1           0       -1.764150    1.329988    1.229622
     19          1           0        2.676691    0.023633    1.247645
 ---------------------------------------------------------------------

 SCF Done:  E(RB3LYP) =  -423.188962149     A.U. after    1 cycles

 The electronic state is 1-A.
 Alpha  occ. eigenvalues --  -19.14710 -19.13918 -10.26982 -10.23823 -10.20059
 Alpha  occ. eigenvalues --  -10.19988 -10.19848 -10.19422 -10.19370  -1.04637
 Alpha  occ. eigenvalues --   -1.03243  -0.88474  -0.78467  -0.72267  -0.65229
 Alpha  occ. eigenvalues --   -0.59558  -0.57067  -0.56064  -0.53026  -0.48759
 Alpha  occ. eigenvalues --   -0.46014  -0.45659  -0.43987  -0.42550  -0.40646
 Alpha  occ. eigenvalues --   -0.39766  -0.37399  -0.36499  -0.34995  -0.33988
 Alpha  occ. eigenvalues --   -0.32107  -0.27672  -0.25858  -0.24909
 Alpha virt. eigenvalues --   -0.02151   0.07302   0.09377   0.09443   0.11978
 Alpha virt. eigenvalues --    0.12720   0.13365   0.13523   0.15413   0.17242
 Alpha virt. eigenvalues --    0.17589   0.18018   0.19897   0.20786   0.22683

 Mulliken charges:
               1
     1  O   -0.434118
     2  C    0.096148
     3  C   -0.091887
     4  C   -0.254129
     5  C   -0.071561
     6  C   -0.256358
     7  C   -0.052585
     8  C    0.149252
     9  O   -0.248616
    10  H    0.286169
    11  H    0.083840
    12  H    0.089265
    13  H    0.105046
    14  H    0.112095
    15  H    0.098281
    16  H    0.105016
    17  H    0.116899
    18  H    0.099153
    19  H    0.068092
 Sum of Mulliken charges =   0.00000

 Dipole moment (field-independent basis, Debye):
    X=             -2.0156    Y=             -1.1847    Z=              0.9591  Tot=              2.5270
 Quadrupole moment (field-independent basis, Debye-Ang):
   XX=            -66.5916   YY=            -50.7737   ZZ=            -51.9756
   XY=              5.1365   XZ=              5.0375   YZ=              1.2555

  Exact polarizability:  93.320   1.425  67.954  -0.615   0.642  67.606
 Approx polarizability: 122.893   0.913 102.831  -5.432   1.003 108.630

                      1                      2                      3
                      A                      A                      A
 Frequencies --     73.0942                87.7340               232.4217
 Red. masses --      4.9407                 4.7823                 2.2548
 Frc consts  --      0.0156                 0.0217                 0.0718
 IR Inten    --      5.6968                 2.6111                13.2147

                      4                      5                      6
                      A                      A                      A
 Frequencies --    255.0599               293.4983               319.3180
 Red. masses --      3.2230                 2.0949                 1.4488
 Frc consts  --      0.1235                 0.1063                 0.0870
 IR Inten    --      1.0329                12.1115                53.8216

                      7                      8                      9
                      A                      A                      A
 Frequencies --    353.5359               358.1742               371.6176
 Red. masses --      2.0318                 2.3323                 4.9718
 Frc consts  --      0.1496                 0.1763                 0.4045
 IR Inten    --     15.6749                20.2040                 5.7004

                     10                     11                     12
                      A                      A                      A
 Frequencies --    509.7635               651.5978               674.8755
 Red. masses --      4.1334                 3.8247                 3.1635
 Frc consts  --      0.6328                 0.9568                 0.8489
 IR Inten    --     11.3994                 0.3218                 7.3605

                     13                     14                     15
                      A                      A                      A
 Frequencies --    832.0854               851.2808               853.1905
 Red. masses --      2.2123                 2.4839                 2.4710
 Frc consts  --      0.9025                 1.0606                 1.0598
 IR Inten    --      4.4192                 3.3249                 6.1024

                     16                     17                     18
                      A                      A                      A
 Frequencies --    888.9896               912.8631               954.2756
 Red. masses --      2.3124                 1.5296                 2.4324
 Frc consts  --      1.0767                 0.7510                 1.3051
 IR Inten    --      5.4516                 6.4883                 4.8694

                     19                     20                     21
                      A                      A                      A
 Frequencies --   1012.3892              1030.6439              1046.4487
 Red. masses --      1.7477                 1.6210                 1.6960
 Frc consts  --      1.0554                 1.0145                 1.0943
 IR Inten    --      7.1862                 1.1694                 3.5739

                     22                     23                     24
                      A                      A                      A
 Frequencies --   1050.3019              1080.2393              1107.4478
 Red. masses --      1.7272                 1.3188                 2.1501
 Frc consts  --      1.1226                 0.9067                 1.5537
 IR Inten    --     25.2394                 2.1709                16.4785

                     25                     26                     27
                      A                      A                      A
 Frequencies --   1115.4880              1153.0389              1184.9006
 Red. masses --      2.7005                 2.2697                 1.4363
 Frc consts  --      1.9798                 1.7779                 1.1881
 IR Inten    --     37.7554                53.3384                 0.3234

                     28                     29                     30
                      A                      A                      A
 Frequencies --   1185.7194              1242.1482              1278.4527
 Red. masses --      1.7760                 1.3591                 1.5597
 Frc consts  --      1.4711                 1.2355                 1.5019
 IR Inten    --      0.1590                13.2116                37.7979

                     31                     32                     33
                      A                      A                      A
 Frequencies --   1288.4975              1301.2146              1311.1234
 Red. masses --      1.4518                 1.3560                 1.3543
 Frc consts  --      1.4201                 1.3528                 1.3716
 IR Inten    --      2.5379                 0.4303                24.8860

                     34                     35                     36
                      A                      A                      A
 Frequencies --   1326.7301              1337.7683              1368.7586
 Red. masses --      1.6827                 1.2240                 1.3779
 Frc consts  --      1.7451                 1.2906                 1.5209
 IR Inten    --     18.6315                 0.3642                 2.8057

                     37                     38                     39
                      A                      A                      A
 Frequencies --   1428.2297              1468.5602              1486.9138
 Red. masses --      1.1937                 2.1450                 1.0946
 Frc consts  --      1.4346                 2.7255                 1.4259
 IR Inten    --      2.5804                 5.3189                 1.5612

                     40                     41                     42
                      A                      A                      A
 Frequencies --   1498.3290              1836.0975              2828.6941
 Red. masses --      1.1116                10.4534                 1.0809
 Frc consts  --      1.4703                20.7635                 5.0957
 IR Inten    --      2.5016               224.6538                97.3522

                     43                     44                     45
                      A                      A                      A
 Frequencies --   3018.1600              3022.6724              3068.5456
 Red. masses --      1.0645                 1.0656                 1.0930
 Frc consts  --      5.7133                 5.7360                 6.0634
 IR Inten    --     34.4839                31.8714                10.7889

                     46                     47                     48
                      A                      A                      A
 Frequencies --   3075.6360              3081.6027              3095.6435
 Red. masses --      1.0955                 1.0895                 1.0891
 Frc consts  --      6.1057                 6.0959                 6.1490
 IR Inten    --     21.1836                 9.8760                46.4501

                     49                     50                     51
                      A                      A                      A
 Frequencies --   3171.5322              3185.3323              3802.8881
 Red. masses --      1.0890                 1.0916                 1.0662
 Frc consts  --      6.4537                 6.5255                 9.0848
 IR Inten    --     10.6441                10.4298                21.9085

 - Thermochemistry -
 -------------------
 Temperature   298.150 Kelvin.  Pressure   1.00000 Atm.
 Atom     1 has atomic number  8 and mass  15.99491

 Molecular mass:   126.06808 amu.
 Principal axes and moments of inertia in atomic units:
                           1         2         3
     Eigenvalues --   379.777832084.022382190.53026
           X            0.99995   0.00552   0.00820
           Y           -0.00567   0.99982   0.01798
           Z           -0.00810  -0.01803   0.99980
 This molecule is an asymmetric top.
 Rotational symmetry number  1.
 Rotational temperatures (Kelvin)      0.22806     0.04156     0.03954
 Rotational constants (GHZ):           4.75210     0.86599     0.82388
 Zero-point vibrational energy     418474.8 (Joules/Mol)
                                  100.01788 (Kcal/Mol)
 Warning -- explicit consideration of  10 degrees of freedom as
           vibrations may cause significant error
 Vibrational temperatures:    105.17   126.23   334.40   366.97   422.28
          (Kelvin)            459.43   508.66   515.33   534.67   733.44
                              937.50   970.99  1197.18  1224.80  1227.55
                             1279.06  1313.40  1372.99  1456.60  1482.86
                             1505.60  1511.15  1554.22  1593.37  1604.94
                             1658.96  1704.81  1705.98  1787.17  1839.41
                             1853.86  1872.16  1886.41  1908.87  1924.75
                             1969.34  2054.90  2112.93  2139.33  2155.76
                             2641.73  4069.85  4342.45  4348.95  4414.95
                             4425.15  4433.73  4453.93  4563.12  4582.98
                             5471.50

 Zero-point correction=                           0.159389 (Hartree/Particle)
 Thermal correction to Energy=                    0.167826
 Thermal correction to Enthalpy=                  0.168770
 Thermal correction to Gibbs Free Energy=         0.126019
 Sum of electronic and zero-point Energies=           -423.029574
 Sum of electronic and thermal Energies=              -423.021136
 Sum of electronic and thermal Enthalpies=            -423.020192
 Sum of electronic and thermal Free Energies=         -423.062943

                     E (Thermal)             CV                S
                      KCal/Mol        Cal/Mol-Kelvin    Cal/Mol-Kelvin
 Total                  105.312             31.997             89.977
 Electronic               0.000              0.000              0.000
 Translational            0.889              2.981             40.409
 Rotational               0.889              2.981             28.940
 Vibrational            103.535             26.036             20.628
 Vibration     1          0.599              1.967              4.068
 Vibration     2          0.601              1.958              3.710
 Vibration     3          0.653              1.791              1.860
 Vibration     4          0.665              1.754              1.695
 Vibration     5          0.688              1.686              1.454
 Vibration     6          0.705              1.637              1.314
 Vibration     7          0.730              1.568              1.150
 Vibration     8          0.733              1.558              1.130
 Vibration     9          0.743              1.530              1.073
 Vibration    10          0.865              1.228              0.634

 Normal termination of Gaussian 09 at Mon Jan 27 23:37:41 2020.
