 Gaussian 09, Revision D.01,
 Gaussian 09:  ES64L-G09RevD.01 24-Apr-2013

 -----------------------------
 # b3lyp 6-31G(2df,p) opt Freq
 -----------------------------

 -----
 titel
 -----
 Symbolic Z-matrix:
 Charge =  0 Multiplicity = 1

 SCF Done:  E(RB3LYP) =  -423.226012920     A.U. after   14 cycles
 Optimization completed.
    -- Stationary point found.
 Normal termination of Gaussian 09 at Tue Jan 28 12:36:05 2020.

 ----------------------------------------------------------------------
 #N Geom=AllCheck Guess=TCheck SCRF=Check GenChk RB3LYP/6-31G(2df,p) Fr
 eq
 ----------------------------------------------------------------------

 Structure from the checkpoint file:  "/scratch/puck/g09_e295c70f-f208-49e4-8078-021d928a0b52/Gau-158002.chk"
 -----
 titel
 -----
 Charge =  0 Multiplicity = 1

                         Standard orientation:
 ---------------------------------------------------------------------
 Center     Atomic      Atomic             Coordinates (Angstroms)
 Number     Number       Type             X           Y           Z
 ---------------------------------------------------------------------
      1          8           0        3.063269   -0.106930   -0.533695
      2          6           0        2.182446   -0.692544    0.418985
      3          6           0        0.760892   -0.208599    0.262663
      4          6           0       -0.254189   -1.067816    0.072649
      5          6           0       -1.666916   -0.645078   -0.034274
      6          8           0       -2.558440   -1.448033   -0.228675
      7          6           0       -1.938544    0.843715    0.151467
      8          6           0       -0.770982    1.708628   -0.337718
      9          6           0        0.543650    1.282932    0.326074
     10          1           0        2.786952   -0.408531   -1.405824
     11          1           0        2.215281   -1.790247    0.380899
     12          1           0        2.572495   -0.383992    1.397086
     13          1           0       -0.083457   -2.139558    0.007871
     14          1           0       -2.880069    1.085525   -0.347972
     15          1           0       -2.096812    1.009132    1.227568
     16          1           0       -0.672808    1.600293   -1.425138
     17          1           0       -0.969745    2.767270   -0.143169
     18          1           0        1.401322    1.782451   -0.135336
     19          1           0        0.550075    1.589942    1.383896
 ---------------------------------------------------------------------

 SCF Done:  E(RB3LYP) =  -423.226012920     A.U. after    1 cycles

 The electronic state is 1-A.
 Alpha  occ. eigenvalues --  -19.15167 -19.11772 -10.26026 -10.24414 -10.21550
 Alpha  occ. eigenvalues --  -10.19787 -10.19548 -10.19002 -10.18861  -1.03130
 Alpha  occ. eigenvalues --   -1.02701  -0.84635  -0.77406  -0.72908  -0.68935
 Alpha  occ. eigenvalues --   -0.62052  -0.58398  -0.51946  -0.50511  -0.48747
 Alpha  occ. eigenvalues --   -0.46461  -0.44671  -0.44072  -0.42487  -0.40909
 Alpha  occ. eigenvalues --   -0.40467  -0.38290  -0.35699  -0.34583  -0.33881
 Alpha  occ. eigenvalues --   -0.33475  -0.28921  -0.26811  -0.23605
 Alpha virt. eigenvalues --   -0.05129   0.05433   0.07586   0.09792   0.11342
 Alpha virt. eigenvalues --    0.12891   0.13881   0.14607   0.16112   0.16463
 Alpha virt. eigenvalues --    0.17307   0.18222   0.20214   0.21128   0.22212

 Mulliken charges:
               1
     1  O   -0.405447
     2  C   -0.156723
     3  C    0.290690
     4  C   -0.265363
     5  C    0.384455
     6  O   -0.332865
     7  C   -0.306654
     8  C   -0.227865
     9  C   -0.291933
    10  H    0.287711
    11  H    0.103459
    12  H    0.122827
    13  H    0.097045
    14  H    0.122117
    15  H    0.121580
    16  H    0.107850
    17  H    0.104397
    18  H    0.127835
    19  H    0.116884
 Sum of Mulliken charges =   0.00000

 Dipole moment (field-independent basis, Debye):
    X=              1.8219    Y=              1.5874    Z=              0.1629  Tot=              2.4220
 Quadrupole moment (field-independent basis, Debye-Ang):
   XX=            -65.4952   YY=            -53.9274   ZZ=            -49.5395
   XY=             -8.7549   XZ=             -1.8300   YZ=              0.4125

  Exact polarizability: 100.829   6.175  81.315   3.697   2.135  58.828
 Approx polarizability: 150.327  26.578 122.753   8.444   7.241  93.228

                      1                      2                      3
                      A                      A                      A
 Frequencies --     66.6387                99.7994               150.1480
 Red. masses --      4.1086                 2.7176                 4.3144
 Frc consts  --      0.0107                 0.0159                 0.0573
 IR Inten    --      6.2055                 1.3783                 1.7474

                      4                      5                      6
                      A                      A                      A
 Frequencies --    237.0391               269.2653               304.8010
 Red. masses --      2.6344                 2.1740                 2.1331
 Frc consts  --      0.0872                 0.0929                 0.1168
 IR Inten    --      4.7915                 8.1092                25.0731

                      7                      8                      9
                      A                      A                      A
 Frequencies --    379.9139               425.6992               458.2968
 Red. masses --      1.4340                 2.5275                 5.4578
 Frc consts  --      0.1219                 0.2699                 0.6754
 IR Inten    --     85.4581                 0.7027                 1.7102

                     10                     11                     12
                      A                      A                      A
 Frequencies --    482.3342               538.5389               607.3694
 Red. masses --      3.4997                 2.4626                 2.8414
 Frc consts  --      0.4797                 0.4208                 0.6176
 IR Inten    --     24.1824                 1.0058                 3.8812

                     13                     14                     15
                      A                      A                      A
 Frequencies --    672.0806               762.9650               831.7175
 Red. masses --      3.4740                 2.2844                 2.2291
 Frc consts  --      0.9245                 0.7835                 0.9085
 IR Inten    --      5.0979                 4.6516                 0.1509

                     16                     17                     18
                      A                      A                      A
 Frequencies --    865.1802               907.9435               930.9529
 Red. masses --      1.8447                 2.3942                 1.4860
 Frc consts  --      0.8135                 1.1628                 0.7588
 IR Inten    --      1.8430                 2.6384                25.1894

                     19                     20                     21
                      A                      A                      A
 Frequencies --    966.3618               992.0246              1054.7424
 Red. masses --      1.8450                 1.9067                 3.1606
 Frc consts  --      1.0152                 1.1055                 2.0716
 IR Inten    --      4.0499                41.3719                34.0751

                     22                     23                     24
                      A                      A                      A
 Frequencies --   1059.4163              1075.1950              1139.5892
 Red. masses --      2.3160                 2.1434                 1.5200
 Frc consts  --      1.5315                 1.4599                 1.1630
 IR Inten    --     15.4225                 2.5530                36.8730

                     25                     26                     27
                      A                      A                      A
 Frequencies --   1154.7183              1187.8824              1214.3352
 Red. masses --      1.7739                 1.3421                 1.4226
 Frc consts  --      1.3936                 1.1158                 1.2360
 IR Inten    --      4.5107                11.8497                23.7286

                     28                     29                     30
                      A                      A                      A
 Frequencies --   1256.7452              1271.4598              1331.7144
 Red. masses --      1.5951                 1.2759                 1.7131
 Frc consts  --      1.4843                 1.2153                 1.7901
 IR Inten    --     48.6400                 3.0597                10.1320

                     31                     32                     33
                      A                      A                      A
 Frequencies --   1347.5471              1368.6691              1375.2051
 Red. masses --      1.4830                 1.5362                 1.4383
 Frc consts  --      1.5867                 1.6955                 1.6026
 IR Inten    --     11.1611                 4.3047                 7.7299

                     34                     35                     36
                      A                      A                      A
 Frequencies --   1398.8616              1411.7542              1458.6438
 Red. masses --      1.6363                 1.2161                 1.0861
 Frc consts  --      1.8865                 1.4281                 1.3615
 IR Inten    --      4.4789                59.7734                 3.2730

                     37                     38                     39
                      A                      A                      A
 Frequencies --   1476.3822              1493.6707              1496.2010
 Red. masses --      1.0868                 1.0854                 1.0950
 Frc consts  --      1.3957                 1.4267                 1.4442
 IR Inten    --      6.8335                 1.9396                 3.1231

                     40                     41                     42
                      A                      A                      A
 Frequencies --   1689.9179              1775.5286              2991.5697
 Red. masses --      7.5869                11.4945                 1.0712
 Frc consts  --     12.7657                21.3498                 5.6481
 IR Inten    --     28.0741               235.6489                13.2631

                     43                     44                     45
                      A                      A                      A
 Frequencies --   3005.8687              3010.0622              3032.3724
 Red. masses --      1.0609                 1.0694                 1.0619
 Frc consts  --      5.6478                 5.7087                 5.7533
 IR Inten    --     43.1877                 7.1675                32.7142

                     46                     47                     48
                      A                      A                      A
 Frequencies --   3055.8468              3078.0437              3080.3918
 Red. masses --      1.1019                 1.0923                 1.0963
 Frc consts  --      6.0626                 6.0973                 6.1290
 IR Inten    --     22.4382                26.5367                18.4998

                     49                     50                     51
                      A                      A                      A
 Frequencies --   3101.7804              3164.9742              3808.2123
 Red. masses --      1.0928                 1.0904                 1.0663
 Frc consts  --      6.1946                 6.4354                 9.1114
 IR Inten    --     16.1406                 9.3567                20.6421

 - Thermochemistry -
 -------------------
 Temperature   298.150 Kelvin.  Pressure   1.00000 Atm.
 Atom     1 has atomic number  8 and mass  15.99491

 Molecular mass:   126.06808 amu.
 Principal axes and moments of inertia in atomic units:
                           1         2         3
     Eigenvalues --   603.034241664.689982117.19334
           X            0.99927  -0.03811   0.00158
           Y            0.03811   0.99927  -0.00387
           Z           -0.00144   0.00393   0.99999
 This molecule is an asymmetric top.
 Rotational symmetry number  1.
 Warning -- assumption of classical behavior for rotation
           may cause significant error
 Rotational temperatures (Kelvin)      0.14363     0.05203     0.04091
 Rotational constants (GHZ):           2.99277     1.08413     0.85242
 Zero-point vibrational energy     420585.3 (Joules/Mol)
                                  100.52230 (Kcal/Mol)
 Warning -- explicit consideration of  12 degrees of freedom as
           vibrations may cause significant error
 Vibrational temperatures:     95.88   143.59   216.03   341.05   387.41
          (Kelvin)            438.54   546.61   612.49   659.39   693.97
                              774.84   873.87   966.97  1097.74  1196.65
                             1244.80  1306.33  1339.43  1390.38  1427.30
                             1517.54  1524.26  1546.96  1639.61  1661.38
                             1709.10  1747.16  1808.17  1829.34  1916.04
                             1938.82  1969.21  1978.61  2012.65  2031.20
                             2098.66  2124.18  2149.06  2152.70  2431.41
                             2554.59  4304.20  4324.77  4330.80  4362.90
                             4396.68  4428.61  4431.99  4462.76  4553.69
                             5479.16

 Zero-point correction=                           0.160192 (Hartree/Particle)
 Thermal correction to Energy=                    0.168833
 Thermal correction to Enthalpy=                  0.169777
 Thermal correction to Gibbs Free Energy=         0.126458
 Sum of electronic and zero-point Energies=           -423.065820
 Sum of electronic and thermal Energies=              -423.057180
 Sum of electronic and thermal Enthalpies=            -423.056236
 Sum of electronic and thermal Free Energies=         -423.099555

                     E (Thermal)             CV                S
                      KCal/Mol        Cal/Mol-Kelvin    Cal/Mol-Kelvin
 Total                  105.944             32.452             91.174
 Electronic               0.000              0.000              0.000
 Translational            0.889              2.981             40.409
 Rotational               0.889              2.981             29.143
 Vibrational            104.167             26.490             21.622
 Vibration     1          0.598              1.970              4.250
 Vibration     2          0.604              1.949              3.458
 Vibration     3          0.618              1.903              2.670
 Vibration     4          0.656              1.784              1.825
 Vibration     5          0.674              1.730              1.601
 Vibration     6          0.696              1.665              1.390
 Vibration     7          0.750              1.513              1.040
 Vibration     8          0.788              1.414              0.873
 Vibration     9          0.816              1.343              0.771
 Vibration    10          0.839              1.289              0.704
 Vibration    11          0.894              1.165              0.568
 Vibration    12          0.966              1.016              0.437

 Optimization completed.
    -- Stationary point found.
 Normal termination of Gaussian 09 at Tue Jan 28 13:18:43 2020.
