 Gaussian 09, Revision D.01,
 Gaussian 09:  ES64L-G09RevD.01 24-Apr-2013

 -----------------------------
 # b3lyp 6-31G(2df,p) opt Freq
 -----------------------------

 -----
 titel
 -----
 Symbolic Z-matrix:
 Charge =  0 Multiplicity = 1

 SCF Done:  E(RB3LYP) =  -423.146444131     A.U. after   14 cycles
 Optimization completed.
    -- Stationary point found.
 Normal termination of Gaussian 09 at Tue Jan 28 11:59:24 2020.

 ----------------------------------------------------------------------
 #N Geom=AllCheck Guess=TCheck SCRF=Check GenChk RB3LYP/6-31G(2df,p) Fr
 eq
 ----------------------------------------------------------------------

 Structure from the checkpoint file:  "/scratch/puck/g09_4ca21a7b-d0bc-4f41-8172-63427771a518/Gau-138577.chk"
 -----
 titel
 -----
 Charge =  0 Multiplicity = 1

                         Standard orientation:
 ---------------------------------------------------------------------
 Center     Atomic      Atomic             Coordinates (Angstroms)
 Number     Number       Type             X           Y           Z
 ---------------------------------------------------------------------
      1          8           0        2.756665   -1.135613    0.076280
      2          6           0        1.515980   -0.949090   -0.583703
      3          6           0        0.464090   -0.282905    0.308040
      4          6           0        0.877904    1.143702    0.735376
      5          8           0        0.197150    2.025441   -0.147342
      6          6           0       -1.097930    1.484375   -0.296179
      7          6           0       -0.873575   -0.044399   -0.471309
      8          6           0       -1.993324   -0.858935   -0.030798
      9          6           0       -2.925461   -1.518683    0.345862
     10          1           0        2.627030   -1.785361    0.774831
     11          1           0        1.729687   -0.297791   -1.439251
     12          1           0        1.123219   -1.897639   -0.981702
     13          1           0        0.285077   -0.916050    1.182676
     14          1           0        0.579475    1.340717    1.776898
     15          1           0        1.952100    1.315026    0.639627
     16          1           0       -1.715887    1.668939    0.596617
     17          1           0       -1.574328    1.952477   -1.160032
     18          1           0       -0.692430   -0.240608   -1.535575
     19          1           0       -3.750563   -2.102723    0.670682
 ---------------------------------------------------------------------

 SCF Done:  E(RB3LYP) =  -423.146444131     A.U. after    1 cycles

 The electronic state is 1-A.
 Alpha  occ. eigenvalues --  -19.14308 -19.14232 -10.23370 -10.23254 -10.22621
 Alpha  occ. eigenvalues --  -10.21774 -10.19783 -10.18527 -10.17552  -1.04386
 Alpha  occ. eigenvalues --   -1.02290  -0.81932  -0.76189  -0.72442  -0.67593
 Alpha  occ. eigenvalues --   -0.61959  -0.59102  -0.53766  -0.51108  -0.50359
 Alpha  occ. eigenvalues --   -0.49229  -0.46181  -0.43842  -0.42186  -0.41563
 Alpha  occ. eigenvalues --   -0.38332  -0.36609  -0.35394  -0.33938  -0.32196
 Alpha  occ. eigenvalues --   -0.28087  -0.26871  -0.26414  -0.25521
 Alpha virt. eigenvalues --    0.04603   0.04931   0.07031   0.09533   0.10967
 Alpha virt. eigenvalues --    0.12426   0.12798   0.13827   0.15024   0.15886
 Alpha virt. eigenvalues --    0.16107   0.16879   0.19057   0.20027   0.22493

 Mulliken charges:
               1
     1  O   -0.417747
     2  C   -0.082803
     3  C   -0.031853
     4  C   -0.097697
     5  O   -0.238552
     6  C   -0.097903
     7  C   -0.201024
     8  C    0.315067
     9  C   -0.467711
    10  H    0.283770
    11  H    0.121451
    12  H    0.096236
    13  H    0.078421
    14  H    0.089188
    15  H    0.126924
    16  H    0.099487
    17  H    0.118546
    18  H    0.108939
    19  H    0.197261
 Sum of Mulliken charges =   0.00000

 Dipole moment (field-independent basis, Debye):
    X=             -1.0012    Y=             -1.5974    Z=              0.8116  Tot=              2.0525
 Quadrupole moment (field-independent basis, Debye-Ang):
   XX=            -55.9867   YY=            -53.9413   ZZ=            -50.7733
   XY=             -0.8225   XZ=              1.6329   YZ=             -1.9767

  Exact polarizability:  92.778   9.130  75.188  -1.842  -3.521  63.811
 Approx polarizability: 129.730  20.344 108.699  -7.435 -10.835  98.813

                      1                      2                      3
                      A                      A                      A
 Frequencies --     28.8947               110.4600               157.4869
 Red. masses --      3.1124                 3.2037                 3.8578
 Frc consts  --      0.0015                 0.0230                 0.0564
 IR Inten    --      0.5828                 2.5745                 0.9341

                      4                      5                      6
                      A                      A                      A
 Frequencies --    173.6295               216.4526               298.6520
 Red. masses --      3.3386                 3.4397                 2.4135
 Frc consts  --      0.0593                 0.0949                 0.1268
 IR Inten    --      0.3555                 1.0850                 3.0542

                      7                      8                      9
                      A                      A                      A
 Frequencies --    319.3624               356.9843               417.3007
 Red. masses --      1.2120                 3.0281                 3.5190
 Frc consts  --      0.0728                 0.2274                 0.3611
 IR Inten    --    117.1966                 0.6092                10.6413

                     10                     11                     12
                      A                      A                      A
 Frequencies --    507.0342               545.3972               592.9535
 Red. masses --      5.9397                 3.9202                 2.8773
 Frc consts  --      0.8997                 0.6870                 0.5960
 IR Inten    --      1.3683                 8.7043                 4.7606

                     13                     14                     15
                      A                      A                      A
 Frequencies --    630.3860               633.9629               693.3261
 Red. masses --      1.2477                 1.2290                 4.2312
 Frc consts  --      0.2921                 0.2910                 1.1984
 IR Inten    --     40.0672                42.1266                 7.8700

                     16                     17                     18
                      A                      A                      A
 Frequencies --    857.9809               905.1842               929.0174
 Red. masses --      2.9014                 2.6056                 1.5106
 Frc consts  --      1.2584                 1.2579                 0.7681
 IR Inten    --      6.4987                13.3728                 1.4744

                     19                     20                     21
                      A                      A                      A
 Frequencies --    963.2198              1016.4815              1041.2902
 Red. masses --      3.9138                 2.3446                 2.8384
 Frc consts  --      2.1394                 1.4273                 1.8133
 IR Inten    --     31.4855                17.9211                23.3274

                     22                     23                     24
                      A                      A                      A
 Frequencies --   1049.9569              1073.8298              1082.9791
 Red. masses --      3.1605                 3.6480                 2.4880
 Frc consts  --      2.0528                 2.4785                 1.7193
 IR Inten    --     11.2959                76.3392                25.4914

                     25                     26                     27
                      A                      A                      A
 Frequencies --   1118.5579              1134.4144              1188.4320
 Red. masses --      1.8711                 4.0112                 1.2145
 Frc consts  --      1.3793                 3.0414                 1.0106
 IR Inten    --      0.7843                64.5116                27.2569

                     28                     29                     30
                      A                      A                      A
 Frequencies --   1236.1102              1250.4036              1272.4647
 Red. masses --      1.2254                 1.2749                 1.3235
 Frc consts  --      1.1031                 1.1745                 1.2626
 IR Inten    --      0.6597                 2.9163                 6.9464

                     31                     32                     33
                      A                      A                      A
 Frequencies --   1305.4486              1326.3201              1357.3360
 Red. masses --      1.2100                 1.2684                 1.3049
 Frc consts  --      1.2149                 1.3146                 1.4165
 IR Inten    --      1.6286                10.9314                 4.2099

                     34                     35                     36
                      A                      A                      A
 Frequencies --   1367.6965              1394.7372              1397.5643
 Red. masses --      1.3542                 1.2854                 1.4041
 Frc consts  --      1.4925                 1.4732                 1.6158
 IR Inten    --      1.9517                 5.3586                 4.5852

                     37                     38                     39
                      A                      A                      A
 Frequencies --   1414.4980              1503.6414              1507.5216
 Red. masses --      1.2440                 1.0825                 1.0819
 Frc consts  --      1.4665                 1.4420                 1.4486
 IR Inten    --     44.2818                 1.4465                 0.6083

                     40                     41                     42
                      A                      A                      A
 Frequencies --   1522.4011              2235.8695              2978.9695
 Red. masses --      1.1014                 5.9647                 1.0706
 Frc consts  --      1.5040                17.5683                 5.5979
 IR Inten    --      2.7426                 5.7831                37.1836

                     43                     44                     45
                      A                      A                      A
 Frequencies --   2985.1042              2985.9196              3024.9622
 Red. masses --      1.0694                 1.0690                 1.0818
 Frc consts  --      5.6147                 5.6154                 5.8323
 IR Inten    --     91.9895                20.8804                16.5537

                     46                     47                     48
                      A                      A                      A
 Frequencies --   3053.4156              3073.1048              3109.3269
 Red. masses --      1.0869                 1.0938                 1.0939
 Frc consts  --      5.9704                 6.0863                 6.2312
 IR Inten    --      3.4612                41.3810                27.5180

                     49                     50                     51
                      A                      A                      A
 Frequencies --   3112.6542              3503.7241              3812.2984
 Red. masses --      1.0941                 1.1614                 1.0661
 Frc consts  --      6.2455                 8.4006                 9.1293
 IR Inten    --     16.0452                74.0106                19.8376

 - Thermochemistry -
 -------------------
 Temperature   298.150 Kelvin.  Pressure   1.00000 Atm.
 Atom     1 has atomic number  8 and mass  15.99491

 Molecular mass:   126.06808 amu.
 Principal axes and moments of inertia in atomic units:
                           1         2         3
     Eigenvalues --   820.267941434.733172036.95963
           X            0.99992  -0.01245   0.00117
           Y            0.01244   0.99991   0.00429
           Z           -0.00123  -0.00428   0.99999
 This molecule is an asymmetric top.
 Rotational symmetry number  1.
 Warning -- assumption of classical behavior for rotation
           may cause significant error
 Rotational temperatures (Kelvin)      0.10559     0.06037     0.04252
 Rotational constants (GHZ):           2.20018     1.25789     0.88600
 Zero-point vibrational energy     417347.9 (Joules/Mol)
                                   99.74854 (Kcal/Mol)
 Warning -- explicit consideration of  12 degrees of freedom as
           vibrations may cause significant error
 Vibrational temperatures:     41.57   158.93   226.59   249.81   311.43
          (Kelvin)            429.69   459.49   513.62   600.40   729.51
                              784.70   853.13   906.98   912.13   997.54
                             1234.44  1302.36  1336.65  1385.86  1462.49
                             1498.18  1510.65  1545.00  1558.16  1609.35
                             1632.17  1709.89  1778.48  1799.05  1830.79
                             1878.25  1908.28  1952.90  1967.81  2006.71
                             2010.78  2035.14  2163.40  2168.98  2190.39
                             3216.91  4286.07  4294.89  4296.07  4352.24
                             4393.18  4421.51  4473.62  4478.41  5041.07
                             5485.04

 Zero-point correction=                           0.158959 (Hartree/Particle)
 Thermal correction to Energy=                    0.168133
 Thermal correction to Enthalpy=                  0.169077
 Thermal correction to Gibbs Free Energy=         0.124087
 Sum of electronic and zero-point Energies=           -422.987485
 Sum of electronic and thermal Energies=              -422.978311
 Sum of electronic and thermal Enthalpies=            -422.977367
 Sum of electronic and thermal Free Energies=         -423.022357

                     E (Thermal)             CV                S
                      KCal/Mol        Cal/Mol-Kelvin    Cal/Mol-Kelvin
 Total                  105.505             33.837             94.690
 Electronic               0.000              0.000              0.000
 Translational            0.889              2.981             40.409
 Rotational               0.889              2.981             29.262
 Vibrational            103.728             27.876             25.019
 Vibration     1          0.593              1.984              5.904
 Vibration     2          0.606              1.941              3.261
 Vibration     3          0.621              1.894              2.580
 Vibration     4          0.627              1.875              2.396
 Vibration     5          0.645              1.816              1.989
 Vibration     6          0.692              1.676              1.424
 Vibration     7          0.705              1.637              1.313
 Vibration     8          0.732              1.561              1.135
 Vibration     9          0.780              1.433              0.901
 Vibration    10          0.862              1.234              0.641
 Vibration    11          0.901              1.150              0.554
 Vibration    12          0.951              1.047              0.462

 Optimization completed.
    -- Stationary point found.
 Normal termination of Gaussian 09 at Tue Jan 28 12:39:32 2020.
