 Gaussian 09, Revision D.01,
 Gaussian 09:  ES64L-G09RevD.01 24-Apr-2013

 -----------------------------
 # b3lyp 6-31G(2df,p) opt Freq
 -----------------------------

 -----
 titel
 -----
 Symbolic Z-matrix:
 Charge =  0 Multiplicity = 1

 SCF Done:  E(RB3LYP) =  -423.205781389     A.U. after   14 cycles
 Optimization completed.
    -- Stationary point found.
 Normal termination of Gaussian 09 at Mon Jan 27 11:16:12 2020.

 ----------------------------------------------------------------------
 #N Geom=AllCheck Guess=TCheck SCRF=Check GenChk RB3LYP/6-31G(2df,p) Fr
 eq
 ----------------------------------------------------------------------

 Structure from the checkpoint file:  "/scratch/puck/g09_34af3877-18a8-4158-97fd-af8cc4775870/Gau-22671.chk"
 -----
 titel
 -----
 Charge =  0 Multiplicity = 1

                         Standard orientation:
 ---------------------------------------------------------------------
 Center     Atomic      Atomic             Coordinates (Angstroms)
 Number     Number       Type             X           Y           Z
 ---------------------------------------------------------------------
      1          6           0       -3.696775   -0.162774   -0.323347
      2          8           0       -2.312557   -0.057497   -0.555373
      3          6           0       -1.553167   -0.243469    0.627356
      4          6           0       -0.109192   -0.055652    0.341956
      5          6           0        0.932211   -0.919903    0.204888
      6          6           0        2.101978   -0.131194   -0.069542
      7          6           0        3.499033   -0.617749   -0.299370
      8          6           0        1.663355    1.156879   -0.074062
      9          8           0        0.329425    1.224718    0.176747
     10          1           0       -4.050486    0.591232    0.398376
     11          1           0       -4.200327   -0.000216   -1.279170
     12          1           0       -3.975453   -1.157930    0.060193
     13          1           0       -1.881016    0.472244    1.399955
     14          1           0       -1.705394   -1.257192    1.031304
     15          1           0        0.878440   -1.995431    0.284490
     16          1           0        4.181708    0.216075   -0.485463
     17          1           0        3.879297   -1.172667    0.565888
     18          1           0        3.553327   -1.291397   -1.162050
     19          1           0        2.160302    2.100686   -0.231795
 ---------------------------------------------------------------------

 SCF Done:  E(RB3LYP) =  -423.205781389     A.U. after    1 cycles

 The electronic state is 1-A.
 Alpha  occ. eigenvalues --  -19.19408 -19.13748 -10.23520 -10.22453 -10.22226
 Alpha  occ. eigenvalues --  -10.21857 -10.18389 -10.18261 -10.17400  -1.09847
 Alpha  occ. eigenvalues --   -1.02989  -0.80423  -0.77409  -0.70994  -0.68635
 Alpha  occ. eigenvalues --   -0.64100  -0.57964  -0.54052  -0.50900  -0.48548
 Alpha  occ. eigenvalues --   -0.46952  -0.45364  -0.43767  -0.41707  -0.40734
 Alpha  occ. eigenvalues --   -0.40445  -0.38756  -0.38027  -0.36930  -0.34399
 Alpha  occ. eigenvalues --   -0.31881  -0.26184  -0.25362  -0.21629
 Alpha virt. eigenvalues --    0.01568   0.07017   0.09993   0.11267   0.12618
 Alpha virt. eigenvalues --    0.13960   0.14989   0.15991   0.16356   0.16500
 Alpha virt. eigenvalues --    0.17303   0.18606   0.19027   0.20628   0.22001

 Mulliken charges:
               1
     1  C   -0.220497
     2  O   -0.230851
     3  C   -0.183647
     4  C    0.382420
     5  C   -0.376805
     6  C    0.265624
     7  C   -0.501088
     8  C   -0.109210
     9  O   -0.176925
    10  H    0.103420
    11  H    0.128679
    12  H    0.100816
    13  H    0.099576
    14  H    0.098391
    15  H    0.106699
    16  H    0.124453
    17  H    0.129115
    18  H    0.130942
    19  H    0.128890
 Sum of Mulliken charges =   0.00000

 Dipole moment (field-independent basis, Debye):
    X=              0.1284    Y=             -0.7638    Z=              0.8714  Tot=              1.1659
 Quadrupole moment (field-independent basis, Debye-Ang):
   XX=            -44.3196   YY=            -51.2632   ZZ=            -54.8729
   XY=              1.3719   XZ=             -2.3905   YZ=             -0.6602

  Exact polarizability: 112.915  -0.887  77.395  -4.617  -1.570  54.447
 Approx polarizability: 139.343  -4.501 128.931  -7.852  -2.902  83.270

                      1                      2                      3
                      A                      A                      A
 Frequencies --     49.9538                84.4213               100.6001
 Red. masses --      3.1769                 2.5427                 2.8421
 Frc consts  --      0.0047                 0.0107                 0.0169
 IR Inten    --      0.1697                 3.8008                 2.0163

                      4                      5                      6
                      A                      A                      A
 Frequencies --    131.8354               227.6463               244.4969
 Red. masses --      1.1118                 1.5158                 2.4689
 Frc consts  --      0.0114                 0.0463                 0.0870
 IR Inten    --      0.1757                 0.6984                 1.4636

                      7                      8                      9
                      A                      A                      A
 Frequencies --    258.4885               339.9916               368.2962
 Red. masses --      2.2497                 3.2554                 3.1402
 Frc consts  --      0.0886                 0.2217                 0.2510
 IR Inten    --      1.7223                 0.7583                 0.0781

                     10                     11                     12
                      A                      A                      A
 Frequencies --    403.5560               619.5224               627.0635
 Red. masses --      3.9081                 4.1154                 2.8498
 Frc consts  --      0.3750                 0.9306                 0.6602
 IR Inten    --      0.7414                 2.5077                 7.0270

                     13                     14                     15
                      A                      A                      A
 Frequencies --    687.2320               754.1855               791.8578
 Red. masses --      4.9477                 1.3660                 3.4748
 Frc consts  --      1.3768                 0.4578                 1.2837
 IR Inten    --      1.3689                 7.8781                13.7566

                     16                     17                     18
                      A                      A                      A
 Frequencies --    825.8787               942.7049               979.0162
 Red. masses --      1.4244                 2.8189                 4.2239
 Frc consts  --      0.5724                 1.4760                 2.3853
 IR Inten    --     28.0324                32.4685                26.7085

                     19                     20                     21
                      A                      A                      A
 Frequencies --    987.0684              1010.5828              1020.7407
 Red. masses --      2.1530                 1.8887                 2.2260
 Frc consts  --      1.2359                 1.1365                 1.3665
 IR Inten    --      3.8704                 8.6053                 1.0454

                     22                     23                     24
                      A                      A                      A
 Frequencies --   1065.4018              1138.8233              1166.6443
 Red. masses --      1.4672                 5.3260                 2.2317
 Frc consts  --      0.9812                 4.0697                 1.7896
 IR Inten    --      1.5471               154.5667                 2.6318

                     25                     26                     27
                      A                      A                      A
 Frequencies --   1175.1515              1182.8274              1218.9632
 Red. masses --      2.3994                 1.4121                 1.5822
 Frc consts  --      1.9523                 1.1640                 1.3851
 IR Inten    --     67.7350                 2.9265                31.4936

                     28                     29                     30
                      A                      A                      A
 Frequencies --   1230.6929              1273.9525              1312.1516
 Red. masses --      1.7167                 1.1946                 2.6508
 Frc consts  --      1.5319                 1.1423                 2.6890
 IR Inten    --      2.2404                 0.6931                13.1668

                     31                     32                     33
                      A                      A                      A
 Frequencies --   1399.1248              1412.8044              1421.4432
 Red. masses --      2.4248                 1.6207                 1.3368
 Frc consts  --      2.7967                 1.9060                 1.5914
 IR Inten    --     19.9631                60.4346                 0.2226

                     34                     35                     36
                      A                      A                      A
 Frequencies --   1477.4084              1483.2036              1485.1419
 Red. masses --      1.1622                 1.0428                 1.0494
 Frc consts  --      1.4946                 1.3516                 1.3637
 IR Inten    --      1.2720                 4.6700                 4.6306

                     37                     38                     39
                      A                      A                      A
 Frequencies --   1495.3174              1498.9393              1515.7162
 Red. masses --      1.0784                 1.0959                 1.0755
 Frc consts  --      1.4207                 1.4507                 1.4557
 IR Inten    --      4.3299                 4.2001                 3.3712

                     40                     41                     42
                      A                      A                      A
 Frequencies --   1583.1204              1665.4045              2957.0823
 Red. masses --      5.8415                 6.3440                 1.0491
 Frc consts  --      8.6259                10.3670                 5.4048
 IR Inten    --      9.1528                 1.0023                25.7552

                     43                     44                     45
                      A                      A                      A
 Frequencies --   2968.5593              2996.4990              3007.0077
 Red. masses --      1.0461                 1.1008                 1.1032
 Frc consts  --      5.4313                 5.8237                 5.8775
 IR Inten    --     91.2571                62.9093                40.8541

                     46                     47                     48
                      A                      A                      A
 Frequencies --   3029.0318              3079.5961              3109.8040
 Red. masses --      1.0371                 1.1000                 1.0997
 Frc consts  --      5.6061                 6.1465                 6.2659
 IR Inten    --     37.9615                19.3978                17.5327

                     49                     50                     51
                      A                      A                      A
 Frequencies --   3115.9703              3246.0911              3268.5160
 Red. masses --      1.0953                 1.0968                 1.0978
 Frc consts  --      6.2656                 6.8092                 6.9097
 IR Inten    --     28.1892                 2.6908                 0.8202

 - Thermochemistry -
 -------------------
 Temperature   298.150 Kelvin.  Pressure   1.00000 Atm.
 Atom     1 has atomic number  6 and mass  12.00000

 Molecular mass:   126.06808 amu.
 Principal axes and moments of inertia in atomic units:
                           1         2         3
     Eigenvalues --   330.303772332.188312509.81511
           X            0.99996  -0.00359  -0.00822
           Y            0.00346   0.99987  -0.01577
           Z            0.00827   0.01574   0.99984
 This molecule is an asymmetric top.
 Rotational symmetry number  1.
 Rotational temperatures (Kelvin)      0.26222     0.03714     0.03451
 Rotational constants (GHZ):           5.46388     0.77384     0.71907
 Zero-point vibrational energy     415316.7 (Joules/Mol)
                                   99.26307 (Kcal/Mol)
 Warning -- explicit consideration of  11 degrees of freedom as
           vibrations may cause significant error
 Vibrational temperatures:     71.87   121.46   144.74   189.68   327.53
          (Kelvin)            351.78   371.91   489.17   529.90   580.63
                              891.35   902.20   988.77  1085.10  1139.31
                             1188.25  1356.34  1408.58  1420.17  1454.00
                             1468.62  1532.87  1638.51  1678.54  1690.78
                             1701.82  1753.81  1770.69  1832.93  1887.89
                             2013.03  2032.71  2045.14  2125.66  2134.00
                             2136.79  2151.43  2156.64  2180.77  2277.75
                             2396.14  4254.58  4271.09  4311.29  4326.41
                             4358.10  4430.85  4474.31  4483.18  4670.40
                             4702.66

 Zero-point correction=                           0.158186 (Hartree/Particle)
 Thermal correction to Energy=                    0.167603
 Thermal correction to Enthalpy=                  0.168547
 Thermal correction to Gibbs Free Energy=         0.123015
 Sum of electronic and zero-point Energies=           -423.047596
 Sum of electronic and thermal Energies=              -423.038178
 Sum of electronic and thermal Enthalpies=            -423.037234
 Sum of electronic and thermal Free Energies=         -423.082767

                     E (Thermal)             CV                S
                      KCal/Mol        Cal/Mol-Kelvin    Cal/Mol-Kelvin
 Total                  105.173             33.237             95.831
 Electronic               0.000              0.000              0.000
 Translational            0.889              2.981             40.409
 Rotational               0.889              2.981             29.049
 Vibrational            103.395             27.275             26.374
 Vibration     1          0.595              1.978              4.819
 Vibration     2          0.601              1.960              3.785
 Vibration     3          0.604              1.949              3.443
 Vibration     4          0.612              1.922              2.919
 Vibration     5          0.651              1.799              1.897
 Vibration     6          0.660              1.772              1.770
 Vibration     7          0.667              1.748              1.672
 Vibration     8          0.720              1.596              1.212
 Vibration     9          0.741              1.537              1.087
 Vibration    10          0.769              1.462              0.950
 Vibration    11          0.979              0.991              0.417

 Normal termination of Gaussian 09 at Mon Jan 27 11:55:28 2020.
