 Gaussian 09, Revision D.01,
 Gaussian 09:  ES64L-G09RevD.01 24-Apr-2013

 -----------------------------
 # b3lyp 6-31G(2df,p) opt Freq
 -----------------------------

 -----
 titel
 -----
 Symbolic Z-matrix:
 Charge =  0 Multiplicity = 1

 SCF Done:  E(RB3LYP) =  -423.120694747     A.U. after   13 cycles
 Optimization completed.
    -- Stationary point found.
 Normal termination of Gaussian 09 at Tue Jan 28 10:01:29 2020.

 ----------------------------------------------------------------------
 #N Geom=AllCheck Guess=TCheck SCRF=Check GenChk RB3LYP/6-31G(2df,p) Fr
 eq
 ----------------------------------------------------------------------

 Structure from the checkpoint file:  "/scratch/puck/g09_2384690c-969e-4f6d-8711-58a47fe3ad7c/Gau-19395.chk"
 -----
 titel
 -----
 Charge =  0 Multiplicity = 1

                         Standard orientation:
 ---------------------------------------------------------------------
 Center     Atomic      Atomic             Coordinates (Angstroms)
 Number     Number       Type             X           Y           Z
 ---------------------------------------------------------------------
      1          8           0        2.845198   -0.702301   -0.629852
      2          6           0        2.166728   -0.166214    0.500281
      3          6           0        0.737558    0.191737    0.224672
      4          6           0        0.212187    1.433513   -0.510614
      5          6           0       -1.169415    1.070779    0.086030
      6          6           0       -0.422668    0.213736    1.194776
      7          6           0       -0.358649   -0.877593    0.138502
      8          6           0       -1.540198   -0.269240   -0.615832
      9          8           0       -2.793798   -0.801618   -0.252252
     10          1           0        2.830293   -0.034981   -1.323265
     11          1           0        2.214694   -0.945188    1.269538
     12          1           0        2.697696    0.714466    0.897389
     13          1           0        0.626410    2.348945   -0.075862
     14          1           0        0.286586    1.481030   -1.604583
     15          1           0       -1.940912    1.819947    0.252530
     16          1           0       -0.443220    0.187695    2.274960
     17          1           0       -0.120602   -1.926719    0.265102
     18          1           0       -1.525018   -0.272669   -1.711082
     19          1           0       -2.790381   -0.921482    0.705224
 ---------------------------------------------------------------------

 SCF Done:  E(RB3LYP) =  -423.120694748     A.U. after    1 cycles

 The electronic state is 1-A.
 Alpha  occ. eigenvalues --  -19.13400 -19.13382 -10.23240 -10.23122 -10.20162
 Alpha  occ. eigenvalues --  -10.19826 -10.19625 -10.19280 -10.19038  -1.02070
 Alpha  occ. eigenvalues --   -1.01466  -0.92852  -0.73376  -0.71968  -0.66732
 Alpha  occ. eigenvalues --   -0.62612  -0.56072  -0.54042  -0.51751  -0.50236
 Alpha  occ. eigenvalues --   -0.46689  -0.45412  -0.44484  -0.42312  -0.39620
 Alpha  occ. eigenvalues --   -0.37418  -0.36504  -0.35177  -0.32744  -0.31469
 Alpha  occ. eigenvalues --   -0.28211  -0.27411  -0.25777  -0.24509
 Alpha virt. eigenvalues --    0.06186   0.08606   0.10470   0.10836   0.11673
 Alpha virt. eigenvalues --    0.12507   0.13571   0.14031   0.15138   0.16514
 Alpha virt. eigenvalues --    0.17530   0.18763   0.19980   0.20881   0.22192

 Mulliken charges:
               1
     1  O   -0.412166
     2  C   -0.188407
     3  C    0.320461
     4  C   -0.302619
     5  C   -0.106296
     6  C   -0.165931
     7  C   -0.147742
     8  C    0.161385
     9  O   -0.446175
    10  H    0.283364
    11  H    0.108966
    12  H    0.087625
    13  H    0.098046
    14  H    0.087679
    15  H    0.075828
    16  H    0.093184
    17  H    0.094068
    18  H    0.080491
    19  H    0.278239
 Sum of Mulliken charges =   0.00000

 Dipole moment (field-independent basis, Debye):
    X=              0.4555    Y=              1.5980    Z=              1.1776  Tot=              2.0366
 Quadrupole moment (field-independent basis, Debye-Ang):
   XX=            -61.5423   YY=            -53.5982   ZZ=            -49.1486
   XY=              2.5760   XZ=             -3.7742   YZ=             -3.0556

  Exact polarizability:  83.457   1.592  70.541  -0.586  -2.111  70.476
 Approx polarizability: 112.492   2.137 107.129  -3.290  -0.885 111.369

                      1                      2                      3
                      A                      A                      A
 Frequencies --     74.0385               128.0462               213.2398
 Red. masses --      3.3684                 4.6971                 2.9662
 Frc consts  --      0.0109                 0.0454                 0.0795
 IR Inten    --      1.2743                 2.2856                17.1256

                      4                      5                      6
                      A                      A                      A
 Frequencies --    242.4860               301.1788               336.6296
 Red. masses --      1.6884                 1.4993                 1.3602
 Frc consts  --      0.0585                 0.0801                 0.0908
 IR Inten    --     32.4807                56.7623                62.0747

                      7                      8                      9
                      A                      A                      A
 Frequencies --    380.1451               390.6135               459.8124
 Red. masses --      2.7224                 2.2759                 2.6775
 Frc consts  --      0.2318                 0.2046                 0.3335
 IR Inten    --      3.6685                34.4210                 0.4683

                     10                     11                     12
                      A                      A                      A
 Frequencies --    495.8790               676.7928               750.6427
 Red. masses --      4.7937                 3.0372                 3.3961
 Frc consts  --      0.6945                 0.8197                 1.1275
 IR Inten    --      5.9763                 8.5148                 3.0648

                     13                     14                     15
                      A                      A                      A
 Frequencies --    797.5280               835.0554               837.0792
 Red. masses --      2.6472                 1.8945                 1.7422
 Frc consts  --      0.9921                 0.7784                 0.7192
 IR Inten    --      3.0200                11.7454                 2.7885

                     16                     17                     18
                      A                      A                      A
 Frequencies --    882.0497               915.3295               933.0533
 Red. masses --      2.0702                 1.8487                 1.8950
 Frc consts  --      0.9490                 0.9126                 0.9720
 IR Inten    --      8.6091                 6.9528                 6.3587

                     19                     20                     21
                      A                      A                      A
 Frequencies --    953.3768               964.1706               999.1157
 Red. masses --      2.4445                 1.9345                 1.9640
 Frc consts  --      1.3091                 1.0596                 1.1551
 IR Inten    --      3.4288                 9.5652                59.0173

                     22                     23                     24
                      A                      A                      A
 Frequencies --   1022.1906              1036.3867              1055.8894
 Red. masses --      1.8503                 1.9631                 4.0344
 Frc consts  --      1.1391                 1.2423                 2.6502
 IR Inten    --      4.1988                 5.7295                81.7867

                     25                     26                     27
                      A                      A                      A
 Frequencies --   1098.1863              1122.9143              1131.7310
 Red. masses --      2.7333                 1.8231                 1.3949
 Frc consts  --      1.9422                 1.3544                 1.0527
 IR Inten    --     51.8528                23.2656                26.4103

                     28                     29                     30
                      A                      A                      A
 Frequencies --   1145.8884              1181.8574              1201.1963
 Red. masses --      1.7458                 1.4399                 1.5625
 Frc consts  --      1.3506                 1.1850                 1.3283
 IR Inten    --      1.2269                15.3089                 5.4491

                     31                     32                     33
                      A                      A                      A
 Frequencies --   1241.8054              1244.8488              1279.6970
 Red. masses --      1.3783                 1.6271                 1.6612
 Frc consts  --      1.2523                 1.4856                 1.6028
 IR Inten    --      3.6825                33.2658                 7.0041

                     34                     35                     36
                      A                      A                      A
 Frequencies --   1296.7103              1317.4610              1375.1043
 Red. masses --      1.6790                 2.3801                 1.2469
 Frc consts  --      1.6634                 2.4341                 1.3892
 IR Inten    --      7.1754                 2.5120                 3.6715

                     37                     38                     39
                      A                      A                      A
 Frequencies --   1392.1787              1427.7829              1439.1743
 Red. masses --      1.8832                 1.4428                 1.5914
 Frc consts  --      2.1505                 1.7329                 1.9420
 IR Inten    --     16.6309               104.5388                40.3393

                     40                     41                     42
                      A                      A                      A
 Frequencies --   1495.5057              1502.7861              2969.8725
 Red. masses --      1.0982                 1.1391                 1.0702
 Frc consts  --      1.4471                 1.5156                 5.5615
 IR Inten    --      0.5638                 2.0293                65.6495

                     43                     44                     45
                      A                      A                      A
 Frequencies --   3017.0826              3055.0939              3063.5507
 Red. masses --      1.0603                 1.0851                 1.0918
 Frc consts  --      5.6867                 5.9670                 6.0373
 IR Inten    --     49.2313                51.4163                23.9865

                     46                     47                     48
                      A                      A                      A
 Frequencies --   3079.6688              3138.5400              3192.9051
 Red. masses --      1.1036                 1.0913                 1.0912
 Frc consts  --      6.1667                 6.3333                 6.5543
 IR Inten    --     33.6223                31.6392                10.1366

                     49                     50                     51
                      A                      A                      A
 Frequencies --   3217.7142              3781.7431              3818.3773
 Red. masses --      1.0981                 1.0651                 1.0662
 Frc consts  --      6.6985                 8.9744                 9.1592
 IR Inten    --      6.5133                 9.3618                15.7248

 - Thermochemistry -
 -------------------
 Temperature   298.150 Kelvin.  Pressure   1.00000 Atm.
 Atom     1 has atomic number  8 and mass  15.99491

 Molecular mass:   126.06808 amu.
 Principal axes and moments of inertia in atomic units:
                           1         2         3
     Eigenvalues --   488.871461616.851191738.18369
           X            0.99999   0.00401  -0.00002
           Y           -0.00399   0.99649  -0.08360
           Z           -0.00031   0.08360   0.99650
 This molecule is an asymmetric top.
 Rotational symmetry number  1.
 Warning -- assumption of classical behavior for rotation
           may cause significant error
 Rotational temperatures (Kelvin)      0.17717     0.05357     0.04983
 Rotational constants (GHZ):           3.69165     1.11621     1.03829
 Zero-point vibrational energy     418155.3 (Joules/Mol)
                                   99.94151 (Kcal/Mol)
 Warning -- explicit consideration of  10 degrees of freedom as
           vibrations may cause significant error
 Vibrational temperatures:    106.52   184.23   306.80   348.88   433.33
          (Kelvin)            484.33   546.94   562.00   661.57   713.46
                              973.75  1080.01  1147.46  1201.46  1204.37
                             1269.07  1316.95  1342.45  1371.69  1387.22
                             1437.50  1470.70  1491.13  1519.19  1580.04
                             1615.62  1628.31  1648.68  1700.43  1728.25
                             1786.68  1791.06  1841.20  1865.67  1895.53
                             1978.47  2003.03  2054.26  2070.65  2151.70
                             2162.17  4272.98  4340.90  4395.59  4407.76
                             4430.95  4515.65  4593.87  4629.57  5441.08
                             5493.79

 Zero-point correction=                           0.159267 (Hartree/Particle)
 Thermal correction to Energy=                    0.167564
 Thermal correction to Enthalpy=                  0.168508
 Thermal correction to Gibbs Free Energy=         0.126356
 Sum of electronic and zero-point Energies=           -422.961428
 Sum of electronic and thermal Energies=              -422.953130
 Sum of electronic and thermal Enthalpies=            -422.952186
 Sum of electronic and thermal Free Energies=         -422.994339

                     E (Thermal)             CV                S
                      KCal/Mol        Cal/Mol-Kelvin    Cal/Mol-Kelvin
 Total                  105.148             32.304             88.718
 Electronic               0.000              0.000              0.000
 Translational            0.889              2.981             40.409
 Rotational               0.889              2.981             28.709
 Vibrational            103.371             26.343             19.600
 Vibration     1          0.599              1.966              4.043
 Vibration     2          0.611              1.925              2.975
 Vibration     3          0.644              1.821              2.016
 Vibration     4          0.659              1.775              1.785
 Vibration     5          0.693              1.671              1.410
 Vibration     6          0.717              1.602              1.228
 Vibration     7          0.750              1.512              1.039
 Vibration     8          0.758              1.490              0.998
 Vibration     9          0.818              1.339              0.767
 Vibration    10          0.851              1.259              0.669

 Normal termination of Gaussian 09 at Tue Jan 28 10:44:12 2020.
