 Gaussian 09, Revision D.01,
 Gaussian 09:  ES64L-G09RevD.01 24-Apr-2013

 -----------------------------
 # b3lyp 6-31G(2df,p) opt Freq
 -----------------------------

 -----
 titel
 -----
 Symbolic Z-matrix:
 Charge =  0 Multiplicity = 1

 SCF Done:  E(RB3LYP) =  -423.167941371     A.U. after   14 cycles
 Optimization completed.
    -- Stationary point found.
 Normal termination of Gaussian 09 at Tue Jan 28 09:15:52 2020.

 ----------------------------------------------------------------------
 #N Geom=AllCheck Guess=TCheck SCRF=Check GenChk RB3LYP/6-31G(2df,p) Fr
 eq
 ----------------------------------------------------------------------

 Structure from the checkpoint file:  "/scratch/puck/g09_152a4f5b-2f5d-469a-9209-8586d259004b/Gau-82393.chk"
 -----
 titel
 -----
 Charge =  0 Multiplicity = 1

                         Standard orientation:
 ---------------------------------------------------------------------
 Center     Atomic      Atomic             Coordinates (Angstroms)
 Number     Number       Type             X           Y           Z
 ---------------------------------------------------------------------
      1          6           0        3.002352   -0.610731   -0.020731
      2          6           0        1.583637   -0.851254   -0.559524
      3          6           0        0.605907    0.151707   -0.026177
      4          6           0        0.488718    1.650364   -0.371725
      5          6           0       -1.048228    1.570094   -0.078023
      6          6           0       -0.869295    0.091255    0.262769
      7          8           0        0.123972   -0.007806    1.301295
      8          6           0       -1.798511   -1.035840    0.086269
      9          8           0       -2.871527   -0.938202   -0.460532
     10          1           0        3.698653   -1.351196   -0.423896
     11          1           0        3.370383    0.381991   -0.299140
     12          1           0        3.019776   -0.683512    1.070525
     13          1           0        1.584890   -0.795464   -1.654599
     14          1           0        1.246515   -1.856544   -0.287412
     15          1           0        1.077575    2.310774    0.268531
     16          1           0        0.707518    1.865667   -1.420006
     17          1           0       -1.427962    2.185650    0.739543
     18          1           0       -1.662859    1.717223   -0.967053
     19          1           0       -1.421528   -2.000092    0.490263
 ---------------------------------------------------------------------

 SCF Done:  E(RB3LYP) =  -423.167941371     A.U. after    1 cycles

 The electronic state is 1-A.
 Alpha  occ. eigenvalues --  -19.16814 -19.13997 -10.27304 -10.25970 -10.24815
 Alpha  occ. eigenvalues --  -10.20323 -10.19988 -10.19778 -10.18819  -1.09585
 Alpha  occ. eigenvalues --   -1.04527  -0.81523  -0.78819  -0.70849  -0.67199
 Alpha  occ. eigenvalues --   -0.62534  -0.59605  -0.52938  -0.50880  -0.48317
 Alpha  occ. eigenvalues --   -0.47009  -0.45907  -0.43561  -0.42189  -0.40094
 Alpha  occ. eigenvalues --   -0.39582  -0.38018  -0.36815  -0.36287  -0.35583
 Alpha  occ. eigenvalues --   -0.34007  -0.30348  -0.26318  -0.25510
 Alpha virt. eigenvalues --   -0.03762   0.07648   0.10311   0.10584   0.11448
 Alpha virt. eigenvalues --    0.11805   0.13660   0.14191   0.15338   0.15824
 Alpha virt. eigenvalues --    0.16830   0.17850   0.18579   0.19547   0.21082

 Mulliken charges:
               1
     1  C   -0.382152
     2  C   -0.292670
     3  C    0.346407
     4  C   -0.281783
     5  C   -0.298534
     6  C    0.243559
     7  O   -0.309742
     8  C    0.065212
     9  O   -0.262405
    10  H    0.120962
    11  H    0.123816
    12  H    0.137130
    13  H    0.111671
    14  H    0.115425
    15  H    0.116477
    16  H    0.113392
    17  H    0.117900
    18  H    0.131717
    19  H    0.083618
 Sum of Mulliken charges =   0.00000

 Dipole moment (field-independent basis, Debye):
    X=              2.8430    Y=              0.6483    Z=             -0.8298  Tot=              3.0317
 Quadrupole moment (field-independent basis, Debye-Ang):
   XX=            -60.3012   YY=            -50.7168   ZZ=            -54.8041
   XY=             -3.0883   XZ=             -3.5069   YZ=             -0.9368

  Exact polarizability:  96.822   1.935  76.882   1.636  -1.654  61.478
 Approx polarizability: 139.875   5.441 105.462   8.456  -3.229 102.062

                      1                      2                      3
                      A                      A                      A
 Frequencies --     71.8054                92.7152               150.7748
 Red. masses --      2.5092                 5.2566                 3.1943
 Frc consts  --      0.0076                 0.0266                 0.0428
 IR Inten    --      0.4816                 2.8853                 5.1391

                      4                      5                      6
                      A                      A                      A
 Frequencies --    192.7219               208.0896               230.1007
 Red. masses --      1.6319                 2.2989                 1.5012
 Frc consts  --      0.0357                 0.0587                 0.0468
 IR Inten    --      2.6049                 4.1611                 2.2734

                      7                      8                      9
                      A                      A                      A
 Frequencies --    283.4069               345.7771               464.0483
 Red. masses --      2.6227                 1.9952                 3.2975
 Frc consts  --      0.1241                 0.1405                 0.4184
 IR Inten    --      1.8094                 2.7405                 2.8274

                     10                     11                     12
                      A                      A                      A
 Frequencies --    492.4945               510.4819               639.4569
 Red. masses --      5.2727                 4.7310                 3.3127
 Frc consts  --      0.7535                 0.7264                 0.7981
 IR Inten    --     16.8567                 4.5109                 7.3352

                     13                     14                     15
                      A                      A                      A
 Frequencies --    726.6162               760.4999               781.7447
 Red. masses --      4.5417                 2.1347                 1.7344
 Frc consts  --      1.4128                 0.7274                 0.6245
 IR Inten    --      5.5899                 6.2273                 8.1401

                     16                     17                     18
                      A                      A                      A
 Frequencies --    790.0125               854.9551               936.3007
 Red. masses --      1.3125                 3.6577                 2.5135
 Frc consts  --      0.4826                 1.5753                 1.2983
 IR Inten    --      0.4507                46.9430                 0.5653

                     19                     20                     21
                      A                      A                      A
 Frequencies --    952.6893               973.9371              1009.7674
 Red. masses --      2.7925                 2.4830                 1.6405
 Frc consts  --      1.4933                 1.3877                 0.9855
 IR Inten    --      3.3388                 5.0811                 3.5368

                     22                     23                     24
                      A                      A                      A
 Frequencies --   1039.7675              1081.7444              1102.7804
 Red. masses --      1.7332                 2.2332                 1.9593
 Frc consts  --      1.1040                 1.5397                 1.4038
 IR Inten    --      1.4980                 8.6573                 4.7762

                     25                     26                     27
                      A                      A                      A
 Frequencies --   1131.1448              1196.3943              1216.5033
 Red. masses --      1.5390                 1.5947                 1.4606
 Frc consts  --      1.1602                 1.3448                 1.2736
 IR Inten    --     28.8079                 9.0636                 7.2723

                     28                     29                     30
                      A                      A                      A
 Frequencies --   1218.6860              1242.2961              1314.9628
 Red. masses --      1.4700                 1.8420                 1.3881
 Frc consts  --      1.2864                 1.6749                 1.4141
 IR Inten    --      6.1792                 7.2093                 7.1619

                     31                     32                     33
                      A                      A                      A
 Frequencies --   1316.9418              1345.8639              1390.6413
 Red. masses --      2.7750                 1.6030                 1.4624
 Frc consts  --      2.8356                 1.7107                 1.6662
 IR Inten    --      7.6248                14.0135                 4.8642

                     34                     35                     36
                      A                      A                      A
 Frequencies --   1410.2088              1450.7537              1464.8508
 Red. masses --      1.2230                 1.8886                 1.1075
 Frc consts  --      1.4330                 2.3419                 1.4001
 IR Inten    --      1.0213                26.4531                 0.4688

                     37                     38                     39
                      A                      A                      A
 Frequencies --   1474.8372              1491.2177              1498.3933
 Red. masses --      1.1140                 1.3286                 1.0389
 Frc consts  --      1.4276                 1.7407                 1.3743
 IR Inten    --      2.7748                 9.5960                 5.0606

                     40                     41                     42
                      A                      A                      A
 Frequencies --   1509.4232              1801.6351              2902.9771
 Red. masses --      1.1389                10.5133                 1.0835
 Frc consts  --      1.5288                20.1058                 5.3800
 IR Inten    --      7.4115               236.5651                82.1942

                     43                     44                     45
                      A                      A                      A
 Frequencies --   3038.1327              3042.1337              3069.5244
 Red. masses --      1.0600                 1.0364                 1.0572
 Frc consts  --      5.7648                 5.6512                 5.8690
 IR Inten    --     12.4336                24.0436                25.1740

                     46                     47                     48
                      A                      A                      A
 Frequencies --   3081.5781              3083.6596              3113.3322
 Red. masses --      1.1001                 1.0597                 1.1016
 Frc consts  --      6.1549                 5.9372                 6.2911
 IR Inten    --      5.3546                21.3266                30.9991

                     49                     50                     51
                      A                      A                      A
 Frequencies --   3120.6554              3124.1473              3146.3286
 Red. masses --      1.1029                 1.1089                 1.1076
 Frc consts  --      6.3280                 6.3768                 6.4604
 IR Inten    --     21.0461                 7.2565                17.4334

 - Thermochemistry -
 -------------------
 Temperature   298.150 Kelvin.  Pressure   1.00000 Atm.
 Atom     1 has atomic number  6 and mass  12.00000

 Molecular mass:   126.06808 amu.
 Principal axes and moments of inertia in atomic units:
                           1         2         3
     Eigenvalues --   623.747681536.352471839.40524
           X            0.99940  -0.03330  -0.00943
           Y            0.03314   0.99931  -0.01665
           Z            0.00998   0.01633   0.99982
 This molecule is an asymmetric top.
 Rotational symmetry number  1.
 Warning -- assumption of classical behavior for rotation
           may cause significant error
 Rotational temperatures (Kelvin)      0.13886     0.05638     0.04709
 Rotational constants (GHZ):           2.89338     1.17469     0.98115
 Zero-point vibrational energy     412053.2 (Joules/Mol)
                                   98.48307 (Kcal/Mol)
 Warning -- explicit consideration of  11 degrees of freedom as
           vibrations may cause significant error
 Vibrational temperatures:    103.31   133.40   216.93   277.28   299.39
          (Kelvin)            331.06   407.76   497.50   667.66   708.59
                              734.47   920.03  1045.44  1094.19  1124.75
                             1136.65  1230.09  1347.13  1370.71  1401.28
                             1452.83  1495.99  1556.39  1586.65  1627.46
                             1721.34  1750.27  1753.42  1787.38  1891.94
                             1894.78  1936.40  2000.82  2028.97  2087.31
                             2107.59  2121.96  2145.53  2155.85  2171.72
                             2592.15  4176.73  4371.19  4376.95  4416.36
                             4433.70  4436.69  4479.39  4489.92  4494.95
                             4526.86

 Zero-point correction=                           0.156943 (Hartree/Particle)
 Thermal correction to Energy=                    0.166072
 Thermal correction to Enthalpy=                  0.167016
 Thermal correction to Gibbs Free Energy=         0.122744
 Sum of electronic and zero-point Energies=           -423.010999
 Sum of electronic and thermal Energies=              -423.001869
 Sum of electronic and thermal Enthalpies=            -423.000925
 Sum of electronic and thermal Free Energies=         -423.045198

                     E (Thermal)             CV                S
                      KCal/Mol        Cal/Mol-Kelvin    Cal/Mol-Kelvin
 Total                  104.212             33.451             93.179
 Electronic               0.000              0.000              0.000
 Translational            0.889              2.981             40.409
 Rotational               0.889              2.981             28.957
 Vibrational            102.434             27.489             23.814
 Vibration     1          0.598              1.967              4.103
 Vibration     2          0.602              1.954              3.602
 Vibration     3          0.618              1.902              2.662
 Vibration     4          0.635              1.850              2.201
 Vibration     5          0.641              1.828              2.060
 Vibration     6          0.652              1.795              1.878
 Vibration     7          0.682              1.704              1.513
 Vibration     8          0.724              1.584              1.185
 Vibration     9          0.822              1.330              0.754
 Vibration    10          0.848              1.267              0.677
 Vibration    11          0.866              1.227              0.632

 Optimization completed.
    -- Stationary point found.
 Normal termination of Gaussian 09 at Tue Jan 28 10:06:34 2020.
