 Gaussian 09, Revision D.01,
 Gaussian 09:  ES64L-G09RevD.01 24-Apr-2013

 -----------------------------
 # b3lyp 6-31G(2df,p) opt Freq
 -----------------------------

 -----
 titel
 -----
 Symbolic Z-matrix:
 Charge =  0 Multiplicity = 1

 SCF Done:  E(RB3LYP) =  -423.142541654     A.U. after   14 cycles
 Optimization completed.
    -- Stationary point found.
 Normal termination of Gaussian 09 at Mon Jan 27 23:10:59 2020.

 ----------------------------------------------------------------------
 #N Geom=AllCheck Guess=TCheck SCRF=Check GenChk RB3LYP/6-31G(2df,p) Fr
 eq
 ----------------------------------------------------------------------

 Structure from the checkpoint file:  "/scratch/puck/g09_2377079d-c09c-48a1-b8c9-fb0577e7ec0e/Gau-79897.chk"
 -----
 titel
 -----
 Charge =  0 Multiplicity = 1

                         Standard orientation:
 ---------------------------------------------------------------------
 Center     Atomic      Atomic             Coordinates (Angstroms)
 Number     Number       Type             X           Y           Z
 ---------------------------------------------------------------------
      1          6           0        2.262114   -0.676146   -0.730780
      2          6           0        0.921691   -0.380177   -0.111976
      3          6           0        0.058526   -1.382678    0.680438
      4          6           0       -0.703086   -0.122003    1.167402
      5          6           0        0.655041    0.698183    0.967466
      6          8           0        0.450489    1.739255   -0.002264
      7          6           0       -0.043606    0.649440   -0.836676
      8          6           0       -1.388291    0.355351   -0.125038
      9          8           0       -2.200356   -0.652677   -0.690375
     10          1           0        2.159256   -1.331535   -1.603394
     11          1           0        2.749402    0.248234   -1.058629
     12          1           0        2.926483   -1.175842   -0.017540
     13          1           0       -0.513484   -2.145754    0.152953
     14          1           0        0.651561   -1.837977    1.479880
     15          1           0       -1.276768   -0.107323    2.091627
     16          1           0        1.285849    0.953944    1.818150
     17          1           0       -0.020064    0.855909   -1.907875
     18          1           0       -1.940646    1.292767    0.012263
     19          1           0       -2.596988   -0.296867   -1.491336
 ---------------------------------------------------------------------

 SCF Done:  E(RB3LYP) =  -423.142541654     A.U. after    1 cycles

 The electronic state is 1-A.
 Alpha  occ. eigenvalues --  -19.14163 -19.13383 -10.23297 -10.23180 -10.23021
 Alpha  occ. eigenvalues --  -10.19534 -10.18775 -10.17709 -10.17693  -1.05464
 Alpha  occ. eigenvalues --   -1.02142  -0.85064  -0.74201  -0.70760  -0.65109
 Alpha  occ. eigenvalues --   -0.63752  -0.55796  -0.53527  -0.51902  -0.49015
 Alpha  occ. eigenvalues --   -0.46127  -0.44815  -0.41161  -0.40512  -0.40220
 Alpha  occ. eigenvalues --   -0.38471  -0.37371  -0.34892  -0.32658  -0.31683
 Alpha  occ. eigenvalues --   -0.30238  -0.29373  -0.26325  -0.23471
 Alpha virt. eigenvalues --    0.06561   0.09242   0.10550   0.12778   0.12989
 Alpha virt. eigenvalues --    0.14595   0.14969   0.15038   0.16583   0.17040
 Alpha virt. eigenvalues --    0.17898   0.18460   0.19516   0.20071   0.21578

 Mulliken charges:
               1
     1  C   -0.515066
     2  C    0.325875
     3  C   -0.293051
     4  C   -0.122975
     5  C    0.068927
     6  O   -0.297843
     7  C   -0.032648
     8  C    0.148693
     9  O   -0.439332
    10  H    0.119066
    11  H    0.129412
    12  H    0.116254
    13  H    0.117687
    14  H    0.092137
    15  H    0.070093
    16  H    0.083173
    17  H    0.068281
    18  H    0.075527
    19  H    0.285791
 Sum of Mulliken charges =   0.00000

 Dipole moment (field-independent basis, Debye):
    X=             -0.0428    Y=             -0.5308    Z=             -0.6493  Tot=              0.8398
 Quadrupole moment (field-independent basis, Debye-Ang):
   XX=            -51.7277   YY=            -58.5043   ZZ=            -47.7631
   XY=             -3.7133   XZ=              3.6261   YZ=             -0.4661

  Exact polarizability:  78.866  -1.980  69.589   1.089  -1.263  73.239
 Approx polarizability: 106.612   0.972 108.916   3.580  -1.680 110.976

                      1                      2                      3
                      A                      A                      A
 Frequencies --    168.8989               227.3258               257.9519
 Red. masses --      3.6535                 1.0541                 2.2998
 Frc consts  --      0.0614                 0.0321                 0.0902
 IR Inten    --      0.3296                 0.0810                 5.4658

                      4                      5                      6
                      A                      A                      A
 Frequencies --    293.4858               298.3013               348.7710
 Red. masses --      1.2192                 3.0428                 3.0244
 Frc consts  --      0.0619                 0.1595                 0.2168
 IR Inten    --    101.0617                 2.7494                 8.6598

                      7                      8                      9
                      A                      A                      A
 Frequencies --    440.1323               512.9169               546.2318
 Red. masses --      2.1770                 5.2214                 4.5229
 Frc consts  --      0.2485                 0.8093                 0.7951
 IR Inten    --      1.9652                 2.6404                 4.7385

                     10                     11                     12
                      A                      A                      A
 Frequencies --    623.2836               701.6912               744.1832
 Red. masses --      3.6516                 4.5020                 3.9827
 Frc consts  --      0.8358                 1.3060                 1.2995
 IR Inten    --      5.0255                 0.9083                 1.8288

                     13                     14                     15
                      A                      A                      A
 Frequencies --    800.8308               851.3575               867.5905
 Red. masses --      2.6699                 2.4441                 2.3494
 Frc consts  --      1.0089                 1.0437                 1.0419
 IR Inten    --      3.7814                 2.6151                22.3907

                     16                     17                     18
                      A                      A                      A
 Frequencies --    889.0720               916.2261               927.0740
 Red. masses --      2.7562                 2.6596                 1.8596
 Frc consts  --      1.2836                 1.3154                 0.9417
 IR Inten    --      1.2408                13.0358                 3.1600

                     19                     20                     21
                      A                      A                      A
 Frequencies --    961.9325               975.3115              1002.6404
 Red. masses --      3.4970                 2.2866                 1.6525
 Frc consts  --      1.9065                 1.2815                 0.9788
 IR Inten    --     38.2479                20.1691                 5.1452

                     22                     23                     24
                      A                      A                      A
 Frequencies --   1048.1069              1076.3025              1098.1480
 Red. masses --      1.4200                 1.9428                 1.5803
 Frc consts  --      0.9191                 1.3260                 1.1228
 IR Inten    --      0.7812                19.0989                 2.9623

                     25                     26                     27
                      A                      A                      A
 Frequencies --   1127.0691              1150.3822              1160.8143
 Red. masses --      2.5113                 2.0743                 1.8827
 Frc consts  --      1.8795                 1.6174                 1.4947
 IR Inten    --     37.8374                14.7000                 1.1703

                     28                     29                     30
                      A                      A                      A
 Frequencies --   1201.7399              1206.7647              1220.4967
 Red. masses --      1.7792                 1.3602                 1.6596
 Frc consts  --      1.5139                 1.1670                 1.4566
 IR Inten    --      0.3231                 1.7556                46.5337

                     31                     32                     33
                      A                      A                      A
 Frequencies --   1234.0668              1252.5389              1271.4932
 Red. masses --      1.4252                 1.9544                 1.5890
 Frc consts  --      1.2788                 1.8065                 1.5135
 IR Inten    --      4.2969                19.5490                 4.0581

                     34                     35                     36
                      A                      A                      A
 Frequencies --   1317.0251              1331.6982              1362.1591
 Red. masses --      1.4724                 1.5620                 2.3610
 Frc consts  --      1.5048                 1.6321                 2.5811
 IR Inten    --      6.2588                28.7354                 7.4386

                     37                     38                     39
                      A                      A                      A
 Frequencies --   1411.2577              1421.4597              1492.1509
 Red. masses --      1.3776                 1.4926                 1.0754
 Frc consts  --      1.6166                 1.7769                 1.4107
 IR Inten    --      2.7058                 6.5518                 0.7055

                     40                     41                     42
                      A                      A                      A
 Frequencies --   1493.8265              1496.3340              3025.5546
 Red. masses --      1.0510                 1.1110                 1.0353
 Frc consts  --      1.3819                 1.4657                 5.5836
 IR Inten    --      4.8283                 7.5287                30.4882

                     43                     44                     45
                      A                      A                      A
 Frequencies --   3033.2105              3059.0436              3088.6295
 Red. masses --      1.0851                 1.0628                 1.1004
 Frc consts  --      5.8817                 5.8596                 6.1851
 IR Inten    --     44.4333                29.8615                20.4355

                     46                     47                     48
                      A                      A                      A
 Frequencies --   3099.1285              3109.4297              3126.4124
 Red. masses --      1.1009                 1.0906                 1.0910
 Frc consts  --      6.2298                 6.2128                 6.2830
 IR Inten    --     16.1499                47.6344                27.4520

                     49                     50                     51
                      A                      A                      A
 Frequencies --   3136.2360              3141.7984              3824.1154
 Red. masses --      1.1018                 1.0923                 1.0663
 Frc consts  --      6.3854                 6.3527                 9.1873
 IR Inten    --     17.8339                36.1750                25.3667

 - Thermochemistry -
 -------------------
 Temperature   298.150 Kelvin.  Pressure   1.00000 Atm.
 Atom     1 has atomic number  6 and mass  12.00000

 Molecular mass:   126.06808 amu.
 Principal axes and moments of inertia in atomic units:
                           1         2         3
     Eigenvalues --   670.410941063.669481195.05029
           X            0.99833  -0.05633  -0.01266
           Y            0.05608   0.99824  -0.01935
           Z            0.01372   0.01861   0.99973
 This molecule is an asymmetric top.
 Rotational symmetry number  1.
 Warning -- assumption of classical behavior for rotation
           may cause significant error
 Rotational temperatures (Kelvin)      0.12920     0.08143     0.07248
 Rotational constants (GHZ):           2.69199     1.69671     1.51018
 Zero-point vibrational energy     420921.6 (Joules/Mol)
                                  100.60268 (Kcal/Mol)
 Warning -- explicit consideration of   9 degrees of freedom as
           vibrations may cause significant error
 Vibrational temperatures:    243.01   327.07   371.13   422.26   429.19
          (Kelvin)            501.80   633.25   737.97   785.90   896.76
                             1009.58  1070.71  1152.22  1224.91  1248.27
                             1279.17  1318.24  1333.85  1384.00  1403.25
                             1442.57  1507.99  1548.56  1579.99  1621.60
                             1655.14  1670.15  1729.03  1736.26  1756.02
                             1775.54  1802.12  1829.39  1894.90  1916.01
                             1959.84  2030.48  2045.16  2146.87  2149.28
                             2152.89  4353.09  4364.11  4401.28  4443.84
                             4458.95  4473.77  4498.20  4512.34  4520.34
                             5502.04

 Zero-point correction=                           0.160321 (Hartree/Particle)
 Thermal correction to Energy=                    0.167779
 Thermal correction to Enthalpy=                  0.168723
 Thermal correction to Gibbs Free Energy=         0.128973
 Sum of electronic and zero-point Energies=           -422.982221
 Sum of electronic and thermal Energies=              -422.974763
 Sum of electronic and thermal Enthalpies=            -422.973819
 Sum of electronic and thermal Free Energies=         -423.013569

                     E (Thermal)             CV                S
                      KCal/Mol        Cal/Mol-Kelvin    Cal/Mol-Kelvin
 Total                  105.283             30.641             83.661
 Electronic               0.000              0.000              0.000
 Translational            0.889              2.981             40.409
 Rotational               0.889              2.981             28.235
 Vibrational            103.505             24.679             15.018
 Vibration     1          0.625              1.881              2.448
 Vibration     2          0.651              1.799              1.900
 Vibration     3          0.667              1.749              1.676
 Vibration     4          0.688              1.686              1.454
 Vibration     5          0.691              1.677              1.426
 Vibration     6          0.726              1.578              1.172
 Vibration     7          0.800              1.383              0.826
 Vibration     8          0.868              1.221              0.627
 Vibration     9          0.901              1.148              0.552

 Optimization completed.
    -- Stationary point found.
 Normal termination of Gaussian 09 at Mon Jan 27 23:58:20 2020.
