 Gaussian 09, Revision D.01,
 Gaussian 09:  ES64L-G09RevD.01 24-Apr-2013

 -----------------------------
 # b3lyp 6-31G(2df,p) opt Freq
 -----------------------------

 -----
 titel
 -----
 Symbolic Z-matrix:
 Charge =  0 Multiplicity = 1

 SCF Done:  E(RB3LYP) =  -423.165704828     A.U. after   14 cycles
 Optimization completed.
    -- Stationary point found.
 Normal termination of Gaussian 09 at Tue Jan 28 08:13:33 2020.

 ----------------------------------------------------------------------
 #N Geom=AllCheck Guess=TCheck SCRF=Check GenChk RB3LYP/6-31G(2df,p) Fr
 eq
 ----------------------------------------------------------------------

 Structure from the checkpoint file:  "/scratch/puck/g09_b6ac8d22-ced6-4612-9ddb-64d794ab7091/Gau-92074.chk"
 -----
 titel
 -----
 Charge =  0 Multiplicity = 1

                         Standard orientation:
 ---------------------------------------------------------------------
 Center     Atomic      Atomic             Coordinates (Angstroms)
 Number     Number       Type             X           Y           Z
 ---------------------------------------------------------------------
      1          8           0        2.417265   -1.530413   -0.018898
      2          6           0        2.465962   -0.133123   -0.237880
      3          6           0        1.148596    0.618356    0.000042
      4          8           0        1.171650    1.807454    0.249275
      5          6           0       -0.109629   -0.162235   -0.118056
      6          6           0       -1.312750    0.620917   -0.623865
      7          6           0       -2.495319   -0.333380   -0.822415
      8          6           0       -2.405153   -0.711865    0.696559
      9          6           0       -1.224899    0.255375    0.835573
     10          1           0        2.322067   -1.681660    0.926768
     11          1           0        3.244770    0.368047    0.351873
     12          1           0        2.727126    0.000918   -1.295348
     13          1           0        0.003736   -1.208784   -0.381373
     14          1           0       -1.155957    1.586905   -1.086355
     15          1           0       -3.424535    0.187784   -1.062747
     16          1           0       -2.349528   -1.140574   -1.546867
     17          1           0       -3.285800   -0.386907    1.255011
     18          1           0       -2.205108   -1.760295    0.938795
     19          1           0       -0.988946    0.893969    1.677476
 ---------------------------------------------------------------------

 SCF Done:  E(RB3LYP) =  -423.165704828     A.U. after    1 cycles

 The electronic state is 1-A.
 Alpha  occ. eigenvalues --  -19.15203 -19.12266 -10.26387 -10.23688 -10.20159
 Alpha  occ. eigenvalues --  -10.20005 -10.19509 -10.19159 -10.19087  -1.03980
 Alpha  occ. eigenvalues --   -1.02649  -0.90214  -0.74985  -0.71489  -0.65794
 Alpha  occ. eigenvalues --   -0.62626  -0.54471  -0.53714  -0.53021  -0.48621
 Alpha  occ. eigenvalues --   -0.46537  -0.45378  -0.44479  -0.41789  -0.40710
 Alpha  occ. eigenvalues --   -0.38466  -0.37039  -0.34807  -0.34300  -0.33006
 Alpha  occ. eigenvalues --   -0.30200  -0.28051  -0.27220  -0.23700
 Alpha virt. eigenvalues --   -0.01895   0.07227   0.10016   0.11341   0.11440
 Alpha virt. eigenvalues --    0.12706   0.12838   0.14646   0.15892   0.17144
 Alpha virt. eigenvalues --    0.17961   0.19005   0.19883   0.21036   0.23373

 Mulliken charges:
               1
     1  O   -0.402021
     2  C   -0.164189
     3  C    0.297438
     4  O   -0.330092
     5  C   -0.134093
     6  C   -0.026760
     7  C   -0.247783
     8  C   -0.247031
     9  C   -0.033574
    10  H    0.291157
    11  H    0.121153
    12  H    0.140549
    13  H    0.099625
    14  H    0.107134
    15  H    0.110994
    16  H    0.102329
    17  H    0.111101
    18  H    0.099817
    19  H    0.104247
 Sum of Mulliken charges =   0.00000

 Dipole moment (field-independent basis, Debye):
    X=             -0.9472    Y=             -1.5619    Z=              0.6362  Tot=              1.9343
 Quadrupole moment (field-independent basis, Debye-Ang):
   XX=            -50.3561   YY=            -59.6212   ZZ=            -50.1322
   XY=             -1.2209   XZ=              1.8143   YZ=             -3.4485

  Exact polarizability:  94.996   3.921  71.660  -0.204  -0.345  65.547
 Approx polarizability: 118.316   4.126 115.336  -0.431   1.578 102.192

                      1                      2                      3
                      A                      A                      A
 Frequencies --     54.6256                68.3292               135.7710
 Red. masses --      3.2399                 2.2490                 4.4925
 Frc consts  --      0.0057                 0.0062                 0.0488
 IR Inten    --      0.4010                 6.8355                 0.6072

                      4                      5                      6
                      A                      A                      A
 Frequencies --    174.8918               249.2828               281.1621
 Red. masses --      4.3409                 3.9565                 1.8068
 Frc consts  --      0.0782                 0.1449                 0.0842
 IR Inten    --      1.8839                 3.2184                 7.7779

                      7                      8                      9
                      A                      A                      A
 Frequencies --    324.7231               346.8100               482.4006
 Red. masses --      1.2403                 3.6586                 3.4650
 Frc consts  --      0.0771                 0.2593                 0.4751
 IR Inten    --    127.4331                13.1538                 9.7835

                     10                     11                     12
                      A                      A                      A
 Frequencies --    542.1388               635.9615               707.3116
 Red. masses --      4.7972                 3.4865                 3.7532
 Frc consts  --      0.8307                 0.8308                 1.1063
 IR Inten    --     21.5430                 8.2379                 0.9881

                     13                     14                     15
                      A                      A                      A
 Frequencies --    774.2133               835.5603               851.6646
 Red. masses --      1.2164                 2.1068                 3.0037
 Frc consts  --      0.4296                 0.8666                 1.2837
 IR Inten    --      1.8156                18.6455                 7.5169

                     16                     17                     18
                      A                      A                      A
 Frequencies --    868.1923               937.9706               950.3298
 Red. masses --      2.6247                 2.6439                 2.0592
 Frc consts  --      1.1656                 1.3705                 1.0957
 IR Inten    --      4.5849                20.6978                 1.9057

                     19                     20                     21
                      A                      A                      A
 Frequencies --    965.6114               974.3911              1017.8785
 Red. masses --      1.9543                 1.9202                 1.7852
 Frc consts  --      1.0736                 1.0741                 1.0897
 IR Inten    --     23.4553                 7.6229                11.9905

                     22                     23                     24
                      A                      A                      A
 Frequencies --   1020.1379              1074.4833              1092.8322
 Red. masses --      1.6971                 1.1599                 5.3369
 Frc consts  --      1.0406                 0.7890                 3.7553
 IR Inten    --      1.8798                 3.1791                68.3486

                     25                     26                     27
                      A                      A                      A
 Frequencies --   1121.1426              1122.5781              1139.2064
 Red. masses --      1.6539                 1.3941                 1.8428
 Frc consts  --      1.2249                 1.0351                 1.4091
 IR Inten    --      4.2967                14.0434                52.6896

                     28                     29                     30
                      A                      A                      A
 Frequencies --   1194.5350              1203.7476              1219.6185
 Red. masses --      1.3749                 1.5712                 1.1489
 Frc consts  --      1.1559                 1.3414                 1.0069
 IR Inten    --      8.2939                24.6172                 0.0954

                     31                     32                     33
                      A                      A                      A
 Frequencies --   1234.6863              1246.2399              1291.1256
 Red. masses --      1.6010                 1.3635                 1.7685
 Frc consts  --      1.4380                 1.2477                 1.7369
 IR Inten    --      1.4950                 0.1976                 3.1534

                     34                     35                     36
                      A                      A                      A
 Frequencies --   1322.7485              1355.8113              1395.3111
 Red. masses --      1.8374                 1.3329                 1.5541
 Frc consts  --      1.8941                 1.4436                 1.7826
 IR Inten    --     12.5554                 2.6840                77.2783

                     37                     38                     39
                      A                      A                      A
 Frequencies --   1406.6965              1466.2680              1478.8270
 Red. masses --      1.8311                 1.0742                 1.0846
 Frc consts  --      2.1348                 1.3607                 1.3975
 IR Inten    --     93.4754                 3.1006                 0.1679

                     40                     41                     42
                      A                      A                      A
 Frequencies --   1499.0030              1778.7681              3019.1558
 Red. masses --      1.1210                11.4155                 1.0581
 Frc consts  --      1.4840                21.2805                 5.6826
 IR Inten    --      0.7598               127.7125                26.5545

                     43                     44                     45
                      A                      A                      A
 Frequencies --   3049.0697              3056.7223              3065.8322
 Red. masses --      1.0599                 1.0623                 1.1041
 Frc consts  --      5.8055                 5.8478                 6.1145
 IR Inten    --     41.4859                54.1434                15.6737

                     46                     47                     48
                      A                      A                      A
 Frequencies --   3100.1050              3117.8117              3164.0977
 Red. masses --      1.1053                 1.1045                 1.0887
 Frc consts  --      6.2586                 6.3261                 6.4218
 IR Inten    --      0.3897                36.9225                 4.2089

                     49                     50                     51
                      A                      A                      A
 Frequencies --   3192.5168              3203.5114              3820.8925
 Red. masses --      1.0884                 1.0965                 1.0665
 Frc consts  --      6.5357                 6.6300                 9.1734
 IR Inten    --     11.1584                 5.2655                24.5264

 - Thermochemistry -
 -------------------
 Temperature   298.150 Kelvin.  Pressure   1.00000 Atm.
 Atom     1 has atomic number  8 and mass  15.99491

 Molecular mass:   126.06808 amu.
 Principal axes and moments of inertia in atomic units:
                           1         2         3
     Eigenvalues --   577.454141741.623742021.44790
           X            0.99998   0.00574   0.00099
           Y           -0.00572   0.99974  -0.02225
           Z           -0.00112   0.02224   0.99975
 This molecule is an asymmetric top.
 Rotational symmetry number  1.
 Warning -- assumption of classical behavior for rotation
           may cause significant error
 Rotational temperatures (Kelvin)      0.14999     0.04973     0.04285
 Rotational constants (GHZ):           3.12534     1.03624     0.89280
 Zero-point vibrational energy     416496.0 (Joules/Mol)
                                   99.54494 (Kcal/Mol)
 Warning -- explicit consideration of  10 degrees of freedom as
           vibrations may cause significant error
 Vibrational temperatures:     78.59    98.31   195.34   251.63   358.66
          (Kelvin)            404.53   467.20   498.98   694.07   780.02
                              915.01  1017.66  1113.92  1202.18  1225.35
                             1249.13  1349.53  1367.31  1389.30  1401.93
                             1464.50  1467.75  1545.94  1572.34  1613.07
                             1615.14  1639.06  1718.67  1731.92  1754.76
                             1776.44  1793.06  1857.64  1903.14  1950.71
                             2007.54  2023.92  2109.63  2127.70  2156.73
                             2559.25  4343.89  4386.93  4397.94  4411.04
                             4460.35  4485.83  4552.43  4593.31  4609.13
                             5497.41

 Zero-point correction=                           0.158635 (Hartree/Particle)
 Thermal correction to Energy=                    0.167513
 Thermal correction to Enthalpy=                  0.168457
 Thermal correction to Gibbs Free Energy=         0.124138
 Sum of electronic and zero-point Energies=           -423.007070
 Sum of electronic and thermal Energies=              -422.998192
 Sum of electronic and thermal Enthalpies=            -422.997247
 Sum of electronic and thermal Free Energies=         -423.041567

                     E (Thermal)             CV                S
                      KCal/Mol        Cal/Mol-Kelvin    Cal/Mol-Kelvin
 Total                  105.116             32.635             93.278
 Electronic               0.000              0.000              0.000
 Translational            0.889              2.981             40.409
 Rotational               0.889              2.981             29.099
 Vibrational            103.339             26.674             23.771
 Vibration     1          0.596              1.976              4.642
 Vibration     2          0.598              1.969              4.201
 Vibration     3          0.614              1.918              2.863
 Vibration     4          0.627              1.873              2.382
 Vibration     5          0.662              1.764              1.736
 Vibration     6          0.681              1.708              1.527
 Vibration     7          0.709              1.626              1.286
 Vibration     8          0.725              1.582              1.181
 Vibration     9          0.839              1.289              0.704
 Vibration    10          0.897              1.157              0.561

 Optimization completed.
    -- Stationary point found.
 Normal termination of Gaussian 09 at Tue Jan 28 08:53:31 2020.
