 Gaussian 09, Revision D.01,
 Gaussian 09:  ES64L-G09RevD.01 24-Apr-2013

 -----------------------------
 # b3lyp 6-31G(2df,p) opt Freq
 -----------------------------

 -----
 titel
 -----
 Symbolic Z-matrix:
 Charge =  0 Multiplicity = 1

 SCF Done:  E(RB3LYP) =  -423.125015668     A.U. after   13 cycles
 Optimization completed.
    -- Stationary point found.
 Normal termination of Gaussian 09 at Mon Jan 27 23:05:11 2020.

 ----------------------------------------------------------------------
 #N Geom=AllCheck Guess=TCheck SCRF=Check GenChk RB3LYP/6-31G(2df,p) Fr
 eq
 ----------------------------------------------------------------------

 Structure from the checkpoint file:  "/scratch/puck/g09_16034c11-96e3-40b5-b3c8-5bf9f321ec87/Gau-48932.chk"
 -----
 titel
 -----
 Charge =  0 Multiplicity = 1

                         Standard orientation:
 ---------------------------------------------------------------------
 Center     Atomic      Atomic             Coordinates (Angstroms)
 Number     Number       Type             X           Y           Z
 ---------------------------------------------------------------------
      1          8           0       -2.591343    0.396519    0.000000
      2          6           0       -1.212279    0.648716   -0.000002
      3          6           0       -0.414995   -0.244687    0.994495
      4          8           0       -0.585190   -1.318511    0.000002
      5          6           0       -0.414996   -0.244691   -0.994494
      6          6           0        1.112583    0.137400   -1.040305
      7          6           0        1.818065   -0.788844    0.000001
      8          6           0        1.112584    0.137403    1.040304
      9          6           0        1.371576    1.270648   -0.000002
     10          1           0       -2.683565   -0.565449   -0.000001
     11          1           0       -1.101966    1.730136   -0.000005
     12          1           0       -0.853585   -0.502946    1.960614
     13          1           0       -0.853584   -0.502955   -1.960613
     14          1           0        1.499509    0.228380   -2.056470
     15          1           0        1.586847   -1.850387    0.000002
     16          1           0        2.897426   -0.625079    0.000000
     17          1           0        1.499511    0.228385    2.056469
     18          1           0        0.762834    2.173943   -0.000002
     19          1           0        2.423603    1.566250   -0.000003
 ---------------------------------------------------------------------

 SCF Done:  E(RB3LYP) =  -423.125015668     A.U. after    1 cycles

 The electronic state is 1-A.
 Alpha  occ. eigenvalues --  -19.13934 -19.13483 -10.23741 -10.23740 -10.23502
 Alpha  occ. eigenvalues --  -10.19819 -10.19819 -10.18722 -10.18257  -1.06053
 Alpha  occ. eigenvalues --   -1.00519  -0.86111  -0.72497  -0.72098  -0.65349
 Alpha  occ. eigenvalues --   -0.60427  -0.59966  -0.54340  -0.52991  -0.49615
 Alpha  occ. eigenvalues --   -0.46183  -0.44208  -0.43427  -0.40217  -0.38504
 Alpha  occ. eigenvalues --   -0.38093  -0.37130  -0.33914  -0.33884  -0.33414
 Alpha  occ. eigenvalues --   -0.30260  -0.28958  -0.25266  -0.25190
 Alpha virt. eigenvalues --    0.06489   0.08798   0.10701   0.11721   0.11841
 Alpha virt. eigenvalues --    0.13594   0.13795   0.15943   0.16824   0.17105
 Alpha virt. eigenvalues --    0.17420   0.18214   0.20736   0.20782   0.22184

 Mulliken charges:
               1
     1  O   -0.465790
     2  C    0.189810
     3  C    0.027869
     4  O   -0.317687
     5  C    0.027869
     6  C   -0.054105
     7  C   -0.192432
     8  C   -0.054104
     9  C   -0.226711
    10  H    0.285788
    11  H    0.083839
    12  H    0.081311
    13  H    0.081311
    14  H    0.064241
    15  H    0.116386
    16  H    0.092482
    17  H    0.064241
    18  H    0.099492
    19  H    0.096190
 Sum of Mulliken charges =   0.00000

 Dipole moment (field-independent basis, Debye):
    X=              1.5767    Y=              0.4205    Z=              0.0000  Tot=              1.6318
 Quadrupole moment (field-independent basis, Debye-Ang):
   XX=            -56.3452   YY=            -54.8886   ZZ=            -50.5211
   XY=              2.9544   XZ=              0.0000   YZ=              0.0000

  Exact polarizability:  81.843   1.203  67.413   0.000   0.000  70.233
 Approx polarizability: 112.355   1.868 108.193   0.000   0.000 107.869

                      1                      2                      3
                      A                      A                      A
 Frequencies --    260.9551               270.5526               320.2400
 Red. masses --      4.6636                 3.3752                 3.5301
 Frc consts  --      0.1871                 0.1456                 0.2133
 IR Inten    --      6.7906                 0.1897                 0.1272

                      4                      5                      6
                      A                      A                      A
 Frequencies --    454.7714               502.7060               543.2316
 Red. masses --      4.5979                 2.9317                 4.5419
 Frc consts  --      0.5603                 0.4365                 0.7897
 IR Inten    --      5.9307                 0.3116                11.8337

                      7                      8                      9
                      A                      A                      A
 Frequencies --    544.1640               546.6802               611.6303
 Red. masses --      1.1307                 4.0142                 2.1353
 Frc consts  --      0.1973                 0.7068                 0.4706
 IR Inten    --     76.6661                 0.6119                 0.8518

                     10                     11                     12
                      A                      A                      A
 Frequencies --    800.7870               827.6058               832.6778
 Red. masses --      2.7534                 1.8753                 4.2763
 Frc consts  --      1.0403                 0.7568                 1.7469
 IR Inten    --      0.3696                 0.7316                 8.0634

                     13                     14                     15
                      A                      A                      A
 Frequencies --    855.0821               856.0944               880.6491
 Red. masses --      2.6275                 3.5020                 3.3832
 Frc consts  --      1.1319                 1.5122                 1.5459
 IR Inten    --     10.2288                 7.1417                25.4821

                     16                     17                     18
                      A                      A                      A
 Frequencies --    896.1629               896.2383               935.0253
 Red. masses --      2.4195                 2.8029                 2.2474
 Frc consts  --      1.1448                 1.3265                 1.1576
 IR Inten    --     17.2944                11.3169                 0.4055

                     19                     20                     21
                      A                      A                      A
 Frequencies --    935.4712              1000.0974              1017.1151
 Red. masses --      4.1650                 1.6504                 2.8315
 Frc consts  --      2.1475                 0.9726                 1.7259
 IR Inten    --     41.0123                 2.4829                14.5599

                     22                     23                     24
                      A                      A                      A
 Frequencies --   1049.1683              1058.7874              1093.4557
 Red. masses --      2.6819                 1.0445                 2.4370
 Frc consts  --      1.7394                 0.6899                 1.7167
 IR Inten    --     18.4904                 1.5022                62.3162

                     25                     26                     27
                      A                      A                      A
 Frequencies --   1102.5234              1105.4325              1153.5220
 Red. masses --      1.3886                 1.1014                 3.1584
 Frc consts  --      0.9945                 0.7930                 2.4761
 IR Inten    --      0.7281                 1.0206                52.5157

                     28                     29                     30
                      A                      A                      A
 Frequencies --   1186.7407              1209.0585              1233.9460
 Red. masses --      1.4707                 1.5175                 1.3801
 Frc consts  --      1.2203                 1.3070                 1.2381
 IR Inten    --      0.8092                 0.0903                 0.0990

                     31                     32                     33
                      A                      A                      A
 Frequencies --   1236.7797              1242.9689              1255.2616
 Red. masses --      1.3873                 1.3723                 1.6301
 Frc consts  --      1.2502                 1.2491                 1.5133
 IR Inten    --     44.3445                 0.9207                 2.9025

                     34                     35                     36
                      A                      A                      A
 Frequencies --   1298.8437              1312.7319              1313.2974
 Red. masses --      1.4220                 1.4783                 1.4129
 Frc consts  --      1.4134                 1.5009                 1.4358
 IR Inten    --      1.8449                 0.6967                 0.5094

                     37                     38                     39
                      A                      A                      A
 Frequencies --   1317.6008              1345.2856              1453.6401
 Red. masses --      1.5975                 1.4139                 1.2447
 Frc consts  --      1.6340                 1.5076                 1.5497
 IR Inten    --     16.4546                12.1087                59.4008

                     40                     41                     42
                      A                      A                      A
 Frequencies --   1489.9533              1542.5907              3071.3769
 Red. masses --      1.1148                 1.1017                 1.0629
 Frc consts  --      1.4581                 1.5446                 5.9074
 IR Inten    --      1.0192                10.8223                20.3083

                     43                     44                     45
                      A                      A                      A
 Frequencies --   3082.2524              3088.3940              3091.5527
 Red. masses --      1.0717                 1.0885                 1.0810
 Frc consts  --      5.9987                 6.1168                 6.0871
 IR Inten    --      7.1882                 0.6905                60.3971

                     46                     47                     48
                      A                      A                      A
 Frequencies --   3101.1177              3106.4712              3119.9436
 Red. masses --      1.0876                 1.0893                 1.1021
 Frc consts  --      6.1625                 6.1933                 6.3205
 IR Inten    --    145.8457                 3.2762                18.9337

                     49                     50                     51
                      A                      A                      A
 Frequencies --   3152.5437              3170.5754              3767.8848
 Red. masses --      1.0892                 1.1028                 1.0641
 Frc consts  --      6.3778                 6.5319                 8.9011
 IR Inten    --     50.6585                15.0570                23.6430

 - Thermochemistry -
 -------------------
 Temperature   298.150 Kelvin.  Pressure   1.00000 Atm.
 Atom     1 has atomic number  8 and mass  15.99491

 Molecular mass:   126.06808 amu.
 Principal axes and moments of inertia in atomic units:
                           1         2         3
     Eigenvalues --   518.060921158.391601205.19644
           X            0.99994   0.01071   0.00000
           Y           -0.01071   0.99994   0.00000
           Z            0.00000   0.00000   1.00000
 This molecule is an asymmetric top.
 Rotational symmetry number  1.
 Warning -- assumption of classical behavior for rotation
           may cause significant error
 Rotational temperatures (Kelvin)      0.16719     0.07477     0.07187
 Rotational constants (GHZ):           3.48365     1.55797     1.49747
 Zero-point vibrational energy     427914.0 (Joules/Mol)
                                  102.27390 (Kcal/Mol)
 Warning -- explicit consideration of   9 degrees of freedom as
           vibrations may cause significant error
 Vibrational temperatures:    375.46   389.26   460.75   654.31   723.28
          (Kelvin)            781.59   782.93   786.55   880.00  1152.15
                             1190.74  1198.04  1230.27  1231.73  1267.06
                             1289.38  1289.49  1345.29  1345.93  1438.92
                             1463.40  1509.52  1523.36  1573.24  1586.28
                             1590.47  1659.66  1707.45  1739.56  1775.37
                             1779.45  1788.35  1806.04  1868.74  1888.73
                             1889.54  1895.73  1935.56  2091.46  2143.71
                             2219.44  4419.02  4434.67  4443.50  4448.05
                             4461.81  4469.51  4488.90  4535.80  4561.75
                             5421.14

 Zero-point correction=                           0.162984 (Hartree/Particle)
 Thermal correction to Energy=                    0.169348
 Thermal correction to Enthalpy=                  0.170292
 Thermal correction to Gibbs Free Energy=         0.132707
 Sum of electronic and zero-point Energies=           -422.962032
 Sum of electronic and thermal Energies=              -422.955667
 Sum of electronic and thermal Enthalpies=            -422.954723
 Sum of electronic and thermal Free Energies=         -422.992309

                     E (Thermal)             CV                S
                      KCal/Mol        Cal/Mol-Kelvin    Cal/Mol-Kelvin
 Total                  106.268             28.064             79.105
 Electronic               0.000              0.000              0.000
 Translational            0.889              2.981             40.409
 Rotational               0.889              2.981             28.072
 Vibrational            104.490             22.102             10.625
 Vibration     1          0.669              1.744              1.655
 Vibration     2          0.674              1.727              1.593
 Vibration     3          0.706              1.635              1.309
 Vibration     4          0.813              1.350              0.781
 Vibration     5          0.858              1.244              0.651
 Vibration     6          0.898              1.155              0.558
 Vibration     7          0.899              1.152              0.556
 Vibration     8          0.902              1.147              0.551
 Vibration     9          0.971              1.007              0.430

 Optimization completed.
    -- Stationary point found.
 Normal termination of Gaussian 09 at Mon Jan 27 23:58:40 2020.
