 Gaussian 09, Revision D.01,
 Gaussian 09:  ES64L-G09RevD.01 24-Apr-2013

 -----------------------------
 # b3lyp 6-31G(2df,p) opt Freq
 -----------------------------

 -----
 titel
 -----
 Symbolic Z-matrix:
 Charge =  0 Multiplicity = 1

 SCF Done:  E(RB3LYP) =  -423.151007075     A.U. after   15 cycles
 Optimization completed.
    -- Stationary point found.
 Normal termination of Gaussian 09 at Tue Jan 28 08:17:44 2020.

 ----------------------------------------------------------------------
 #N Geom=AllCheck Guess=TCheck SCRF=Check GenChk RB3LYP/6-31G(2df,p) Fr
 eq
 ----------------------------------------------------------------------

 Structure from the checkpoint file:  "/scratch/puck/g09_0577f762-aa0e-4bb2-af7b-176fb1c4e3ba/Gau-8414.chk"
 -----
 titel
 -----
 Charge =  0 Multiplicity = 1

                         Standard orientation:
 ---------------------------------------------------------------------
 Center     Atomic      Atomic             Coordinates (Angstroms)
 Number     Number       Type             X           Y           Z
 ---------------------------------------------------------------------
      1          6           0        2.951373   -1.507305    0.071249
      2          6           0        1.456288   -1.370244   -0.221190
      3          6           0        0.878836   -0.039103    0.290739
      4          8           0        1.540844    1.008867   -0.393013
      5          6           0        1.294924    2.294431    0.140065
      6          6           0       -0.577248    0.010334    0.108410
      7          6           0       -1.776563    0.028317   -0.042369
      8          6           0       -3.201343    0.077453   -0.244139
      9          8           0       -3.988297   -0.709633    0.229855
     10          1           0        3.146947   -1.493138    1.149319
     11          1           0        3.334698   -2.452149   -0.324377
     12          1           0        3.512149   -0.689069   -0.385766
     13          1           0        1.268418   -1.423744   -1.298712
     14          1           0        0.892717   -2.185043    0.244475
     15          1           0        1.081067    0.040577    1.374507
     16          1           0        1.880328    3.000719   -0.452283
     17          1           0        0.232486    2.566841    0.075986
     18          1           0        1.610544    2.361355    1.192510
     19          1           0       -3.537324    0.916472   -0.886987
 ---------------------------------------------------------------------

 SCF Done:  E(RB3LYP) =  -423.151007075     A.U. after    1 cycles

 The electronic state is 1-A.
 Alpha  occ. eigenvalues --  -19.15743 -19.14540 -10.29135 -10.27052 -10.23417
 Alpha  occ. eigenvalues --  -10.21215 -10.19875 -10.19797 -10.18104  -1.05132
 Alpha  occ. eigenvalues --   -1.05099  -0.81701  -0.77492  -0.72163  -0.68261
 Alpha  occ. eigenvalues --   -0.64735  -0.60548  -0.52993  -0.51321  -0.50544
 Alpha  occ. eigenvalues --   -0.47470  -0.44835  -0.44376  -0.42589  -0.41098
 Alpha  occ. eigenvalues --   -0.40404  -0.37713  -0.35754  -0.35465  -0.33796
 Alpha  occ. eigenvalues --   -0.29361  -0.28595  -0.27743  -0.26801
 Alpha virt. eigenvalues --   -0.06332   0.01570   0.08245   0.10447   0.10841
 Alpha virt. eigenvalues --    0.12485   0.13482   0.14142   0.14863   0.15322
 Alpha virt. eigenvalues --    0.16467   0.16803   0.17770   0.19412   0.22415

 Mulliken charges:
               1
     1  C   -0.391492
     2  C   -0.183173
     3  C   -0.082375
     4  O   -0.225428
     5  C   -0.240001
     6  C    0.128847
     7  C    0.033351
     8  C    0.016995
     9  O   -0.228603
    10  H    0.114375
    11  H    0.117215
    12  H    0.138607
    13  H    0.121416
    14  H    0.117372
    15  H    0.100641
    16  H    0.134038
    17  H    0.118304
    18  H    0.108883
    19  H    0.101029
 Sum of Mulliken charges =   0.00000

 Dipole moment (field-independent basis, Debye):
    X=              2.6381    Y=              1.5009    Z=              0.0792  Tot=              3.0362
 Quadrupole moment (field-independent basis, Debye-Ang):
   XX=            -64.5121   YY=            -50.0147   ZZ=            -52.9527
   XY=             -5.9975   XZ=              4.6084   YZ=              1.0912

  Exact polarizability: 121.043   0.761  75.620   3.235  -2.644  58.682
 Approx polarizability: 176.559   9.425 101.851   1.720  -6.051  90.721

                      1                      2                      3
                      A                      A                      A
 Frequencies --     46.2504                67.5951                84.8459
 Red. masses --      4.2790                 3.9007                 2.2944
 Frc consts  --      0.0054                 0.0105                 0.0097
 IR Inten    --      8.2883                 1.2444                 1.6840

                      4                      5                      6
                      A                      A                      A
 Frequencies --    106.6971               132.9801               183.5500
 Red. masses --      2.5681                 2.3547                 1.7776
 Frc consts  --      0.0172                 0.0245                 0.0353
 IR Inten    --      4.4386                 3.2193                 1.5350

                      7                      8                      9
                      A                      A                      A
 Frequencies --    208.2711               227.5941               253.0156
 Red. masses --      1.7048                 2.0382                 2.1788
 Frc consts  --      0.0436                 0.0622                 0.0822
 IR Inten    --      1.7902                 1.2596                 4.2616

                     10                     11                     12
                      A                      A                      A
 Frequencies --    303.2009               330.5783               438.0099
 Red. masses --      2.8180                 3.5308                 4.3373
 Frc consts  --      0.1526                 0.2273                 0.4903
 IR Inten    --      1.4525                 0.3628                 1.1649

                     13                     14                     15
                      A                      A                      A
 Frequencies --    518.7173               560.4192               653.8247
 Red. masses --      3.3503                 6.3137                 7.5782
 Frc consts  --      0.5311                 1.1683                 1.9087
 IR Inten    --      0.2829                10.5363                19.4437

                     16                     17                     18
                      A                      A                      A
 Frequencies --    762.1858               839.1053               912.4343
 Red. masses --      1.4533                 2.7648                 2.2345
 Frc consts  --      0.4974                 1.1470                 1.0961
 IR Inten    --      6.0301                18.2901                14.7900

                     19                     20                     21
                      A                      A                      A
 Frequencies --    945.5751              1021.2430              1045.6343
 Red. masses --      2.1651                 1.7648                 2.9150
 Frc consts  --      1.1406                 1.0844                 1.8778
 IR Inten    --     17.7228                 0.6923                10.0402

                     22                     23                     24
                      A                      A                      A
 Frequencies --   1099.5153              1118.3561              1146.0769
 Red. masses --      2.5329                 2.1231                 3.7085
 Frc consts  --      1.8041                 1.5645                 2.8700
 IR Inten    --     33.9214                39.4374               147.8303

                     25                     26                     27
                      A                      A                      A
 Frequencies --   1154.4170              1184.3270              1225.4276
 Red. masses --      3.3988                 1.2996                 1.5623
 Frc consts  --      2.6687                 1.0740                 1.3822
 IR Inten    --     87.4260                 1.2092                17.4053

                     28                     29                     30
                      A                      A                      A
 Frequencies --   1286.3023              1313.1004              1360.5682
 Red. masses --      1.3787                 1.1711                 1.1966
 Frc consts  --      1.3440                 1.1897                 1.3051
 IR Inten    --     13.0988                 5.9591                42.4114

                     31                     32                     33
                      A                      A                      A
 Frequencies --   1375.9356              1407.6446              1421.6534
 Red. masses --      1.4861                 1.2354                 1.1916
 Frc consts  --      1.6577                 1.4423                 1.4190
 IR Inten    --      4.4984                 0.4588                14.3725

                     34                     35                     36
                      A                      A                      A
 Frequencies --   1476.2048              1480.2679              1486.2006
 Red. masses --      1.0903                 1.1307                 1.0485
 Frc consts  --      1.3998                 1.4597                 1.3645
 IR Inten    --      1.6304                 0.8290                 3.3721

                     37                     38                     39
                      A                      A                      A
 Frequencies --   1495.2230              1508.9866              1509.9243
 Red. masses --      1.0419                 1.0551                 1.0558
 Frc consts  --      1.3724                 1.4155                 1.4182
 IR Inten    --      4.6716                 2.9977                 9.3113

                     40                     41                     42
                      A                      A                      A
 Frequencies --   1767.6245              2316.1213              2918.9997
 Red. masses --     10.5308                11.9575                 1.0816
 Frc consts  --     19.3861                37.7932                 5.4300
 IR Inten    --    256.4015               123.1696                90.9890

                     43                     44                     45
                      A                      A                      A
 Frequencies --   2939.9417              2985.3018              3039.6653
 Red. masses --      1.0791                 1.0388                 1.0389
 Frc consts  --      5.4953                 5.4543                 5.6554
 IR Inten    --     23.8477                53.2131                19.7443

                     46                     47                     48
                      A                      A                      A
 Frequencies --   3042.4934              3051.3790              3090.1442
 Red. masses --      1.0998                 1.0595                 1.1007
 Frc consts  --      5.9984                 5.8121                 6.1927
 IR Inten    --     45.8711                14.2464                 5.5934

                     49                     50                     51
                      A                      A                      A
 Frequencies --   3108.2711              3125.1251              3133.3880
 Red. masses --      1.1012                 1.0977                 1.1011
 Frc consts  --      6.2683                 6.3163                 6.3695
 IR Inten    --     33.7407                23.7484                20.0993

 - Thermochemistry -
 -------------------
 Temperature   298.150 Kelvin.  Pressure   1.00000 Atm.
 Atom     1 has atomic number  6 and mass  12.00000

 Molecular mass:   126.06808 amu.
 Principal axes and moments of inertia in atomic units:
                           1         2         3
     Eigenvalues --   673.725752447.385083023.13242
           X            0.99967  -0.02431   0.00818
           Y            0.02424   0.99967   0.00896
           Z           -0.00839  -0.00876   0.99993
 This molecule is an asymmetric top.
 Rotational symmetry number  1.
 Warning -- assumption of classical behavior for rotation
           may cause significant error
 Rotational temperatures (Kelvin)      0.12856     0.03539     0.02865
 Rotational constants (GHZ):           2.67875     0.73742     0.59698
 Zero-point vibrational energy     407988.3 (Joules/Mol)
                                   97.51154 (Kcal/Mol)
 Warning -- explicit consideration of  14 degrees of freedom as
           vibrations may cause significant error
 Vibrational temperatures:     66.54    97.25   122.07   153.51   191.33
          (Kelvin)            264.09   299.66   327.46   364.03   436.24
                              475.63   630.20   746.32   806.32   940.71
                             1096.61  1207.28  1312.79  1360.47  1469.34
                             1504.43  1581.96  1609.06  1648.95  1660.95
                             1703.98  1763.11  1850.70  1889.26  1957.55
                             1979.66  2025.28  2045.44  2123.93  2129.77
                             2138.31  2151.29  2171.09  2172.44  2543.21
                             3332.38  4199.78  4229.92  4295.18  4373.39
                             4377.46  4390.25  4446.02  4472.10  4496.35
                             4508.24

 Zero-point correction=                           0.155395 (Hartree/Particle)
 Thermal correction to Energy=                    0.166291
 Thermal correction to Enthalpy=                  0.167235
 Thermal correction to Gibbs Free Energy=         0.117874
 Sum of electronic and zero-point Energies=           -422.995613
 Sum of electronic and thermal Energies=              -422.984716
 Sum of electronic and thermal Enthalpies=            -422.983772
 Sum of electronic and thermal Free Energies=         -423.033133

                     E (Thermal)             CV                S
                      KCal/Mol        Cal/Mol-Kelvin    Cal/Mol-Kelvin
 Total                  104.349             36.466            103.888
 Electronic               0.000              0.000              0.000
 Translational            0.889              2.981             40.409
 Rotational               0.889              2.981             29.990
 Vibrational            102.572             30.504             33.490
 Vibration     1          0.595              1.979              4.972
 Vibration     2          0.598              1.970              4.222
 Vibration     3          0.601              1.960              3.776
 Vibration     4          0.606              1.944              3.328
 Vibration     5          0.613              1.920              2.902
 Vibration     6          0.631              1.862              2.292
 Vibration     7          0.642              1.828              2.059
 Vibration     8          0.651              1.799              1.898
 Vibration     9          0.664              1.758              1.709
 Vibration    10          0.695              1.668              1.399
 Vibration    11          0.713              1.614              1.257
 Vibration    12          0.798              1.387              0.833
 Vibration    13          0.874              1.209              0.613
 Vibration    14          0.916              1.117              0.523

 Optimization completed.
    -- Stationary point found.
 Normal termination of Gaussian 09 at Tue Jan 28 08:54:44 2020.
