 Gaussian 09, Revision D.01,
 Gaussian 09:  ES64L-G09RevD.01 24-Apr-2013

 -----------------------------
 # b3lyp 6-31G(2df,p) opt Freq
 -----------------------------

 -----
 titel
 -----
 Symbolic Z-matrix:
 Charge =  0 Multiplicity = 1

 SCF Done:  E(RB3LYP) =  -423.168816459     A.U. after   14 cycles
 Optimization completed.
    -- Stationary point found.
 Normal termination of Gaussian 09 at Mon Jan 27 23:47:13 2020.

 ----------------------------------------------------------------------
 #N Geom=AllCheck Guess=TCheck SCRF=Check GenChk RB3LYP/6-31G(2df,p) Fr
 eq
 ----------------------------------------------------------------------

 Structure from the checkpoint file:  "/scratch/puck/g09_e16c917f-59f5-4d6a-a4bc-de993c5e42d2/Gau-186093.chk"
 -----
 titel
 -----
 Charge =  0 Multiplicity = 1

                         Standard orientation:
 ---------------------------------------------------------------------
 Center     Atomic      Atomic             Coordinates (Angstroms)
 Number     Number       Type             X           Y           Z
 ---------------------------------------------------------------------
      1          6           0        2.355110   -0.811397   -0.119855
      2          6           0        0.875798   -0.620518   -0.439988
      3          6           0        0.498020    0.838798   -0.780686
      4          8           0        0.744920    1.518867    0.487228
      5          6           0       -0.402987    0.781150    0.956546
      6          6           0       -1.038531    0.875419   -0.440333
      7          8           0       -1.818446   -0.258376   -0.720710
      8          6           0       -1.436617   -1.256467    0.252517
      9          6           0       -0.095394   -0.747454    0.782628
     10          1           0        2.550026   -1.827360    0.239088
     11          1           0        2.973974   -0.648268   -1.009263
     12          1           0        2.674844   -0.105299    0.650439
     13          1           0        0.569477   -1.297432   -1.244384
     14          1           0        0.956584    1.327722   -1.640717
     15          1           0       -0.837253    1.145628    1.886392
     16          1           0       -1.555012    1.794126   -0.713210
     17          1           0       -2.207670   -1.323249    1.034355
     18          1           0       -1.365335   -2.226736   -0.248709
     19          1           0        0.296189   -1.280254    1.648891
 ---------------------------------------------------------------------

 SCF Done:  E(RB3LYP) =  -423.168816459     A.U. after    1 cycles

 The electronic state is 1-A.
 Alpha  occ. eigenvalues --  -19.14331 -19.13941 -10.23575 -10.23522 -10.23286
 Alpha  occ. eigenvalues --  -10.23229 -10.19377 -10.19101 -10.17269  -1.06730
 Alpha  occ. eigenvalues --   -1.02759  -0.80936  -0.74377  -0.73350  -0.67387
 Alpha  occ. eigenvalues --   -0.61816  -0.56876  -0.54650  -0.53223  -0.48239
 Alpha  occ. eigenvalues --   -0.47467  -0.45378  -0.42570  -0.40272  -0.40152
 Alpha  occ. eigenvalues --   -0.38190  -0.36674  -0.35183  -0.33877  -0.33697
 Alpha  occ. eigenvalues --   -0.32949  -0.30881  -0.24661  -0.24558
 Alpha virt. eigenvalues --    0.07813   0.09893   0.11166   0.11659   0.13162
 Alpha virt. eigenvalues --    0.14156   0.14616   0.15827   0.16353   0.16596
 Alpha virt. eigenvalues --    0.17530   0.18025   0.18875   0.20036   0.21037

 Mulliken charges:
               1
     1  C   -0.424715
     2  C    0.043521
     3  C    0.018031
     4  O   -0.296678
     5  C    0.053867
     6  C    0.107566
     7  O   -0.278416
     8  C   -0.094683
     9  C   -0.103742
    10  H    0.110422
    11  H    0.111625
    12  H    0.135905
    13  H    0.079103
    14  H    0.075372
    15  H    0.085300
    16  H    0.095563
    17  H    0.096630
    18  H    0.112171
    19  H    0.073158
 Sum of Mulliken charges =   0.00000

 Dipole moment (field-independent basis, Debye):
    X=             -0.0007    Y=             -1.1344    Z=              0.4194  Tot=              1.2094
 Quadrupole moment (field-independent basis, Debye-Ang):
   XX=            -56.3040   YY=            -53.0835   ZZ=            -51.6591
   XY=             -2.2517   XZ=             -4.0108   YZ=             -2.2682

  Exact polarizability:  77.573  -0.618  73.480  -4.498  -2.374  67.722
 Approx polarizability: 106.413   2.844 109.634  -3.212  -1.170 107.017

                      1                      2                      3
                      A                      A                      A
 Frequencies --    183.1443               229.2308               266.1592
 Red. masses --      3.5833                 1.0357                 2.6198
 Frc consts  --      0.0708                 0.0321                 0.1093
 IR Inten    --      0.3013                 0.0728                 2.3261

                      4                      5                      6
                      A                      A                      A
 Frequencies --    309.2815               379.5372               454.4402
 Red. masses --      2.4074                 3.2721                 4.1838
 Frc consts  --      0.1357                 0.2777                 0.5091
 IR Inten    --      2.6230                 2.9395                 4.4865

                      7                      8                      9
                      A                      A                      A
 Frequencies --    568.1189               623.6025               719.4878
 Red. masses --      4.6553                 4.8758                 5.3706
 Frc consts  --      0.8853                 1.1171                 1.6380
 IR Inten    --      5.8593                 0.4466                 6.9370

                     10                     11                     12
                      A                      A                      A
 Frequencies --    737.9565               797.2201               807.4688
 Red. masses --      3.7018                 2.8294                 2.2445
 Frc consts  --      1.1877                 1.0595                 0.8622
 IR Inten    --      1.4185                 1.8309                 6.0813

                     13                     14                     15
                      A                      A                      A
 Frequencies --    859.1172               903.6026               906.3779
 Red. masses --      3.2079                 3.3807                 2.8210
 Frc consts  --      1.3950                 1.6264                 1.3655
 IR Inten    --      9.8680                17.1009                10.0646

                     16                     17                     18
                      A                      A                      A
 Frequencies --    931.6373               953.5926               968.4138
 Red. masses --      2.7030                 2.0124                 2.1483
 Frc consts  --      1.3822                 1.0782                 1.1871
 IR Inten    --     12.4450                13.9930                 8.2167

                     19                     20                     21
                      A                      A                      A
 Frequencies --    980.4067              1028.4237              1039.3283
 Red. masses --      2.1077                 1.4406                 1.7989
 Frc consts  --      1.1936                 0.8977                 1.1449
 IR Inten    --     12.7243                 2.4942                 3.6799

                     22                     23                     24
                      A                      A                      A
 Frequencies --   1045.6031              1083.0473              1115.1441
 Red. masses --      2.2682                 2.3089                 3.4291
 Frc consts  --      1.4610                 1.5957                 2.5124
 IR Inten    --      0.6561                14.9872               100.5091

                     25                     26                     27
                      A                      A                      A
 Frequencies --   1138.0768              1163.9594              1188.6984
 Red. masses --      1.9728                 2.4926                 1.4895
 Frc consts  --      1.5055                 1.9896                 1.2400
 IR Inten    --     24.9004                 3.8118                 5.3841

                     28                     29                     30
                      A                      A                      A
 Frequencies --   1198.1381              1212.7414              1241.9778
 Red. masses --      1.2962                 1.3851                 1.3062
 Frc consts  --      1.0963                 1.2002                 1.1871
 IR Inten    --      1.1688                 4.3977                 0.9355

                     31                     32                     33
                      A                      A                      A
 Frequencies --   1261.1372              1271.2475              1300.4421
 Red. masses --      1.6051                 1.4670                 1.4773
 Frc consts  --      1.5041                 1.3969                 1.4720
 IR Inten    --      0.8820                 1.2881                 2.0689

                     34                     35                     36
                      A                      A                      A
 Frequencies --   1323.5557              1332.0117              1372.2176
 Red. masses --      1.5471                 1.5040                 1.6128
 Frc consts  --      1.5968                 1.5723                 1.7892
 IR Inten    --     14.3104                 1.9999                 9.9737

                     37                     38                     39
                      A                      A                      A
 Frequencies --   1396.7222              1406.7184              1495.0941
 Red. masses --      1.4696                 1.2513                 1.0438
 Frc consts  --      1.6891                 1.4589                 1.3747
 IR Inten    --      3.4275                 5.4462                 3.9889

                     40                     41                     42
                      A                      A                      A
 Frequencies --   1508.2167              1522.1754              2994.5886
 Red. masses --      1.0501                 1.0957                 1.0686
 Frc consts  --      1.4073                 1.4958                 5.6459
 IR Inten    --      2.9758                 0.7650                77.5401

                     43                     44                     45
                      A                      A                      A
 Frequencies --   3033.3469              3053.3589              3075.6591
 Red. masses --      1.0375                 1.0835                 1.0962
 Frc consts  --      5.6244                 5.9516                 6.1095
 IR Inten    --     29.8745                13.5954                34.7479

                     46                     47                     48
                      A                      A                      A
 Frequencies --   3094.3058              3118.0304              3118.9013
 Red. masses --      1.1008                 1.0897                 1.0894
 Frc consts  --      6.2100                 6.2417                 6.2436
 IR Inten    --     19.6197                39.4956                18.3758

                     49                     50                     51
                      A                      A                      A
 Frequencies --   3125.3920              3131.3858              3144.4030
 Red. masses --      1.0996                 1.0891                 1.0940
 Frc consts  --      6.3283                 6.2921                 6.3730
 IR Inten    --     17.0069                39.7999                28.0217

 - Thermochemistry -
 -------------------
 Temperature   298.150 Kelvin.  Pressure   1.00000 Atm.
 Atom     1 has atomic number  6 and mass  12.00000

 Molecular mass:   126.06808 amu.
 Principal axes and moments of inertia in atomic units:
                           1         2         3
     Eigenvalues --   635.34778 968.980811198.17324
           X            0.99826  -0.05114  -0.02938
           Y            0.05007   0.99810  -0.03604
           Z            0.03117   0.03451   0.99892
 This molecule is an asymmetric top.
 Rotational symmetry number  1.
 Warning -- assumption of classical behavior for rotation
           may cause significant error
 Rotational temperatures (Kelvin)      0.13633     0.08939     0.07229
 Rotational constants (GHZ):           2.84056     1.86251     1.50624
 Zero-point vibrational energy     425349.3 (Joules/Mol)
                                  101.66091 (Kcal/Mol)
 Warning -- explicit consideration of   7 degrees of freedom as
           vibrations may cause significant error
 Vibrational temperatures:    263.50   329.81   382.94   444.99   546.07
          (Kelvin)            653.84   817.40   897.22  1035.18  1061.75
                             1147.02  1161.77  1236.08  1300.08  1304.07
                             1340.42  1372.01  1393.33  1410.58  1479.67
                             1495.36  1504.39  1558.26  1604.44  1637.44
                             1674.68  1710.27  1723.85  1744.86  1786.93
                             1814.49  1829.04  1871.04  1904.30  1916.47
                             1974.31  2009.57  2023.95  2151.10  2169.98
                             2190.07  4308.54  4364.30  4393.10  4425.18
                             4452.01  4486.14  4487.40  4496.74  4505.36
                             4524.09

 Zero-point correction=                           0.162007 (Hartree/Particle)
 Thermal correction to Energy=                    0.168778
 Thermal correction to Enthalpy=                  0.169722
 Thermal correction to Gibbs Free Energy=         0.131186
 Sum of electronic and zero-point Energies=           -423.006809
 Sum of electronic and thermal Energies=              -423.000038
 Sum of electronic and thermal Enthalpies=            -422.999094
 Sum of electronic and thermal Free Energies=         -423.037630

                     E (Thermal)             CV                S
                      KCal/Mol        Cal/Mol-Kelvin    Cal/Mol-Kelvin
 Total                  105.910             28.193             81.106
 Electronic               0.000              0.000              0.000
 Translational            0.889              2.981             40.409
 Rotational               0.889              2.981             28.091
 Vibrational            104.133             22.232             12.606
 Vibration     1          0.631              1.863              2.296
 Vibration     2          0.652              1.796              1.885
 Vibration     3          0.672              1.735              1.621
 Vibration     4          0.699              1.656              1.366
 Vibration     5          0.750              1.514              1.041
 Vibration     6          0.813              1.351              0.782
 Vibration     7          0.924              1.100              0.508

 Optimization completed.
    -- Stationary point found.
 Normal termination of Gaussian 09 at Tue Jan 28 00:35:44 2020.
