 Gaussian 09, Revision D.01,
 Gaussian 09:  ES64L-G09RevD.01 24-Apr-2013

 -----------------------------
 # b3lyp 6-31G(2df,p) opt Freq
 -----------------------------

 -----
 titel
 -----
 Symbolic Z-matrix:
 Charge =  0 Multiplicity = 1

 SCF Done:  E(RB3LYP) =  -423.123986928     A.U. after   14 cycles
 Optimization completed.
    -- Stationary point found.
 Normal termination of Gaussian 09 at Tue Jan 28 12:07:48 2020.

 ----------------------------------------------------------------------
 #N Geom=AllCheck Guess=TCheck SCRF=Check GenChk RB3LYP/6-31G(2df,p) Fr
 eq
 ----------------------------------------------------------------------

 Structure from the checkpoint file:  "/scratch/puck/g09_b748f864-b977-4263-ab5f-69276af00d3f/Gau-22518.chk"
 -----
 titel
 -----
 Charge =  0 Multiplicity = 1

                         Standard orientation:
 ---------------------------------------------------------------------
 Center     Atomic      Atomic             Coordinates (Angstroms)
 Number     Number       Type             X           Y           Z
 ---------------------------------------------------------------------
      1          6           0       -0.116934   -2.265433   -0.569809
      2          6           0       -0.352255   -0.925108    0.093397
      3          6           0        0.866294   -0.200569    0.635630
      4          6           0        1.829944    0.298104   -0.449172
      5          8           0        2.922259    1.019138    0.095503
      6          8           0       -1.503828   -0.884636    0.945762
      7          6           0       -1.562021   -0.150200   -0.289627
      8          6           0       -1.632251    1.284812   -0.217037
      9          6           0       -1.706969    2.484687   -0.194199
     10          1           0        0.530601   -2.168137   -1.446693
     11          1           0        0.367840   -2.952727    0.132175
     12          1           0       -1.063420   -2.711880   -0.883522
     13          1           0        0.536541    0.654690    1.229895
     14          1           0        1.401067   -0.881867    1.312946
     15          1           0        2.180091   -0.538238   -1.074249
     16          1           0        1.308650    1.000634   -1.107112
     17          1           0        3.428034    0.415518    0.649080
     18          1           0       -2.222856   -0.596465   -1.033339
     19          1           0       -1.768837    3.544692   -0.164405
 ---------------------------------------------------------------------

 SCF Done:  E(RB3LYP) =  -423.123986928     A.U. after    1 cycles

 The electronic state is 1-A.
 Alpha  occ. eigenvalues --  -19.15613 -19.13625 -10.25948 -10.25438 -10.23061
 Alpha  occ. eigenvalues --  -10.19064 -10.19014 -10.18707 -10.18577  -1.07770
 Alpha  occ. eigenvalues --   -1.01751  -0.78802  -0.76888  -0.72667  -0.68106
 Alpha  occ. eigenvalues --   -0.64364  -0.57861  -0.53719  -0.50963  -0.50300
 Alpha  occ. eigenvalues --   -0.48547  -0.45309  -0.43708  -0.41796  -0.41221
 Alpha  occ. eigenvalues --   -0.38973  -0.37377  -0.36297  -0.33415  -0.32463
 Alpha  occ. eigenvalues --   -0.28678  -0.27833  -0.26777  -0.25719
 Alpha virt. eigenvalues --    0.01952   0.03836   0.07310   0.08961   0.10790
 Alpha virt. eigenvalues --    0.12204   0.12920   0.13711   0.14886   0.15636
 Alpha virt. eigenvalues --    0.16576   0.17826   0.19143   0.20622   0.21327

 Mulliken charges:
               1
     1  C   -0.463220
     2  C    0.399940
     3  C   -0.293455
     4  C   -0.060466
     5  O   -0.414206
     6  O   -0.286523
     7  C   -0.223176
     8  C    0.337388
     9  C   -0.416930
    10  H    0.129715
    11  H    0.128678
    12  H    0.131672
    13  H    0.132749
    14  H    0.090551
    15  H    0.086266
    16  H    0.124951
    17  H    0.281277
    18  H    0.110496
    19  H    0.204293
 Sum of Mulliken charges =   0.00000

 Dipole moment (field-independent basis, Debye):
    X=              0.8189    Y=             -1.1928    Z=             -1.0124  Tot=              1.7659
 Quadrupole moment (field-independent basis, Debye-Ang):
   XX=            -54.6225   YY=            -49.4527   ZZ=            -54.2856
   XY=             -6.7463   XZ=              5.4691   YZ=              1.5227

  Exact polarizability:  77.339  -8.575  97.701   4.171  -0.077  59.177
 Approx polarizability: 103.099 -10.677 149.967   4.342  -4.410  93.090

                      1                      2                      3
                      A                      A                      A
 Frequencies --     59.9196                85.4311               132.2897
 Red. masses --      3.9002                 2.0530                 2.9845
 Frc consts  --      0.0083                 0.0088                 0.0308
 IR Inten    --      0.7907                 4.0818                 2.2109

                      4                      5                      6
                      A                      A                      A
 Frequencies --    154.1022               184.8304               208.3648
 Red. masses --      2.6221                 2.7199                 1.4625
 Frc consts  --      0.0367                 0.0547                 0.0374
 IR Inten    --      0.4567                 2.4855                 1.0650

                      7                      8                      9
                      A                      A                      A
 Frequencies --    290.2667               321.1597               340.3283
 Red. masses --      1.4677                 2.2446                 3.7778
 Frc consts  --      0.0729                 0.1364                 0.2578
 IR Inten    --     63.7633                42.7726                 5.1464

                     10                     11                     12
                      A                      A                      A
 Frequencies --    356.7941               435.0297               451.9636
 Red. masses --      2.6657                 4.3141                 3.9974
 Frc consts  --      0.1999                 0.4810                 0.4811
 IR Inten    --      4.7710                10.0544                 4.5638

                     13                     14                     15
                      A                      A                      A
 Frequencies --    554.3618               567.4561               625.6473
 Red. masses --      4.3940                 6.5434                 1.2241
 Frc consts  --      0.7956                 1.2414                 0.2823
 IR Inten    --      1.6466                 8.9052                43.6118

                     16                     17                     18
                      A                      A                      A
 Frequencies --    671.1973               757.1451               786.2636
 Red. masses --      1.2531                 4.1232                 1.1823
 Frc consts  --      0.3326                 1.3927                 0.4306
 IR Inten    --     34.8570                 5.2915                 3.4917

                     19                     20                     21
                      A                      A                      A
 Frequencies --    813.6486               924.1767               973.7011
 Red. masses --      3.6541                 3.5100                 1.9275
 Frc consts  --      1.4253                 1.7663                 1.0767
 IR Inten    --     20.7820                17.0920                 4.4292

                     22                     23                     24
                      A                      A                      A
 Frequencies --   1013.4460              1024.2864              1065.6124
 Red. masses --      2.9441                 2.2773                 1.4790
 Frc consts  --      1.7816                 1.4077                 0.9895
 IR Inten    --     14.2427                27.1230                 2.8657

                     25                     26                     27
                      A                      A                      A
 Frequencies --   1071.1598              1093.1162              1114.2102
 Red. masses --      3.5521                 1.8905                 1.9396
 Frc consts  --      2.4013                 1.3309                 1.4187
 IR Inten    --     89.5748                20.6774                12.2044

                     28                     29                     30
                      A                      A                      A
 Frequencies --   1176.8946              1261.9870              1284.6179
 Red. masses --      1.3920                 2.2475                 1.3582
 Frc consts  --      1.1360                 2.1089                 1.3206
 IR Inten    --     12.1290                26.1993                 5.3963

                     31                     32                     33
                      A                      A                      A
 Frequencies --   1328.6024              1341.8116              1401.4279
 Red. masses --      1.2370                 1.4793                 1.2607
 Frc consts  --      1.2865                 1.5693                 1.4588
 IR Inten    --      6.8879                13.2852                12.7820

                     34                     35                     36
                      A                      A                      A
 Frequencies --   1413.7331              1425.7480              1438.4386
 Red. masses --      1.2780                 1.2974                 2.4804
 Frc consts  --      1.5050                 1.5538                 3.0239
 IR Inten    --      2.4932                30.6919                22.9585

                     37                     38                     39
                      A                      A                      A
 Frequencies --   1479.6975              1489.1728              1499.1140
 Red. masses --      1.0697                 1.1030                 1.1319
 Frc consts  --      1.3799                 1.4412                 1.4987
 IR Inten    --      2.7827                 9.5346                 1.2023

                     40                     41                     42
                      A                      A                      A
 Frequencies --   1513.2834              2237.5764              2982.6665
 Red. masses --      1.0875                 5.9593                 1.0700
 Frc consts  --      1.4673                17.5793                 5.6087
 IR Inten    --      1.2825                 0.6584                56.9145

                     43                     44                     45
                      A                      A                      A
 Frequencies --   3010.6210              3039.4784              3081.5099
 Red. masses --      1.0693                 1.0367                 1.0903
 Frc consts  --      5.7104                 5.6428                 6.0998
 IR Inten    --     25.1255                20.7738                19.6176

                     46                     47                     48
                      A                      A                      A
 Frequencies --   3102.0216              3105.0555              3112.1728
 Red. masses --      1.0861                 1.0988                 1.0943
 Frc consts  --      6.1578                 6.2420                 6.2445
 IR Inten    --     11.5486                19.3266                17.0669

                     49                     50                     51
                      A                      A                      A
 Frequencies --   3127.3825              3501.2609              3813.5989
 Red. masses --      1.1014                 1.1619                 1.0662
 Frc consts  --      6.3471                 8.3917                 9.1357
 IR Inten    --     18.8306                72.0374                17.3056

 - Thermochemistry -
 -------------------
 Temperature   298.150 Kelvin.  Pressure   1.00000 Atm.
 Atom     1 has atomic number  6 and mass  12.00000

 Molecular mass:   126.06808 amu.
 Principal axes and moments of inertia in atomic units:
                           1         2         3
     Eigenvalues --   967.218931384.819702083.08985
           X            0.99940  -0.03259   0.01131
           Y            0.03232   0.99921   0.02331
           Z           -0.01206  -0.02293   0.99966
 This molecule is an asymmetric top.
 Rotational symmetry number  1.
 Warning -- assumption of classical behavior for rotation
           may cause significant error
 Rotational temperatures (Kelvin)      0.08955     0.06255     0.04158
 Rotational constants (GHZ):           1.86591     1.30323     0.86638
 Zero-point vibrational energy     408188.5 (Joules/Mol)
                                   97.55938 (Kcal/Mol)
 Warning -- explicit consideration of  14 degrees of freedom as
           vibrations may cause significant error
 Vibrational temperatures:     86.21   122.92   190.34   221.72   265.93
          (Kelvin)            299.79   417.63   462.08   489.66   513.35
                              625.91   650.27   797.60   816.44   900.17
                              965.70  1089.36  1131.26  1170.66  1329.68
                             1400.94  1458.12  1473.72  1533.18  1541.16
                             1572.75  1603.10  1693.29  1815.72  1848.28
                             1911.56  1930.57  2016.34  2034.04  2051.33
                             2069.59  2128.95  2142.58  2156.89  2177.27
                             3219.37  4291.39  4331.61  4373.13  4433.60
                             4463.11  4467.48  4477.72  4499.60  5037.53
                             5486.91

 Zero-point correction=                           0.155471 (Hartree/Particle)
 Thermal correction to Energy=                    0.165676
 Thermal correction to Enthalpy=                  0.166620
 Thermal correction to Gibbs Free Energy=         0.120028
 Sum of electronic and zero-point Energies=           -422.968516
 Sum of electronic and thermal Energies=              -422.958311
 Sum of electronic and thermal Enthalpies=            -422.957367
 Sum of electronic and thermal Free Energies=         -423.003959

                     E (Thermal)             CV                S
                      KCal/Mol        Cal/Mol-Kelvin    Cal/Mol-Kelvin
 Total                  103.963             37.028             98.062
 Electronic               0.000              0.000              0.000
 Translational            0.889              2.981             40.409
 Rotational               0.889              2.981             29.413
 Vibrational            102.186             31.066             28.240
 Vibration     1          0.597              1.973              4.460
 Vibration     2          0.601              1.959              3.762
 Vibration     3          0.612              1.921              2.912
 Vibration     4          0.620              1.898              2.621
 Vibration     5          0.631              1.861              2.279
 Vibration     6          0.642              1.828              2.058
 Vibration     7          0.686              1.692              1.472
 Vibration     8          0.707              1.633              1.304
 Vibration     9          0.720              1.595              1.211
 Vibration    10          0.732              1.561              1.136
 Vibration    11          0.796              1.394              0.842
 Vibration    12          0.811              1.357              0.790
 Vibration    13          0.910              1.130              0.535
 Vibration    14          0.923              1.102              0.509

 Optimization completed.
    -- Stationary point found.
 Normal termination of Gaussian 09 at Tue Jan 28 12:49:02 2020.
