 Gaussian 09, Revision D.01,
 Gaussian 09:  ES64L-G09RevD.01 24-Apr-2013

 -----------------------------
 # b3lyp 6-31G(2df,p) opt Freq
 -----------------------------

 -----
 titel
 -----
 Symbolic Z-matrix:
 Charge =  0 Multiplicity = 1

 SCF Done:  E(RB3LYP) =  -423.192791273     A.U. after   14 cycles
 Optimization completed.
    -- Stationary point found.
 Normal termination of Gaussian 09 at Tue Jan 28 00:05:33 2020.

 ----------------------------------------------------------------------
 #N Geom=AllCheck Guess=TCheck SCRF=Check GenChk RB3LYP/6-31G(2df,p) Fr
 eq
 ----------------------------------------------------------------------

 Structure from the checkpoint file:  "/scratch/puck/g09_0ae86591-6964-4e53-aad6-915db457e559/Gau-71696.chk"
 -----
 titel
 -----
 Charge =  0 Multiplicity = 1

                         Standard orientation:
 ---------------------------------------------------------------------
 Center     Atomic      Atomic             Coordinates (Angstroms)
 Number     Number       Type             X           Y           Z
 ---------------------------------------------------------------------
      1          6           0       -2.288962   -1.073262   -0.000001
      2          6           0       -0.770563   -0.945929   -0.000002
      3          6           0       -0.198889    0.046624    1.069677
      4          6           0        1.329042   -0.197482    1.196802
      5          8           0        1.858934   -0.742775    0.000000
      6          6           0        1.329044   -0.197478   -1.196801
      7          6           0       -0.198887    0.046628   -1.069678
      8          6           0       -0.373644    1.128143    0.000001
      9          8           0       -0.610570    2.301935    0.000002
     10          1           0       -2.635704   -1.617314   -0.884752
     11          1           0       -2.635711   -1.617211    0.884811
     12          1           0       -2.778730   -0.092831   -0.000060
     13          1           0       -0.287904   -1.925626   -0.000005
     14          1           0       -0.677141    0.161967    2.044494
     15          1           0        1.835307    0.741577    1.469651
     16          1           0        1.535978   -0.935431    1.978452
     17          1           0        1.835309    0.741582   -1.469645
     18          1           0        1.535983   -0.935424   -1.978452
     19          1           0       -0.677137    0.161973   -2.044496
 ---------------------------------------------------------------------

 SCF Done:  E(RB3LYP) =  -423.192791273     A.U. after    1 cycles

 The electronic state is 1-A.
 Alpha  occ. eigenvalues --  -19.15189 -19.13603 -10.26582 -10.24432 -10.24431
 Alpha  occ. eigenvalues --  -10.20488 -10.19992 -10.19990 -10.18567  -1.05114
 Alpha  occ. eigenvalues --   -1.04124  -0.86657  -0.76811  -0.73190  -0.63870
 Alpha  occ. eigenvalues --   -0.63870  -0.59959  -0.51670  -0.49682  -0.47763
 Alpha  occ. eigenvalues --   -0.46762  -0.46630  -0.44932  -0.41586  -0.41439
 Alpha  occ. eigenvalues --   -0.39596  -0.38196  -0.37742  -0.36742  -0.34075
 Alpha  occ. eigenvalues --   -0.31586  -0.30612  -0.26534  -0.23770
 Alpha virt. eigenvalues --   -0.01451   0.08340   0.11406   0.12003   0.12364
 Alpha virt. eigenvalues --    0.13159   0.13892   0.14640   0.15151   0.16356
 Alpha virt. eigenvalues --    0.16469   0.16762   0.17867   0.19363   0.20773

 Mulliken charges:
               1
     1  C   -0.429683
     2  C    0.019241
     3  C   -0.169380
     4  C   -0.098220
     5  O   -0.246564
     6  C   -0.098219
     7  C   -0.169382
     8  C    0.428171
     9  O   -0.330210
    10  H    0.120766
    11  H    0.120765
    12  H    0.129658
    13  H    0.089990
    14  H    0.087857
    15  H    0.110124
    16  H    0.118553
    17  H    0.110124
    18  H    0.118553
    19  H    0.087857
 Sum of Mulliken charges =   0.00000

 Dipole moment (field-independent basis, Debye):
    X=             -0.2765    Y=             -2.1651    Z=              0.0000  Tot=              2.1826
 Quadrupole moment (field-independent basis, Debye-Ang):
   XX=            -54.8956   YY=            -61.2564   ZZ=            -48.5349
   XY=              4.3254   XZ=              0.0000   YZ=              0.0000

  Exact polarizability:  75.803   0.898  74.237   0.000   0.000  75.450
 Approx polarizability: 102.883  -5.202 120.357   0.000   0.000 110.630

                      1                      2                      3
                      A                      A                      A
 Frequencies --    121.0404               196.9612               218.8668
 Red. masses --      6.9976                 4.0476                 2.2280
 Frc consts  --      0.0604                 0.0925                 0.0629
 IR Inten    --      3.9669                 4.6927                 0.8370

                      4                      5                      6
                      A                      A                      A
 Frequencies --    235.5238               253.5601               286.0083
 Red. masses --      1.0453                 2.1182                 2.5804
 Frc consts  --      0.0342                 0.0802                 0.1244
 IR Inten    --      0.0578                 3.1835                 1.2625

                      7                      8                      9
                      A                      A                      A
 Frequencies --    428.4361               462.0865               513.8222
 Red. masses --      3.7910                 3.3550                 5.0870
 Frc consts  --      0.4100                 0.4221                 0.7913
 IR Inten    --      0.3634                 3.4490                 0.5848

                     10                     11                     12
                      A                      A                      A
 Frequencies --    543.4303               738.6819               782.9563
 Red. masses --      6.1092                 4.8209                 3.0909
 Frc consts  --      1.0630                 1.5499                 1.1164
 IR Inten    --      1.8996                 7.1096                 4.6562

                     13                     14                     15
                      A                      A                      A
 Frequencies --    791.9938               817.7960               852.8582
 Red. masses --      2.5186                 2.9680                 3.0082
 Frc consts  --      0.9308                 1.1695                 1.2892
 IR Inten    --      0.3227                 5.9051                10.0017

                     16                     17                     18
                      A                      A                      A
 Frequencies --    900.1004               969.2898               971.6398
 Red. masses --      2.1477                 2.5315                 1.5214
 Frc consts  --      1.0252                 1.4013                 0.8463
 IR Inten    --      0.0163                12.1063                 2.7026

                     19                     20                     21
                      A                      A                      A
 Frequencies --   1019.0795              1043.5702              1043.8890
 Red. masses --      2.4558                 2.1223                 1.6347
 Frc consts  --      1.5027                 1.3618                 1.0495
 IR Inten    --     22.4707                 1.2995                 1.7272

                     22                     23                     24
                      A                      A                      A
 Frequencies --   1085.7688              1096.8926              1132.5053
 Red. masses --      1.8047                 2.2604                 2.3079
 Frc consts  --      1.2535                 1.6024                 1.7440
 IR Inten    --      2.6881                 4.2187                 4.3237

                     25                     26                     27
                      A                      A                      A
 Frequencies --   1138.1026              1140.8353              1218.2839
 Red. masses --      2.9671                 1.5453                 1.3897
 Frc consts  --      2.2644                 1.1850                 1.2153
 IR Inten    --     91.0042                 0.5942                 2.0883

                     28                     29                     30
                      A                      A                      A
 Frequencies --   1227.9989              1248.2625              1249.5301
 Red. masses --      1.5264                 1.6591                 1.5528
 Frc consts  --      1.3561                 1.5231                 1.4284
 IR Inten    --      4.3699                17.1247                43.8524

                     31                     32                     33
                      A                      A                      A
 Frequencies --   1279.6250              1303.3526              1357.2947
 Red. masses --      1.4683                 1.2433                 1.5224
 Frc consts  --      1.4165                 1.2444                 1.6525
 IR Inten    --      4.2532                 1.2574                 8.7131

                     34                     35                     36
                      A                      A                      A
 Frequencies --   1375.8975              1413.1398              1421.1961
 Red. masses --      1.2735                 1.3368                 1.2406
 Frc consts  --      1.4205                 1.5729                 1.4764
 IR Inten    --      0.9095                 7.5774                 6.2158

                     37                     38                     39
                      A                      A                      A
 Frequencies --   1498.1863              1500.2254              1508.4233
 Red. masses --      1.0473                 1.0451                 1.0777
 Frc consts  --      1.3850                 1.3859                 1.4447
 IR Inten    --      2.1809                 4.1723                 0.0473

                     40                     41                     42
                      A                      A                      A
 Frequencies --   1520.3689              1888.2435              2983.3910
 Red. masses --      1.0915                11.9515                 1.0679
 Frc consts  --      1.4865                25.1067                 5.6004
 IR Inten    --      0.9916               273.0251                56.0478

                     43                     44                     45
                      A                      A                      A
 Frequencies --   2987.5662              3029.3716              3071.2571
 Red. masses --      1.0693                 1.0354                 1.0946
 Frc consts  --      5.6230                 5.5985                 6.0830
 IR Inten    --     72.1767                22.7674                17.9451

                     46                     47                     48
                      A                      A                      A
 Frequencies --   3072.9611              3081.4670              3098.8916
 Red. masses --      1.0959                 1.0890                 1.0894
 Frc consts  --      6.0973                 6.0923                 6.1641
 IR Inten    --     30.4628                 1.6324                19.2624

                     49                     50                     51
                      A                      A                      A
 Frequencies --   3099.8926              3100.4745              3102.1989
 Red. masses --      1.0901                 1.0997                 1.0966
 Frc consts  --      6.1719                 6.2283                 6.2179
 IR Inten    --      4.6209                40.4738                33.2117

 - Thermochemistry -
 -------------------
 Temperature   298.150 Kelvin.  Pressure   1.00000 Atm.
 Atom     1 has atomic number  6 and mass  12.00000

 Molecular mass:   126.06808 amu.
 Principal axes and moments of inertia in atomic units:
                           1         2         3
     Eigenvalues --   817.673491056.457851273.59498
           X            0.99072   0.13592   0.00000
           Y           -0.13592   0.99072   0.00000
           Z            0.00000   0.00000   1.00000
 This molecule is an asymmetric top.
 Rotational symmetry number  1.
 Warning -- assumption of classical behavior for rotation
           may cause significant error
 Rotational temperatures (Kelvin)      0.10593     0.08199     0.06801
 Rotational constants (GHZ):           2.20717     1.70829     1.41704
 Zero-point vibrational energy     421224.2 (Joules/Mol)
                                  100.67501 (Kcal/Mol)
 Warning -- explicit consideration of  10 degrees of freedom as
           vibrations may cause significant error
 Vibrational temperatures:    174.15   283.38   314.90   338.87   364.82
          (Kelvin)            411.50   616.42   664.84   739.27   781.87
                             1062.80  1126.50  1139.50  1176.62  1227.07
                             1295.04  1394.59  1397.97  1466.23  1501.46
                             1501.92  1562.18  1578.18  1629.42  1637.47
                             1641.41  1752.84  1766.81  1795.97  1797.79
                             1841.09  1875.23  1952.84  1979.61  2033.19
                             2044.78  2155.55  2158.49  2170.28  2187.47
                             2716.76  4292.43  4298.44  4358.58  4418.85
                             4421.30  4433.54  4458.61  4460.05  4460.89
                             4463.37

 Zero-point correction=                           0.160436 (Hartree/Particle)
 Thermal correction to Energy=                    0.168313
 Thermal correction to Enthalpy=                  0.169258
 Thermal correction to Gibbs Free Energy=         0.128290
 Sum of electronic and zero-point Energies=           -423.032355
 Sum of electronic and thermal Energies=              -423.024478
 Sum of electronic and thermal Enthalpies=            -423.023534
 Sum of electronic and thermal Free Energies=         -423.064501

                     E (Thermal)             CV                S
                      KCal/Mol        Cal/Mol-Kelvin    Cal/Mol-Kelvin
 Total                  105.618             30.649             86.223
 Electronic               0.000              0.000              0.000
 Translational            0.889              2.981             40.409
 Rotational               0.889              2.981             28.488
 Vibrational            103.841             24.687             17.326
 Vibration     1          0.609              1.932              3.084
 Vibration     2          0.636              1.844              2.161
 Vibration     3          0.647              1.812              1.968
 Vibration     4          0.655              1.786              1.836
 Vibration     5          0.665              1.757              1.706
 Vibration     6          0.684              1.700              1.497
 Vibration     7          0.790              1.408              0.864
 Vibration     8          0.820              1.334              0.760
 Vibration     9          0.869              1.219              0.624
 Vibration    10          0.899              1.154              0.558

 Optimization completed.
    -- Stationary point found.
 Normal termination of Gaussian 09 at Tue Jan 28 00:51:02 2020.
