 Gaussian 09, Revision D.01,
 Gaussian 09:  ES64L-G09RevD.01 24-Apr-2013

 -----------------------------
 # b3lyp 6-31G(2df,p) opt Freq
 -----------------------------

 -----
 titel
 -----
 Symbolic Z-matrix:
 Charge =  0 Multiplicity = 1

 SCF Done:  E(RB3LYP) =  -423.170500701     A.U. after   14 cycles
 SCF Done:  E(RB3LYP) =  -423.170500959     A.U. after    7 cycles
 SCF Done:  E(RB3LYP) =  -423.170501101     A.U. after    7 cycles
 Optimization completed.
    -- Stationary point found.
 Normal termination of Gaussian 09 at Tue Jan 28 14:21:00 2020.

 ----------------------------------------------------------------------
 #N Geom=AllCheck Guess=TCheck SCRF=Check GenChk RB3LYP/6-31G(2df,p) Fr
 eq
 ----------------------------------------------------------------------

 Structure from the checkpoint file:  "/scratch/puck/g09_13298ea4-3bc9-49d0-bfe9-24dd6110ac0e/Gau-32283.chk"
 -----
 titel
 -----
 Charge =  0 Multiplicity = 1

                         Standard orientation:
 ---------------------------------------------------------------------
 Center     Atomic      Atomic             Coordinates (Angstroms)
 Number     Number       Type             X           Y           Z
 ---------------------------------------------------------------------
      1          6           0        1.414046   -1.854247   -0.554731
      2          6           0        0.881343   -0.521086   -0.106352
      3          8           0        1.256332   -0.095580    1.212769
      4          6           0        1.684905    0.701972    0.077308
      5          6           0        0.791994    1.866132   -0.194079
      6          6           0       -0.439577    1.439315   -0.484779
      7          6           0       -0.539846   -0.073835   -0.490707
      8          6           0       -1.620759   -0.610719    0.463458
      9          8           0       -2.918913   -0.136572    0.141150
     10          1           0        1.377580   -1.941849   -1.645803
     11          1           0        2.448392   -1.982029   -0.226283
     12          1           0        0.822695   -2.674741   -0.132285
     13          1           0        2.760817    0.739567   -0.068251
     14          1           0        1.111642    2.898108   -0.118721
     15          1           0       -1.309347    2.064035   -0.647704
     16          1           0       -0.772795   -0.439162   -1.503694
     17          1           0       -1.590211   -1.711380    0.478669
     18          1           0       -1.406824   -0.259237    1.475473
     19          1           0       -3.173938   -0.521290   -0.703455
 ---------------------------------------------------------------------

 SCF Done:  E(RB3LYP) =  -423.170501101     A.U. after    1 cycles

 The electronic state is 1-A.
 Alpha  occ. eigenvalues --  -19.14248 -19.13739 -10.23842 -10.23158 -10.22746
 Alpha  occ. eigenvalues --  -10.19431 -10.18602 -10.18529 -10.18302  -1.06276
 Alpha  occ. eigenvalues --   -1.01770  -0.82233  -0.75655  -0.72321  -0.64786
 Alpha  occ. eigenvalues --   -0.63751  -0.55912  -0.55106  -0.50963  -0.48812
 Alpha  occ. eigenvalues --   -0.45772  -0.44910  -0.42931  -0.41796  -0.39984
 Alpha  occ. eigenvalues --   -0.39098  -0.37412  -0.36334  -0.35647  -0.32782
 Alpha  occ. eigenvalues --   -0.30671  -0.26826  -0.25479  -0.24374
 Alpha virt. eigenvalues --    0.00044   0.07473   0.09371   0.10945   0.12353
 Alpha virt. eigenvalues --    0.13333   0.14248   0.15744   0.16316   0.16677
 Alpha virt. eigenvalues --    0.17582   0.17838   0.18742   0.21444   0.23054

 Mulliken charges:
               1
     1  C   -0.490890
     2  C    0.397190
     3  O   -0.301304
     4  C   -0.070213
     5  C   -0.091758
     6  C   -0.074824
     7  C   -0.144131
     8  C   -0.069124
     9  O   -0.416904
    10  H    0.121985
    11  H    0.132178
    12  H    0.127365
    13  H    0.093151
    14  H    0.102769
    15  H    0.112497
    16  H    0.069535
    17  H    0.087044
    18  H    0.134238
    19  H    0.281194
 Sum of Mulliken charges =   0.00000

 Dipole moment (field-independent basis, Debye):
    X=              0.4797    Y=             -0.8002    Z=             -2.6463  Tot=              2.8059
 Quadrupole moment (field-independent basis, Debye-Ang):
   XX=            -53.4542   YY=            -49.5725   ZZ=            -55.2321
   XY=              2.9167   XZ=              2.0579   YZ=              1.1987

  Exact polarizability:  87.112   3.559  81.540   4.528   1.054  58.308
 Approx polarizability: 127.850   9.972 113.845  11.583   1.601  97.918

                      1                      2                      3
                      A                      A                      A
 Frequencies --     99.2338               136.6603               168.2282
 Red. masses --      3.8102                 2.1106                 3.4321
 Frc consts  --      0.0221                 0.0232                 0.0572
 IR Inten    --      0.8905                 1.5097                 2.8187

                      4                      5                      6
                      A                      A                      A
 Frequencies --    189.9996               269.0916               287.7633
 Red. masses --      1.1712                 2.9605                 1.8583
 Frc consts  --      0.0249                 0.1263                 0.0907
 IR Inten    --      0.3359                 6.2828                24.9144

                      7                      8                      9
                      A                      A                      A
 Frequencies --    315.2764               355.5745               479.5982
 Red. masses --      1.4064                 4.4863                 3.0867
 Frc consts  --      0.0824                 0.3342                 0.4183
 IR Inten    --     75.8016                17.2293                 5.9560

                     10                     11                     12
                      A                      A                      A
 Frequencies --    499.6538               576.3214               603.6839
 Red. masses --      3.2450                 3.8275                 3.7334
 Frc consts  --      0.4773                 0.7490                 0.8016
 IR Inten    --      1.9068                 9.4212                 4.4800

                     13                     14                     15
                      A                      A                      A
 Frequencies --    724.7389               770.5399               817.2341
 Red. masses --      4.5043                 1.6478                 3.7351
 Frc consts  --      1.3939                 0.5764                 1.4697
 IR Inten    --      5.9779                19.2533                15.5728

                     16                     17                     18
                      A                      A                      A
 Frequencies --    851.8691               865.9473               932.6308
 Red. masses --      2.4618                 2.8154                 2.4130
 Frc consts  --      1.0526                 1.2439                 1.2366
 IR Inten    --     14.4243                21.6428                 9.4175

                     19                     20                     21
                      A                      A                      A
 Frequencies --    961.5688               971.2831              1003.1455
 Red. masses --      1.3602                 2.0495                 1.7692
 Frc consts  --      0.7410                 1.1391                 1.0490
 IR Inten    --      1.7180                 3.3305                13.4230

                     22                     23                     24
                      A                      A                      A
 Frequencies --   1015.5825              1051.1571              1080.2091
 Red. masses --      1.9924                 1.6705                 2.3534
 Frc consts  --      1.2108                 1.0875                 1.6180
 IR Inten    --     27.0176                52.9504                 5.8899

                     25                     26                     27
                      A                      A                      A
 Frequencies --   1091.8138              1111.2113              1139.0120
 Red. masses --      2.9797                 1.6568                 1.2219
 Frc consts  --      2.0928                 1.2053                 0.9340
 IR Inten    --     37.7149                17.8054                 0.2210

                     28                     29                     30
                      A                      A                      A
 Frequencies --   1182.6796              1213.1413              1271.0760
 Red. masses --      1.4027                 1.7664                 1.5641
 Frc consts  --      1.1560                 1.5316                 1.4889
 IR Inten    --     24.3779                 9.6434                 1.4180

                     31                     32                     33
                      A                      A                      A
 Frequencies --   1300.0539              1326.9544              1367.0271
 Red. masses --      1.8064                 1.3168                 1.7413
 Frc consts  --      1.7989                 1.3661                 1.9173
 IR Inten    --     16.8727                 2.5340                 1.8692

                     34                     35                     36
                      A                      A                      A
 Frequencies --   1389.1726              1404.5620              1409.7112
 Red. masses --      1.3933                 1.2609                 1.2604
 Frc consts  --      1.5842                 1.4656                 1.4758
 IR Inten    --      5.8470                45.4357                 5.8964

                     37                     38                     39
                      A                      A                      A
 Frequencies --   1446.6668              1484.5237              1494.8614
 Red. masses --      3.0640                 1.0898                 1.0938
 Frc consts  --      3.7782                 1.4151                 1.4402
 IR Inten    --     14.1618                 6.1309                 3.1598

                     40                     41                     42
                      A                      A                      A
 Frequencies --   1508.6621              1659.8150              2976.2038
 Red. masses --      1.0820                 6.4132                 1.0787
 Frc consts  --      1.4509                10.4098                 5.6296
 IR Inten    --      1.0604                 3.5102                32.7682

                     43                     44                     45
                      A                      A                      A
 Frequencies --   2984.4079              3032.0967              3092.6556
 Red. masses --      1.0733                 1.0371                 1.0999
 Frc consts  --      5.6325                 5.6178                 6.1982
 IR Inten    --     57.0476                23.9573                18.9377

                     46                     47                     48
                      A                      A                      A
 Frequencies --   3109.6836              3123.3658              3155.3051
 Red. masses --      1.0924                 1.1005                 1.0905
 Frc consts  --      6.2237                 6.3253                 6.3969
 IR Inten    --     13.2962                13.2891                27.3428

                     49                     50                     51
                      A                      A                      A
 Frequencies --   3200.1283              3223.6050              3814.4407
 Red. masses --      1.0855                 1.1044                 1.0662
 Frc consts  --      6.5497                 6.7620                 9.1399
 IR Inten    --      5.0139                14.7862                18.0091

 - Thermochemistry -
 -------------------
 Temperature   298.150 Kelvin.  Pressure   1.00000 Atm.
 Atom     1 has atomic number  6 and mass  12.00000

 Molecular mass:   126.06808 amu.
 Principal axes and moments of inertia in atomic units:
                           1         2         3
     Eigenvalues --   708.961751261.284961650.30791
           X            0.99989  -0.01319  -0.00710
           Y            0.01333   0.99971   0.02003
           Z            0.00684  -0.02012   0.99977
 This molecule is an asymmetric top.
 Rotational symmetry number  1.
 Warning -- assumption of classical behavior for rotation
           may cause significant error
 Rotational temperatures (Kelvin)      0.12217     0.06867     0.05248
 Rotational constants (GHZ):           2.54561     1.43088     1.09358
 Zero-point vibrational energy     415940.5 (Joules/Mol)
                                   99.41217 (Kcal/Mol)
 Warning -- explicit consideration of  12 degrees of freedom as
           vibrations may cause significant error
 Vibrational temperatures:    142.78   196.62   242.04   273.37   387.16
          (Kelvin)            414.03   453.61   511.59   690.03   718.89
                              829.20   868.57  1042.74  1108.63  1175.82
                             1225.65  1245.90  1341.85  1383.48  1397.46
                             1443.30  1461.19  1512.38  1554.18  1570.87
                             1598.78  1638.78  1701.61  1745.44  1828.79
                             1870.49  1909.19  1966.84  1998.71  2020.85
                             2028.26  2081.43  2135.90  2150.77  2170.63
                             2388.10  4282.09  4293.89  4362.51  4449.64
                             4474.14  4493.82  4539.77  4604.27  4638.04
                             5488.12

 Zero-point correction=                           0.158423 (Hartree/Particle)
 Thermal correction to Energy=                    0.167139
 Thermal correction to Enthalpy=                  0.168083
 Thermal correction to Gibbs Free Energy=         0.125211
 Sum of electronic and zero-point Energies=           -423.012078
 Sum of electronic and thermal Energies=              -423.003363
 Sum of electronic and thermal Enthalpies=            -423.002418
 Sum of electronic and thermal Free Energies=         -423.045290

                     E (Thermal)             CV                S
                      KCal/Mol        Cal/Mol-Kelvin    Cal/Mol-Kelvin
 Total                  104.881             33.179             90.230
 Electronic               0.000              0.000              0.000
 Translational            0.889              2.981             40.409
 Rotational               0.889              2.981             28.780
 Vibrational            103.104             27.218             21.041
 Vibration     1          0.604              1.950              3.469
 Vibration     2          0.614              1.917              2.850
 Vibration     3          0.625              1.882              2.455
 Vibration     4          0.633              1.854              2.228
 Vibration     5          0.673              1.730              1.602
 Vibration     6          0.685              1.696              1.487
 Vibration     7          0.703              1.644              1.334
 Vibration     8          0.731              1.564              1.141
 Vibration     9          0.836              1.295              0.711
 Vibration    10          0.855              1.251              0.659
 Vibration    11          0.933              1.082              0.492
 Vibration    12          0.962              1.024              0.443

 Normal termination of Gaussian 09 at Tue Jan 28 15:05:42 2020.
