 Gaussian 09, Revision D.01,
 Gaussian 09:  ES64L-G09RevD.01 24-Apr-2013

 -----------------------------
 # b3lyp 6-31G(2df,p) opt Freq
 -----------------------------

 -----
 titel
 -----
 Symbolic Z-matrix:
 Charge =  0 Multiplicity = 1

 SCF Done:  E(RB3LYP) =  -423.191360968     A.U. after   14 cycles
 SCF Done:  E(RB3LYP) =  -423.191361390     A.U. after    7 cycles
 SCF Done:  E(RB3LYP) =  -423.191361195     A.U. after    8 cycles
 Optimization completed.
    -- Stationary point found.
 Normal termination of Gaussian 09 at Mon Jan 27 16:43:17 2020.

 ----------------------------------------------------------------------
 #N Geom=AllCheck Guess=TCheck SCRF=Check GenChk RB3LYP/6-31G(2df,p) Fr
 eq
 ----------------------------------------------------------------------

 Structure from the checkpoint file:  "/scratch/puck/g09_250401f3-dc6c-4b01-82f4-9c1224afc1b7/Gau-36454.chk"
 -----
 titel
 -----
 Charge =  0 Multiplicity = 1

                         Standard orientation:
 ---------------------------------------------------------------------
 Center     Atomic      Atomic             Coordinates (Angstroms)
 Number     Number       Type             X           Y           Z
 ---------------------------------------------------------------------
      1          6           0       -1.478351   -1.624048   -0.000006
      2          6           0       -0.905590   -0.215906   -0.000006
      3          8           0       -2.008427    0.654929    0.000104
      4          6           0        0.246052    0.024641   -1.056555
      5          6           0        0.625729    1.498998   -0.788639
      6          6           0        0.625627    1.498954    0.788820
      7          6           0        0.246100    0.024544    1.056586
      8          6           0        1.133088   -0.657500   -0.000006
      9          8           0        2.044864   -1.430140   -0.000094
     10          1           0       -2.104203   -1.771510    0.884748
     11          1           0       -2.103418   -1.771883   -0.885249
     12          1           0       -0.691065   -2.382376    0.000520
     13          1           0       -1.706735    1.567964   -0.001635
     14          1           0        0.179945   -0.318951   -2.086805
     15          1           0        1.601955    1.755399   -1.205839
     16          1           0       -0.102623    2.194432   -1.217542
     17          1           0        1.601751    1.755525    1.206148
     18          1           0       -0.103018    2.194122    1.217601
     19          1           0        0.179980   -0.319136    2.086804
 ---------------------------------------------------------------------

 SCF Done:  E(RB3LYP) =  -423.191361195     A.U. after    1 cycles

 The electronic state is 1-A.
 Alpha  occ. eigenvalues --  -19.14980 -19.13936 -10.27127 -10.25541 -10.20568
 Alpha  occ. eigenvalues --  -10.20551 -10.19769 -10.19766 -10.18034  -1.05041
 Alpha  occ. eigenvalues --   -1.03664  -0.89145  -0.76363  -0.71299  -0.69712
 Alpha  occ. eigenvalues --   -0.59412  -0.57914  -0.53432  -0.52450  -0.49057
 Alpha  occ. eigenvalues --   -0.45925  -0.45460  -0.41226  -0.40977  -0.39436
 Alpha  occ. eigenvalues --   -0.38472  -0.38083  -0.37368  -0.36518  -0.35078
 Alpha  occ. eigenvalues --   -0.34206  -0.32462  -0.27332  -0.23157
 Alpha virt. eigenvalues --   -0.01302   0.06182   0.10831   0.10959   0.13238
 Alpha virt. eigenvalues --    0.13425   0.14761   0.14847   0.15735   0.16711
 Alpha virt. eigenvalues --    0.17735   0.19013   0.19490   0.19719   0.21983

 Mulliken charges:
               1
     1  C   -0.450306
     2  C    0.436463
     3  O   -0.490666
     4  C   -0.190462
     5  C   -0.260053
     6  C   -0.259924
     7  C   -0.190435
     8  C    0.433129
     9  O   -0.329884
    10  H    0.128829
    11  H    0.128801
    12  H    0.139034
    13  H    0.284657
    14  H    0.083334
    15  H    0.121732
    16  H    0.105334
    17  H    0.121706
    18  H    0.105378
    19  H    0.083333
 Sum of Mulliken charges =   0.00000

 Dipole moment (field-independent basis, Debye):
    X=             -0.8931    Y=              2.3197    Z=             -0.0022  Tot=              2.4857
 Quadrupole moment (field-independent basis, Debye-Ang):
   XX=            -61.8156   YY=            -51.6353   ZZ=            -51.5208
   XY=              4.9052   XZ=              0.0043   YZ=             -0.0052

  Exact polarizability:  76.088   0.207  78.355   0.000  -0.003  68.628
 Approx polarizability: 116.652  -9.217 113.696  -0.002  -0.007 103.744

                      1                      2                      3
                      A                      A                      A
 Frequencies --    150.1514               156.7657               224.7784
 Red. masses --      6.8918                 1.1746                 1.9834
 Frc consts  --      0.0915                 0.0170                 0.0590
 IR Inten    --      3.6795                39.5818                 5.4296

                      4                      5                      6
                      A                      A                      A
 Frequencies --    236.5176               259.4105               288.3484
 Red. masses --      1.3484                 3.2059                 1.5445
 Frc consts  --      0.0444                 0.1271                 0.0757
 IR Inten    --     17.9672                 0.0079                16.0573

                      7                      8                      9
                      A                      A                      A
 Frequencies --    370.8793               389.8209               503.5895
 Red. masses --      4.2183                 3.1220                 4.0646
 Frc consts  --      0.3419                 0.2795                 0.6073
 IR Inten    --      4.1968                 4.9608                 2.8620

                     10                     11                     12
                      A                      A                      A
 Frequencies --    506.7404               620.4682               673.8575
 Red. masses --      2.8910                 4.7874                 5.3864
 Frc consts  --      0.4374                 1.0859                 1.4411
 IR Inten    --      0.3394                 3.0652                10.8706

                     13                     14                     15
                      A                      A                      A
 Frequencies --    677.5865               735.7955               774.4348
 Red. masses --      2.9431                 4.0449                 2.9306
 Frc consts  --      0.7961                 1.2902                 1.0356
 IR Inten    --      0.1847                 2.2233                 6.7340

                     16                     17                     18
                      A                      A                      A
 Frequencies --    851.6697               886.8603               916.5942
 Red. masses --      1.4285                 3.0768                 1.9596
 Frc consts  --      0.6105                 1.4258                 0.9700
 IR Inten    --      1.7445                 0.0196                 3.3613

                     19                     20                     21
                      A                      A                      A
 Frequencies --    959.0021               970.2205               978.2791
 Red. masses --      2.5164                 1.3685                 2.4508
 Frc consts  --      1.3635                 0.7590                 1.3819
 IR Inten    --      8.5474                 1.0481                 9.1564

                     22                     23                     24
                      A                      A                      A
 Frequencies --   1014.1201              1055.7877              1060.0761
 Red. masses --      2.5481                 1.4765                 1.9020
 Frc consts  --      1.5440                 0.9697                 1.2593
 IR Inten    --      2.6746                40.4287                11.6234

                     25                     26                     27
                      A                      A                      A
 Frequencies --   1118.2553              1125.4640              1168.1565
 Red. masses --      1.3247                 1.8649                 2.4695
 Frc consts  --      0.9760                 1.3918                 1.9855
 IR Inten    --     13.7152                 7.6901                17.3051

                     28                     29                     30
                      A                      A                      A
 Frequencies --   1179.1542              1200.6361              1202.4537
 Red. masses --      1.6081                 1.6441                 1.8802
 Frc consts  --      1.3173                 1.3964                 1.6018
 IR Inten    --      1.3685                 0.1131                53.4043

                     31                     32                     33
                      A                      A                      A
 Frequencies --   1245.1809              1270.8646              1311.6527
 Red. masses --      1.1435                 2.3688                 1.5664
 Frc consts  --      1.0446                 2.2542                 1.5878
 IR Inten    --      0.8794                57.0990                 0.9677

                     34                     35                     36
                      A                      A                      A
 Frequencies --   1319.7816              1370.7208              1424.0740
 Red. masses --      1.5033                 1.7164                 1.3816
 Frc consts  --      1.5428                 1.9001                 1.6508
 IR Inten    --      0.0616                96.3823                13.4098

                     37                     38                     39
                      A                      A                      A
 Frequencies --   1480.4284              1501.4357              1502.9368
 Red. masses --      1.0463                 1.0579                 1.0751
 Frc consts  --      1.3511                 1.4051                 1.4308
 IR Inten    --      3.2545                 1.8048                 0.5855

                     40                     41                     42
                      A                      A                      A
 Frequencies --   1518.6360              1904.6728              3045.0497
 Red. masses --      1.0950                12.1664                 1.0661
 Frc consts  --      1.4879                26.0048                 5.8241
 IR Inten    --      1.8608               269.7724                22.3053

                     43                     44                     45
                      A                      A                      A
 Frequencies --   3046.4897              3056.8585              3095.6352
 Red. masses --      1.0350                 1.0643                 1.1002
 Frc consts  --      5.6598                 5.8598                 6.2119
 IR Inten    --     15.0532                43.2420                 2.3281

                     46                     47                     48
                      A                      A                      A
 Frequencies --   3112.1883              3117.2402              3127.1432
 Red. masses --      1.1013                 1.1019                 1.1019
 Frc consts  --      6.2846                 6.3086                 6.3487
 IR Inten    --     29.7066                13.3716                16.7708

                     49                     50                     51
                      A                      A                      A
 Frequencies --   3143.5854              3146.6916              3834.0450
 Red. masses --      1.0893                 1.0922                 1.0651
 Frc consts  --      6.3425                 6.3720                 9.2244
 IR Inten    --     30.9644                 3.0266                10.6885

 - Thermochemistry -
 -------------------
 Temperature   298.150 Kelvin.  Pressure   1.00000 Atm.
 Atom     1 has atomic number  6 and mass  12.00000

 Molecular mass:   126.06808 amu.
 Principal axes and moments of inertia in atomic units:
                           1         2         3
     Eigenvalues --   775.08958 970.200281331.05660
           X            0.97736   0.21157   0.00002
           Y           -0.21157   0.97736  -0.00002
           Z           -0.00002   0.00002   1.00000
 This molecule is an asymmetric top.
 Rotational symmetry number  1.
 Warning -- assumption of classical behavior for rotation
           may cause significant error
 Rotational temperatures (Kelvin)      0.11175     0.08927     0.06507
 Rotational constants (GHZ):           2.32843     1.86017     1.35587
 Zero-point vibrational energy     417683.2 (Joules/Mol)
                                   99.82869 (Kcal/Mol)
 Warning -- explicit consideration of  11 degrees of freedom as
           vibrations may cause significant error
 Vibrational temperatures:    216.03   225.55   323.41   340.30   373.23
          (Kelvin)            414.87   533.61   560.86   724.55   729.09
                              892.71   969.53   974.89  1058.64  1114.24
                             1225.36  1275.99  1318.77  1379.79  1395.93
                             1407.52  1459.09  1519.04  1525.21  1608.92
                             1619.29  1680.71  1696.54  1727.45  1730.06
                             1791.54  1828.49  1887.17  1898.87  1972.16
                             2048.92  2130.00  2160.23  2162.39  2184.98
                             2740.40  4381.14  4383.21  4398.13  4453.92
                             4477.74  4485.01  4499.26  4522.91  4527.38
                             5516.33

 Zero-point correction=                           0.159087 (Hartree/Particle)
 Thermal correction to Energy=                    0.167400
 Thermal correction to Enthalpy=                  0.168344
 Thermal correction to Gibbs Free Energy=         0.126816
 Sum of electronic and zero-point Energies=           -423.032274
 Sum of electronic and thermal Energies=              -423.023961
 Sum of electronic and thermal Enthalpies=            -423.023017
 Sum of electronic and thermal Free Energies=         -423.064545

                     E (Thermal)             CV                S
                      KCal/Mol        Cal/Mol-Kelvin    Cal/Mol-Kelvin
 Total                  105.045             32.818             87.403
 Electronic               0.000              0.000              0.000
 Translational            0.889              2.981             40.409
 Rotational               0.889              2.981             28.395
 Vibrational            103.268             26.857             18.600
 Vibration     1          0.618              1.902              2.670
 Vibration     2          0.620              1.895              2.588
 Vibration     3          0.649              1.803              1.920
 Vibration     4          0.655              1.785              1.829
 Vibration     5          0.668              1.747              1.666
 Vibration     6          0.685              1.695              1.484
 Vibration     7          0.743              1.532              1.076
 Vibration     8          0.758              1.492              1.001
 Vibration     9          0.859              1.242              0.649
 Vibration    10          0.862              1.235              0.641
 Vibration    11          0.981              0.989              0.416

 Normal termination of Gaussian 09 at Mon Jan 27 17:50:12 2020.
 Normal termination of Gaussian 09 at Mon Jan 27 16:24:39 2020.
