 Gaussian 09, Revision D.01,
 Gaussian 09:  ES64L-G09RevD.01 24-Apr-2013

 -----------------------------
 # b3lyp 6-31G(2df,p) opt Freq
 -----------------------------

 -----
 titel
 -----
 Symbolic Z-matrix:
 Charge =  0 Multiplicity = 1

 SCF Done:  E(RB3LYP) =  -423.175770670     A.U. after   14 cycles
 Optimization completed.
    -- Stationary point found.
 Normal termination of Gaussian 09 at Mon Jan 27 23:04:29 2020.

 ----------------------------------------------------------------------
 #N Geom=AllCheck Guess=TCheck SCRF=Check GenChk RB3LYP/6-31G(2df,p) Fr
 eq
 ----------------------------------------------------------------------

 Structure from the checkpoint file:  "/scratch/puck/g09_1cd637b4-925c-4fba-8b62-976ba5711c91/Gau-182269.chk"
 -----
 titel
 -----
 Charge =  0 Multiplicity = 1

                         Standard orientation:
 ---------------------------------------------------------------------
 Center     Atomic      Atomic             Coordinates (Angstroms)
 Number     Number       Type             X           Y           Z
 ---------------------------------------------------------------------
      1          6           0        1.609840    1.539608    0.175877
      2          6           0        0.408963    0.635417    0.046358
      3          6           0       -0.878305    1.365516   -0.386664
      4          6           0       -2.053145    0.414403   -0.339745
      5          6           0       -1.846458   -0.838625    0.063215
      6          6           0       -0.428085   -1.181334    0.446278
      7          8           0        0.117985   -0.107706    1.283485
      8          6           0        0.547259   -0.744084   -0.675734
      9          8           0        1.826928   -1.314828   -0.593978
     10          1           0        2.520799    0.967383    0.363966
     11          1           0        1.754342    2.117682   -0.742711
     12          1           0        1.460129    2.241889    1.002541
     13          1           0       -1.053341    2.228567    0.270885
     14          1           0       -0.749540    1.773578   -1.398693
     15          1           0       -3.035263    0.782391   -0.621485
     16          1           0       -2.629288   -1.587369    0.112550
     17          1           0       -0.291031   -2.167240    0.896083
     18          1           0        0.217044   -0.831637   -1.712359
     19          1           0        2.086426   -1.290374    0.335656
 ---------------------------------------------------------------------

 SCF Done:  E(RB3LYP) =  -423.175770670     A.U. after    1 cycles

 The electronic state is 1-A.
 Alpha  occ. eigenvalues --  -19.14228 -19.13228 -10.23848 -10.23383 -10.23280
 Alpha  occ. eigenvalues --  -10.19069 -10.18881 -10.18256 -10.17827  -1.05270
 Alpha  occ. eigenvalues --   -1.00937  -0.80984  -0.77115  -0.71575  -0.68705
 Alpha  occ. eigenvalues --   -0.61906  -0.57655  -0.54782  -0.50373  -0.46918
 Alpha  occ. eigenvalues --   -0.45687  -0.44796  -0.43466  -0.41550  -0.40265
 Alpha  occ. eigenvalues --   -0.38572  -0.38341  -0.37283  -0.34915  -0.33747
 Alpha  occ. eigenvalues --   -0.30749  -0.27389  -0.24925  -0.23589
 Alpha virt. eigenvalues --    0.00373   0.08294   0.09742   0.10815   0.11283
 Alpha virt. eigenvalues --    0.14418   0.15419   0.15712   0.16086   0.17484
 Alpha virt. eigenvalues --    0.17835   0.18571   0.19171   0.20867   0.22083

 Mulliken charges:
               1
     1  C   -0.469584
     2  C    0.335956
     3  C   -0.294203
     4  C   -0.073747
     5  C   -0.054014
     6  C   -0.020810
     7  O   -0.347341
     8  C    0.145576
     9  O   -0.453735
    10  H    0.117704
    11  H    0.121532
    12  H    0.128494
    13  H    0.113589
    14  H    0.109650
    15  H    0.097054
    16  H    0.094739
    17  H    0.074000
    18  H    0.088039
    19  H    0.287099
 Sum of Mulliken charges =   0.00000

 Dipole moment (field-independent basis, Debye):
    X=             -0.8087    Y=              0.6562    Z=             -0.4940  Tot=              1.1527
 Quadrupole moment (field-independent basis, Debye-Ang):
   XX=            -52.3120   YY=            -50.4769   ZZ=            -56.1707
   XY=              1.8523   XZ=              3.3863   YZ=             -2.9440

  Exact polarizability:  82.038   1.275  83.677   2.890  -5.076  59.678
 Approx polarizability: 109.807  -2.916 128.762   4.103 -10.023  99.524

                      1                      2                      3
                      A                      A                      A
 Frequencies --    167.7839               183.5996               224.5391
 Red. masses --      1.1299                 3.0009                 2.2175
 Frc consts  --      0.0187                 0.0596                 0.0659
 IR Inten    --      0.9656                 4.3288                 1.9093

                      4                      5                      6
                      A                      A                      A
 Frequencies --    280.8689               339.2332               366.4841
 Red. masses --      3.5707                 2.9639                 4.0542
 Frc consts  --      0.1660                 0.2010                 0.3208
 IR Inten    --      2.4424                 2.2685                 8.0871

                      7                      8                      9
                      A                      A                      A
 Frequencies --    381.7695               461.3977               485.9267
 Red. masses --      2.1181                 1.3145                 2.5302
 Frc consts  --      0.1819                 0.1649                 0.3520
 IR Inten    --      3.8943                79.5281                 5.9408

                     10                     11                     12
                      A                      A                      A
 Frequencies --    521.5106               553.2631               663.1690
 Red. masses --      4.2168                 3.8456                 3.9010
 Frc consts  --      0.6757                 0.6936                 1.0108
 IR Inten    --      7.6425                 5.0312                 1.4960

                     13                     14                     15
                      A                      A                      A
 Frequencies --    701.6007               794.1128               823.9752
 Red. masses --      1.5102                 3.6917                 2.6894
 Frc consts  --      0.4380                 1.3716                 1.0758
 IR Inten    --     19.0131                17.1166                 9.9226

                     16                     17                     18
                      A                      A                      A
 Frequencies --    891.5781               907.7451               920.9176
 Red. masses --      2.2232                 3.3172                 4.6571
 Frc consts  --      1.0412                 1.6105                 2.3271
 IR Inten    --     17.9474                37.4182                40.4879

                     19                     20                     21
                      A                      A                      A
 Frequencies --    954.5304               964.1357               975.7283
 Red. masses --      2.6254                 1.4792                 2.4512
 Frc consts  --      1.4094                 0.8101                 1.3749
 IR Inten    --     12.6204                 5.8474                 0.0969

                     22                     23                     24
                      A                      A                      A
 Frequencies --    982.2605              1000.4825              1104.3528
 Red. masses --      1.4751                 1.7519                 2.3690
 Frc consts  --      0.8386                 1.0332                 1.7023
 IR Inten    --      2.7892                13.4686                50.5871

                     25                     26                     27
                      A                      A                      A
 Frequencies --   1114.8802              1154.6840              1182.2373
 Red. masses --      2.2650                 1.2913                 1.6531
 Frc consts  --      1.6587                 1.0144                 1.3613
 IR Inten    --     51.5219                17.1174                 3.2447

                     28                     29                     30
                      A                      A                      A
 Frequencies --   1203.0010              1220.0476              1230.7543
 Red. masses --      1.4325                 1.6825                 1.7190
 Frc consts  --      1.2214                 1.4755                 1.5341
 IR Inten    --     13.4746                 9.0805                10.5699

                     31                     32                     33
                      A                      A                      A
 Frequencies --   1267.4256              1298.2150              1333.8915
 Red. masses --      1.7620                 1.6409                 1.4661
 Frc consts  --      1.6677                 1.6294                 1.5369
 IR Inten    --      2.8313                 2.6575                10.6488

                     34                     35                     36
                      A                      A                      A
 Frequencies --   1362.8935              1388.9444              1409.2319
 Red. masses --      1.7645                 1.6207                 1.4016
 Frc consts  --      1.9311                 1.8421                 1.6400
 IR Inten    --      3.0512                 1.0257                12.8750

                     37                     38                     39
                      A                      A                      A
 Frequencies --   1430.7589              1465.6423              1481.8693
 Red. masses --      1.3031                 1.0957                 1.0531
 Frc consts  --      1.5717                 1.3867                 1.3625
 IR Inten    --     65.1829                 3.3762                 5.0620

                     40                     41                     42
                      A                      A                      A
 Frequencies --   1487.5567              1699.3227              3006.4069
 Red. masses --      1.0657                 6.2668                 1.0596
 Frc consts  --      1.3895                10.6622                 5.6428
 IR Inten    --     10.8983                 4.4469                30.9890

                     43                     44                     45
                      A                      A                      A
 Frequencies --   3035.8159              3040.9211              3089.8972
 Red. masses --      1.1002                 1.0367                 1.0883
 Frc consts  --      5.9744                 5.6483                 6.1220
 IR Inten    --     16.5812                16.6691                43.2917

                     46                     47                     48
                      A                      A                      A
 Frequencies --   3101.9485              3107.5669              3128.8230
 Red. masses --      1.0886                 1.1007                 1.0998
 Frc consts  --      6.1717                 6.2628                 6.3434
 IR Inten    --     26.1037                16.0062                16.2860

                     49                     50                     51
                      A                      A                      A
 Frequencies --   3167.4902              3196.2163              3779.4984
 Red. masses --      1.0857                 1.0998                 1.0650
 Frc consts  --      6.4180                 6.6195                 8.9635
 IR Inten    --      9.2924                24.3196                20.4420

 - Thermochemistry -
 -------------------
 Temperature   298.150 Kelvin.  Pressure   1.00000 Atm.
 Atom     1 has atomic number  6 and mass  12.00000

 Molecular mass:   126.06808 amu.
 Principal axes and moments of inertia in atomic units:
                           1         2         3
     Eigenvalues --   704.58820 996.879361334.59214
           X            0.99767   0.06549   0.01892
           Y           -0.06500   0.99757  -0.02522
           Z           -0.02052   0.02393   0.99950
 This molecule is an asymmetric top.
 Rotational symmetry number  1.
 Warning -- assumption of classical behavior for rotation
           may cause significant error
 Rotational temperatures (Kelvin)      0.12293     0.08688     0.06490
 Rotational constants (GHZ):           2.56141     1.81039     1.35228
 Zero-point vibrational energy     418913.7 (Joules/Mol)
                                  100.12278 (Kcal/Mol)
 Warning -- explicit consideration of  11 degrees of freedom as
           vibrations may cause significant error
 Vibrational temperatures:    241.40   264.16   323.06   404.11   488.08
          (Kelvin)            527.29   549.28   663.85   699.14   750.34
                              796.02   954.15  1009.45  1142.55  1185.51
                             1282.78  1306.04  1324.99  1373.35  1387.17
                             1403.85  1413.25  1439.47  1588.92  1604.06
                             1661.33  1700.97  1730.85  1755.37  1770.78
                             1823.54  1867.84  1919.17  1960.90  1998.38
                             2027.57  2058.54  2108.73  2132.08  2140.26
                             2444.94  4325.54  4367.86  4375.20  4445.67
                             4463.01  4471.09  4501.67  4557.31  4598.64
                             5437.85

 Zero-point correction=                           0.159556 (Hartree/Particle)
 Thermal correction to Energy=                    0.167454
 Thermal correction to Enthalpy=                  0.168398
 Thermal correction to Gibbs Free Energy=         0.127824
 Sum of electronic and zero-point Energies=           -423.016215
 Sum of electronic and thermal Energies=              -423.008317
 Sum of electronic and thermal Enthalpies=            -423.007372
 Sum of electronic and thermal Free Energies=         -423.047946

                     E (Thermal)             CV                S
                      KCal/Mol        Cal/Mol-Kelvin    Cal/Mol-Kelvin
 Total                  105.079             32.049             85.395
 Electronic               0.000              0.000              0.000
 Translational            0.889              2.981             40.409
 Rotational               0.889              2.981             28.329
 Vibrational            103.302             26.087             16.657
 Vibration     1          0.625              1.882              2.460
 Vibration     2          0.631              1.862              2.291
 Vibration     3          0.649              1.804              1.922
 Vibration     4          0.681              1.709              1.528
 Vibration     5          0.719              1.597              1.216
 Vibration     6          0.739              1.541              1.094
 Vibration     7          0.751              1.509              1.032
 Vibration     8          0.819              1.336              0.762
 Vibration     9          0.842              1.281              0.694
 Vibration    10          0.876              1.202              0.606
 Vibration    11          0.909              1.133              0.537

 Optimization completed.
    -- Stationary point found.
 Normal termination of Gaussian 09 at Mon Jan 27 23:53:21 2020.
