 Gaussian 09, Revision D.01,
 Gaussian 09:  ES64L-G09RevD.01 24-Apr-2013

 -----------------------------
 # b3lyp 6-31G(2df,p) opt Freq
 -----------------------------

 -----
 titel
 -----
 Symbolic Z-matrix:
 Charge =  0 Multiplicity = 1

 SCF Done:  E(RB3LYP) =  -423.189861577     A.U. after   14 cycles
 Optimization completed.
    -- Stationary point found.
 Normal termination of Gaussian 09 at Tue Jan 28 08:23:56 2020.

 ----------------------------------------------------------------------
 #N Geom=AllCheck Guess=TCheck SCRF=Check GenChk RB3LYP/6-31G(2df,p) Fr
 eq
 ----------------------------------------------------------------------

 Structure from the checkpoint file:  "/scratch/puck/g09_bdc9da0c-5145-4fc5-a1d4-373d392b3c91/Gau-81458.chk"
 -----
 titel
 -----
 Charge =  0 Multiplicity = 1

                         Standard orientation:
 ---------------------------------------------------------------------
 Center     Atomic      Atomic             Coordinates (Angstroms)
 Number     Number       Type             X           Y           Z
 ---------------------------------------------------------------------
      1          6           0        1.694492    1.874668   -0.141077
      2          6           0        1.156689    0.779666    0.788071
      3          6           0        0.757645   -0.499020    0.065257
      4          6           0        1.909666   -1.341876   -0.458726
      5          6           0       -0.446204   -1.286055    0.456379
      6          8           0       -1.483725   -0.427295    0.998375
      7          6           0       -1.614275    0.204163   -0.239956
      8          8           0       -2.421760    1.018238   -0.547191
      9          6           0       -0.483656   -0.559847   -0.869207
     10          1           0        0.940709    2.164694   -0.879776
     11          1           0        1.960918    2.766997    0.432745
     12          1           0        2.589794    1.551984   -0.682110
     13          1           0        1.918041    0.519575    1.534729
     14          1           0        0.299119    1.161736    1.348009
     15          1           0        2.492969   -0.794401   -1.205009
     16          1           0        2.582624   -1.614104    0.361175
     17          1           0        1.556032   -2.265738   -0.927206
     18          1           0       -0.510761   -2.339371    0.693820
     19          1           0       -0.431691   -0.909113   -1.890291
 ---------------------------------------------------------------------

 SCF Done:  E(RB3LYP) =  -423.189861577     A.U. after    1 cycles

 The electronic state is 1-A.
 Alpha  occ. eigenvalues --  -19.17695 -19.13598 -10.31069 -10.26203 -10.23068
 Alpha  occ. eigenvalues --  -10.21503 -10.19925 -10.19257 -10.18090  -1.10787
 Alpha  occ. eigenvalues --   -1.03630  -0.87540  -0.77184  -0.72945  -0.66694
 Alpha  occ. eigenvalues --   -0.64373  -0.57408  -0.54075  -0.51862  -0.49542
 Alpha  occ. eigenvalues --   -0.47119  -0.44942  -0.43220  -0.42456  -0.40878
 Alpha  occ. eigenvalues --   -0.40101  -0.38849  -0.37958  -0.36175  -0.34499
 Alpha  occ. eigenvalues --   -0.33796  -0.29546  -0.27873  -0.27267
 Alpha virt. eigenvalues --    0.00108   0.07749   0.08737   0.10401   0.10952
 Alpha virt. eigenvalues --    0.13081   0.13422   0.14193   0.15176   0.15757
 Alpha virt. eigenvalues --    0.16475   0.17653   0.19049   0.20671   0.21047

 Mulliken charges:
               1
     1  C   -0.385149
     2  C   -0.260158
     3  C    0.300046
     4  C   -0.461661
     5  C    0.022143
     6  O   -0.261660
     7  C    0.464931
     8  O   -0.327461
     9  C   -0.326862
    10  H    0.132336
    11  H    0.120701
    12  H    0.115076
    13  H    0.098461
    14  H    0.132036
    15  H    0.135864
    16  H    0.130098
    17  H    0.121528
    18  H    0.126714
    19  H    0.123018
 Sum of Mulliken charges =   0.00000

 Dipole moment (field-independent basis, Debye):
    X=              3.6121    Y=             -2.3172    Z=             -0.4843  Tot=              4.3187
 Quadrupole moment (field-independent basis, Debye-Ang):
   XX=            -60.1914   YY=            -51.3740   ZZ=            -53.6087
   XY=              3.5329   XZ=              0.3863   YZ=              1.6904

  Exact polarizability:  84.591  -5.029  75.711   2.140  -1.512  65.579
 Approx polarizability: 120.553 -13.291 110.173   5.174  -8.095 107.184

                      1                      2                      3
                      A                      A                      A
 Frequencies --     58.7733               127.9942               184.5073
 Red. masses --      2.6533                 3.3409                 2.3939
 Frc consts  --      0.0054                 0.0322                 0.0480
 IR Inten    --      0.9957                 1.0758                 1.8962

                      4                      5                      6
                      A                      A                      A
 Frequencies --    215.6149               232.9434               259.7376
 Red. masses --      1.1431                 1.4326                 2.3085
 Frc consts  --      0.0313                 0.0458                 0.0918
 IR Inten    --      0.0608                 0.8415                 0.1969

                      7                      8                      9
                      A                      A                      A
 Frequencies --    291.9632               360.3393               464.3476
 Red. masses --      3.7323                 2.3129                 3.6045
 Frc consts  --      0.1874                 0.1769                 0.4579
 IR Inten    --      1.7307                 0.0655                 1.2527

                     10                     11                     12
                      A                      A                      A
 Frequencies --    495.1724               551.8398               637.6981
 Red. masses --      4.2310                 3.7308                 4.9780
 Frc consts  --      0.6112                 0.6694                 1.1927
 IR Inten    --      3.7046                 0.5167                 1.1115

                     13                     14                     15
                      A                      A                      A
 Frequencies --    726.9099               781.9498               799.0025
 Red. masses --      3.4948                 2.7579                 1.6895
 Frc consts  --      1.0880                 0.9935                 0.6355
 IR Inten    --      1.2850                 8.1518                 6.7502

                     16                     17                     18
                      A                      A                      A
 Frequencies --    834.2474               848.7222               907.3298
 Red. masses --      1.2722                 2.9659                 3.3246
 Frc consts  --      0.5217                 1.2588                 1.6126
 IR Inten    --      9.2786                 5.8113                42.0123

                     19                     20                     21
                      A                      A                      A
 Frequencies --    948.1409               963.7974              1011.2163
 Red. masses --      2.4047                 2.3760                 2.1131
 Frc consts  --      1.2737                 1.3004                 1.2731
 IR Inten    --     37.4495                12.7060                21.8834

                     22                     23                     24
                      A                      A                      A
 Frequencies --   1018.3840              1038.7967              1063.0054
 Red. masses --      1.6719                 1.7040                 1.7120
 Frc consts  --      1.0216                 1.0834                 1.1398
 IR Inten    --     18.5382                14.2719                 3.7365

                     25                     26                     27
                      A                      A                      A
 Frequencies --   1074.5240              1100.8434              1128.8668
 Red. masses --      2.8172                 2.1828                 2.0314
 Frc consts  --      1.9164                 1.5586                 1.5252
 IR Inten    --     18.3558                10.5047                17.3017

                     28                     29                     30
                      A                      A                      A
 Frequencies --   1186.6884              1251.3862              1277.0521
 Red. masses --      1.7649                 1.8974                 1.7797
 Frc consts  --      1.4643                 1.7507                 1.7101
 IR Inten    --      3.2690                15.2212                10.5926

                     31                     32                     33
                      A                      A                      A
 Frequencies --   1311.1108              1359.1114              1401.3288
 Red. masses --      1.5883                 1.6251                 2.5931
 Frc consts  --      1.6086                 1.7687                 3.0002
 IR Inten    --      5.4694                 3.9844                 3.5716

                     34                     35                     36
                      A                      A                      A
 Frequencies --   1411.4054              1420.4889              1484.4633
 Red. masses --      1.2435                 1.2258                 1.0561
 Frc consts  --      1.4594                 1.4573                 1.3711
 IR Inten    --      2.5813                 3.9555                 1.9549

                     37                     38                     39
                      A                      A                      A
 Frequencies --   1494.9758              1502.3699              1505.5855
 Red. masses --      1.0435                 1.0653                 1.0552
 Frc consts  --      1.3741                 1.4167                 1.4093
 IR Inten    --      3.0417                 4.0389                 6.7398

                     40                     41                     42
                      A                      A                      A
 Frequencies --   1510.3834              1940.1915              3028.5961
 Red. masses --      1.0969                12.7510                 1.0670
 Frc consts  --      1.4743                28.2803                 5.7661
 IR Inten    --      3.0064               458.4554                20.3953

                     43                     44                     45
                      A                      A                      A
 Frequencies --   3035.9765              3039.4426              3088.4975
 Red. masses --      1.0370                 1.0354                 1.0940
 Frc consts  --      5.6316                 5.6359                 6.1483
 IR Inten    --     21.1416                21.6671                 0.5791

                     46                     47                     48
                      A                      A                      A
 Frequencies --   3104.1204              3107.8324              3112.1504
 Red. masses --      1.1014                 1.1003                 1.1003
 Frc consts  --      6.2530                 6.2615                 6.2786
 IR Inten    --     16.0010                23.4994                23.5232

                     49                     50                     51
                      A                      A                      A
 Frequencies --   3113.8375              3210.6052              3226.6744
 Red. masses --      1.1018                 1.0915                 1.0985
 Frc consts  --      6.2944                 6.6288                 6.7385
 IR Inten    --     32.9377                 5.6717                 1.1744

 - Thermochemistry -
 -------------------
 Temperature   298.150 Kelvin.  Pressure   1.00000 Atm.
 Atom     1 has atomic number  6 and mass  12.00000

 Molecular mass:   126.06808 amu.
 Principal axes and moments of inertia in atomic units:
                           1         2         3
     Eigenvalues --   729.321451256.789011590.99172
           X            0.99946   0.03229  -0.00585
           Y           -0.03208   0.99893   0.03318
           Z            0.00691  -0.03297   0.99943
 This molecule is an asymmetric top.
 Rotational symmetry number  1.
 Warning -- assumption of classical behavior for rotation
           may cause significant error
 Rotational temperatures (Kelvin)      0.11876     0.06892     0.05444
 Rotational constants (GHZ):           2.47455     1.43599     1.13435
 Zero-point vibrational energy     414212.6 (Joules/Mol)
                                   98.99919 (Kcal/Mol)
 Warning -- explicit consideration of  11 degrees of freedom as
           vibrations may cause significant error
 Vibrational temperatures:     84.56   184.15   265.46   310.22   335.15
          (Kelvin)            373.70   420.07   518.45   668.09   712.44
                              793.97   917.50  1045.86  1125.05  1149.58
                             1200.29  1221.12  1305.44  1364.16  1386.69
                             1454.91  1465.23  1494.59  1529.43  1546.00
                             1583.87  1624.19  1707.38  1800.46  1837.39
                             1886.39  1955.46  2016.20  2030.69  2043.76
                             2135.81  2150.93  2161.57  2166.20  2173.10
                             2791.50  4357.47  4368.09  4373.07  4443.65
                             4466.13  4471.47  4477.68  4480.11  4619.34
                             4642.46

 Zero-point correction=                           0.157765 (Hartree/Particle)
 Thermal correction to Energy=                    0.166645
 Thermal correction to Enthalpy=                  0.167589
 Thermal correction to Gibbs Free Energy=         0.124074
 Sum of electronic and zero-point Energies=           -423.032096
 Sum of electronic and thermal Energies=              -423.023216
 Sum of electronic and thermal Enthalpies=            -423.022272
 Sum of electronic and thermal Free Energies=         -423.065787

                     E (Thermal)             CV                S
                      KCal/Mol        Cal/Mol-Kelvin    Cal/Mol-Kelvin
 Total                  104.571             33.344             91.585
 Electronic               0.000              0.000              0.000
 Translational            0.889              2.981             40.409
 Rotational               0.889              2.981             28.768
 Vibrational            102.794             27.382             22.408
 Vibration     1          0.596              1.974              4.498
 Vibration     2          0.611              1.925              2.976
 Vibration     3          0.631              1.861              2.282
 Vibration     4          0.645              1.817              1.996
 Vibration     5          0.654              1.791              1.856
 Vibration     6          0.668              1.746              1.664
 Vibration     7          0.687              1.689              1.463
 Vibration     8          0.735              1.554              1.121
 Vibration     9          0.822              1.329              0.754
 Vibration    10          0.851              1.261              0.670
 Vibration    11          0.907              1.136              0.540

 Optimization completed.
    -- Stationary point found.
 Normal termination of Gaussian 09 at Tue Jan 28 09:11:57 2020.
