 Gaussian 09, Revision D.01,
 Gaussian 09:  ES64L-G09RevD.01 24-Apr-2013

 -----------------------------
 # b3lyp 6-31G(2df,p) opt Freq
 -----------------------------

 -----
 titel
 -----
 Symbolic Z-matrix:
 Charge =  0 Multiplicity = 1

 SCF Done:  E(RB3LYP) =  -423.093875596     A.U. after   13 cycles
 Optimization completed.
    -- Stationary point found.
 Normal termination of Gaussian 09 at Tue Jan 28 02:54:48 2020.

 ----------------------------------------------------------------------
 #N Geom=AllCheck Guess=TCheck SCRF=Check GenChk RB3LYP/6-31G(2df,p) Fr
 eq
 ----------------------------------------------------------------------

 Structure from the checkpoint file:  "/scratch/puck/g09_262171fe-41fd-4449-afca-cb34cd8120ca/Gau-92252.chk"
 -----
 titel
 -----
 Charge =  0 Multiplicity = 1

                         Standard orientation:
 ---------------------------------------------------------------------
 Center     Atomic      Atomic             Coordinates (Angstroms)
 Number     Number       Type             X           Y           Z
 ---------------------------------------------------------------------
      1          6           0        2.513902    0.075168   -0.347533
      2          6           0        1.215940   -0.709440   -0.240279
      3          6           0        0.598971   -0.867745    1.216522
      4          6           0       -0.644066   -0.077940    0.731899
      5          6           0       -0.697332    1.463997    0.727552
      6          8           0       -0.121175    1.489221   -0.628471
      7          6           0       -0.091363    0.047291   -0.643861
      8          6           0       -1.366780   -0.692167   -1.099379
      9          8           0       -1.820799   -0.789958    0.298408
     10          1           0        3.323274   -0.447481    0.172829
     11          1           0        2.810774    0.205931   -1.393243
     12          1           0        2.409334    1.071879    0.090722
     13          1           0        1.309712   -1.668481   -0.758657
     14          1           0        0.370266   -1.894225    1.507249
     15          1           0        1.175443   -0.389595    2.013569
     16          1           0       -1.705644    1.889371    0.750028
     17          1           0       -0.052070    1.983306    1.445291
     18          1           0       -2.051179   -0.095797   -1.711224
     19          1           0       -1.229742   -1.684000   -1.545584
 ---------------------------------------------------------------------

 SCF Done:  E(RB3LYP) =  -423.093875596     A.U. after    1 cycles

 The electronic state is 1-A.
 Alpha  occ. eigenvalues --  -19.14274 -19.14081 -10.23899 -10.23815 -10.22815
 Alpha  occ. eigenvalues --  -10.22594 -10.20282 -10.19394 -10.17871  -1.06721
 Alpha  occ. eigenvalues --   -1.01015  -0.82891  -0.73600  -0.71612  -0.67329
 Alpha  occ. eigenvalues --   -0.63432  -0.59219  -0.51386  -0.50009  -0.48193
 Alpha  occ. eigenvalues --   -0.47497  -0.44046  -0.42603  -0.42283  -0.40904
 Alpha  occ. eigenvalues --   -0.39920  -0.38105  -0.36564  -0.34048  -0.33178
 Alpha  occ. eigenvalues --   -0.31638  -0.25663  -0.25098  -0.23984
 Alpha virt. eigenvalues --    0.03526   0.08388   0.09087   0.09988   0.12267
 Alpha virt. eigenvalues --    0.12718   0.13356   0.14842   0.15216   0.16228
 Alpha virt. eigenvalues --    0.16959   0.17638   0.18251   0.19958   0.21072

 Mulliken charges:
               1
     1  C   -0.397855
     2  C   -0.052451
     3  C   -0.320731
     4  C    0.320687
     5  C   -0.151721
     6  O   -0.336309
     7  C    0.310026
     8  C   -0.154867
     9  O   -0.336039
    10  H    0.113765
    11  H    0.122060
    12  H    0.128160
    13  H    0.078858
    14  H    0.119731
    15  H    0.105522
    16  H    0.118805
    17  H    0.107802
    18  H    0.117414
    19  H    0.107143
 Sum of Mulliken charges =   0.00000

 Dipole moment (field-independent basis, Debye):
    X=              1.1721    Y=             -0.5994    Z=              0.2850  Tot=              1.3470
 Quadrupole moment (field-independent basis, Debye-Ang):
   XX=            -55.1333   YY=            -54.2124   ZZ=            -51.4657
   XY=             -2.8517   XZ=              2.1716   YZ=              4.0808

  Exact polarizability:  78.584  -1.869  72.098   3.294   4.457  70.260
 Approx polarizability: 105.711  -0.238 106.608   1.667   3.912 107.764

                      1                      2                      3
                      A                      A                      A
 Frequencies --    101.6649               211.3288               225.7494
 Red. masses --      2.7972                 1.0461                 3.1272
 Frc consts  --      0.0170                 0.0275                 0.0939
 IR Inten    --      0.9625                 0.2464                 4.3369

                      4                      5                      6
                      A                      A                      A
 Frequencies --    245.8564               308.0776               348.1019
 Red. masses --      2.6650                 2.0719                 3.7657
 Frc consts  --      0.0949                 0.1159                 0.2688
 IR Inten    --      2.7115                 1.4217                 5.0230

                      7                      8                      9
                      A                      A                      A
 Frequencies --    370.3645               429.8637               548.2588
 Red. masses --      2.3883                 2.8625                 4.0288
 Frc consts  --      0.1930                 0.3116                 0.7135
 IR Inten    --      2.5618                 1.8467                11.9211

                     10                     11                     12
                      A                      A                      A
 Frequencies --    670.4547               712.1933               726.7372
 Red. masses --      3.2064                 3.8540                 3.8199
 Frc consts  --      0.8492                 1.1518                 1.1886
 IR Inten    --      1.6508                 0.4838                 3.7278

                     13                     14                     15
                      A                      A                      A
 Frequencies --    802.2122               848.2258               874.5160
 Red. masses --      2.5165                 1.9874                 2.0822
 Frc consts  --      0.9542                 0.8425                 0.9382
 IR Inten    --      1.3625                 3.8636                10.6576

                     16                     17                     18
                      A                      A                      A
 Frequencies --    889.9824               901.3504               922.6123
 Red. masses --      3.8047                 2.1759                 6.7052
 Frc consts  --      1.7756                 1.0415                 3.3628
 IR Inten    --     27.4094                 7.6921                15.6335

                     19                     20                     21
                      A                      A                      A
 Frequencies --    957.2169               963.6311              1025.0597
 Red. masses --      3.0373                 1.7508                 1.6153
 Frc consts  --      1.6397                 0.9579                 1.0000
 IR Inten    --     70.9423                27.8454                13.0396

                     22                     23                     24
                      A                      A                      A
 Frequencies --   1057.5589              1131.4785              1137.7208
 Red. masses --      2.5050                 1.6143                 1.5880
 Frc consts  --      1.6507                 1.2176                 1.2111
 IR Inten    --      4.9781                 1.2486                 8.6347

                     25                     26                     27
                      A                      A                      A
 Frequencies --   1138.3397              1184.5628              1188.2289
 Red. masses --      1.2950                 2.3301                 1.7469
 Frc consts  --      0.9887                 1.9264                 1.4532
 IR Inten    --      0.7987                 2.4431                 3.0578

                     28                     29                     30
                      A                      A                      A
 Frequencies --   1209.4936              1239.7810              1249.3142
 Red. masses --      2.1393                 3.1529                 2.2594
 Frc consts  --      1.8439                 2.8553                 2.0777
 IR Inten    --      8.1640                14.7680                39.7054

                     31                     32                     33
                      A                      A                      A
 Frequencies --   1263.8469              1277.6415              1323.3497
 Red. masses --      2.0013                 1.6029                 1.4310
 Frc consts  --      1.8835                 1.5416                 1.4765
 IR Inten    --      0.6165                 2.6636                 0.4440

                     34                     35                     36
                      A                      A                      A
 Frequencies --   1342.9356              1348.4574              1411.0986
 Red. masses --      1.5884                 1.8021                 1.2484
 Frc consts  --      1.6878                 1.9307                 1.4646
 IR Inten    --      3.0604                 1.1688                 1.1842

                     37                     38                     39
                      A                      A                      A
 Frequencies --   1460.1378              1488.5726              1494.0614
 Red. masses --      1.1041                 1.0447                 1.0818
 Frc consts  --      1.3869                 1.3639                 1.4227
 IR Inten    --      3.6633                 2.4901                 1.8663

                     40                     41                     42
                      A                      A                      A
 Frequencies --   1499.2681              1501.6688              3026.0117
 Red. masses --      1.0697                 1.0959                 1.0560
 Frc consts  --      1.4167                 1.4560                 5.6974
 IR Inten    --      3.6463                 0.3348                99.3236

                     43                     44                     45
                      A                      A                      A
 Frequencies --   3028.2325              3035.0693              3054.8465
 Red. masses --      1.0556                 1.0357                 1.0853
 Frc consts  --      5.7034                 5.6209                 5.9674
 IR Inten    --     21.7838                23.3123                20.1385

                     46                     47                     48
                      A                      A                      A
 Frequencies --   3060.9085              3087.5746              3090.2821
 Red. masses --      1.0612                 1.1111                 1.1115
 Frc consts  --      5.8578                 6.2409                 6.2538
 IR Inten    --     25.6546                15.5327                38.1413

                     49                     50                     51
                      A                      A                      A
 Frequencies --   3101.7357              3113.4255              3130.1799
 Red. masses --      1.1016                 1.1009                 1.1060
 Frc consts  --      6.2443                 6.2875                 6.3848
 IR Inten    --     21.7882                23.2331                16.6101

 - Thermochemistry -
 -------------------
 Temperature   298.150 Kelvin.  Pressure   1.00000 Atm.
 Atom     1 has atomic number  6 and mass  12.00000

 Molecular mass:   126.06808 amu.
 Principal axes and moments of inertia in atomic units:
                           1         2         3
     Eigenvalues --   668.913601062.301661186.40636
           X            0.99946  -0.02805   0.01728
           Y            0.02568   0.99184   0.12490
           Z           -0.02064  -0.12439   0.99202
 This molecule is an asymmetric top.
 Rotational symmetry number  1.
 Warning -- assumption of classical behavior for rotation
           may cause significant error
 Rotational temperatures (Kelvin)      0.12948     0.08153     0.07301
 Rotational constants (GHZ):           2.69802     1.69890     1.52118
 Zero-point vibrational energy     417252.9 (Joules/Mol)
                                   99.72584 (Kcal/Mol)
 Warning -- explicit consideration of   9 degrees of freedom as
           vibrations may cause significant error
 Vibrational temperatures:    146.27   304.05   324.80   353.73   443.25
          (Kelvin)            500.84   532.87   618.48   788.82   964.63
                             1024.69  1045.61  1154.20  1220.41  1258.23
                             1280.48  1296.84  1327.43  1377.22  1386.45
                             1474.83  1521.59  1627.94  1636.92  1637.81
                             1704.32  1709.59  1740.19  1783.77  1797.48
                             1818.39  1838.24  1904.00  1932.18  1940.13
                             2030.25  2100.81  2141.72  2149.62  2157.11
                             2160.56  4353.75  4356.95  4366.78  4395.24
                             4403.96  4442.33  4446.22  4462.70  4479.52
                             4503.63

 Zero-point correction=                           0.158923 (Hartree/Particle)
 Thermal correction to Energy=                    0.166707
 Thermal correction to Enthalpy=                  0.167651
 Thermal correction to Gibbs Free Energy=         0.126983
 Sum of electronic and zero-point Energies=           -422.934952
 Sum of electronic and thermal Energies=              -422.927169
 Sum of electronic and thermal Enthalpies=            -422.926225
 Sum of electronic and thermal Free Energies=         -422.966892

                     E (Thermal)             CV                S
                      KCal/Mol        Cal/Mol-Kelvin    Cal/Mol-Kelvin
 Total                  104.610             30.794             85.593
 Electronic               0.000              0.000              0.000
 Translational            0.889              2.981             40.409
 Rotational               0.889              2.981             28.224
 Vibrational            102.833             24.832             16.960
 Vibration     1          0.604              1.948              3.422
 Vibration     2          0.643              1.824              2.032
 Vibration     3          0.650              1.802              1.912
 Vibration     4          0.660              1.770              1.760
 Vibration     5          0.698              1.658              1.373
 Vibration     6          0.726              1.579              1.175
 Vibration     7          0.742              1.533              1.078
 Vibration     8          0.791              1.405              0.859
 Vibration     9          0.903              1.143              0.548

 Optimization completed.
    -- Stationary point found.
 Normal termination of Gaussian 09 at Tue Jan 28 03:44:29 2020.
