 Gaussian 09, Revision D.01,
 Gaussian 09:  ES64L-G09RevD.01 24-Apr-2013

 -----------------------------
 # b3lyp 6-31G(2df,p) opt Freq
 -----------------------------

 -----
 titel
 -----
 Symbolic Z-matrix:
 Charge =  0 Multiplicity = 1

 SCF Done:  E(RB3LYP) =  -423.130351258     A.U. after   14 cycles
 Optimization completed.
    -- Stationary point found.
 Normal termination of Gaussian 09 at Tue Jan 28 08:19:05 2020.

 ----------------------------------------------------------------------
 #N Geom=AllCheck Guess=TCheck SCRF=Check GenChk RB3LYP/6-31G(2df,p) Fr
 eq
 ----------------------------------------------------------------------

 Structure from the checkpoint file:  "/scratch/puck/g09_9aff7a66-93ec-4f87-8c5d-65b7f7cf1c65/Gau-74498.chk"
 -----
 titel
 -----
 Charge =  0 Multiplicity = 1

                         Standard orientation:
 ---------------------------------------------------------------------
 Center     Atomic      Atomic             Coordinates (Angstroms)
 Number     Number       Type             X           Y           Z
 ---------------------------------------------------------------------
      1          6           0       -0.455559    2.568342   -0.126921
      2          6           0        0.188303    1.298562    0.383565
      3          6           0        0.740854    0.249721   -0.591110
      4          6           0        2.011856   -0.368748   -0.380342
      5          6           0        3.078166   -0.903745   -0.222367
      6          6           0       -0.453634   -0.045057    0.347888
      7          8           0       -0.219110   -0.834079    1.468824
      8          6           0       -1.796647   -0.332348   -0.283632
      9          8           0       -1.906621   -1.727130   -0.563808
     10          1           0        0.307914    3.319779   -0.353137
     11          1           0       -1.031189    2.400846   -1.041930
     12          1           0       -1.133395    2.994355    0.620654
     13          1           0        0.809290    1.424597    1.266092
     14          1           0        0.478254    0.420157   -1.633895
     15          1           0        4.020389   -1.369048   -0.072974
     16          1           0       -0.494856   -1.728204    1.224565
     17          1           0       -2.598111   -0.114837    0.429773
     18          1           0       -1.961388    0.274741   -1.182695
     19          1           0       -1.271095   -1.933078   -1.259070
 ---------------------------------------------------------------------

 SCF Done:  E(RB3LYP) =  -423.130351258     A.U. after    1 cycles

 The electronic state is 1-A.
 Alpha  occ. eigenvalues --  -19.15367 -19.14257 -10.24784 -10.23985 -10.20992
 Alpha  occ. eigenvalues --  -10.20301 -10.18921 -10.17687 -10.16480  -1.04647
 Alpha  occ. eigenvalues --   -1.01944  -0.86736  -0.74796  -0.72301  -0.70063
 Alpha  occ. eigenvalues --   -0.62707  -0.56604  -0.55057  -0.51209  -0.49497
 Alpha  occ. eigenvalues --   -0.48551  -0.46383  -0.44811  -0.42242  -0.40718
 Alpha  occ. eigenvalues --   -0.38040  -0.37122  -0.35432  -0.34342  -0.32058
 Alpha  occ. eigenvalues --   -0.28678  -0.27965  -0.25394  -0.23035
 Alpha virt. eigenvalues --    0.04878   0.05068   0.06101   0.09211   0.11232
 Alpha virt. eigenvalues --    0.12358   0.13334   0.14327   0.14920   0.15380
 Alpha virt. eigenvalues --    0.16433   0.16882   0.19381   0.20624   0.22870

 Mulliken charges:
               1
     1  C   -0.421924
     2  C   -0.081278
     3  C   -0.352567
     4  C    0.333105
     5  C   -0.430541
     6  C    0.396015
     7  O   -0.458234
     8  C   -0.141806
     9  O   -0.422518
    10  H    0.129549
    11  H    0.117295
    12  H    0.127753
    13  H    0.115955
    14  H    0.100344
    15  H    0.190968
    16  H    0.288055
    17  H    0.124278
    18  H    0.095200
    19  H    0.290351
 Sum of Mulliken charges =   0.00000

 Dipole moment (field-independent basis, Debye):
    X=             -0.5112    Y=              0.7729    Z=             -1.5564  Tot=              1.8114
 Quadrupole moment (field-independent basis, Debye-Ang):
   XX=            -54.2281   YY=            -50.3728   ZZ=            -53.7847
   XY=             -4.0268   XZ=              1.0377   YZ=              1.1379

  Exact polarizability:  97.490 -12.452  80.371  -0.601  -0.047  61.703
 Approx polarizability: 141.738 -21.481 112.356  -0.210  -0.883  96.666

                      1                      2                      3
                      A                      A                      A
 Frequencies --     86.0834               126.9023               134.1745
 Red. masses --      4.7803                 4.4646                 2.9108
 Frc consts  --      0.0209                 0.0424                 0.0309
 IR Inten    --      2.1848                 2.2639                 2.9372

                      4                      5                      6
                      A                      A                      A
 Frequencies --    165.9530               199.3691               225.3192
 Red. masses --      1.8095                 1.4153                 2.7121
 Frc consts  --      0.0294                 0.0331                 0.0811
 IR Inten    --      0.3996                 0.4416                 4.4106

                      7                      8                      9
                      A                      A                      A
 Frequencies --    272.5866               342.7906               371.4026
 Red. masses --      3.4879                 2.6072                 4.3429
 Frc consts  --      0.1527                 0.1805                 0.3530
 IR Inten    --      7.9717                16.8722                 1.3794

                     10                     11                     12
                      A                      A                      A
 Frequencies --    387.8828               422.2926               490.4448
 Red. masses --      1.3072                 2.9172                 1.7999
 Frc consts  --      0.1159                 0.3065                 0.2551
 IR Inten    --     51.3282                13.5190                60.8050

                     13                     14                     15
                      A                      A                      A
 Frequencies --    511.0127               549.3214               568.4268
 Red. masses --      2.5576                 3.0504                 1.2667
 Frc consts  --      0.3935                 0.5423                 0.2411
 IR Inten    --     47.1359                36.0167                42.1069

                     16                     17                     18
                      A                      A                      A
 Frequencies --    610.7897               646.7516               728.2851
 Red. masses --      3.5872                 1.2388                 3.7617
 Frc consts  --      0.7885                 0.3053                 1.1755
 IR Inten    --     33.7319                37.6954                10.9892

                     19                     20                     21
                      A                      A                      A
 Frequencies --    830.4892               857.7165               944.1700
 Red. masses --      3.6839                 2.3491                 1.5189
 Frc consts  --      1.4970                 1.0182                 0.7978
 IR Inten    --      9.2164                 2.6865                 7.3066

                     22                     23                     24
                      A                      A                      A
 Frequencies --    996.3589              1002.9592              1047.5499
 Red. masses --      1.6348                 1.6766                 2.5043
 Frc consts  --      0.9562                 0.9937                 1.6191
 IR Inten    --     11.6324                39.6102                69.7616

                     25                     26                     27
                      A                      A                      A
 Frequencies --   1073.1900              1077.6243              1125.8941
 Red. masses --      3.2180                 2.3168                 2.1006
 Frc consts  --      2.1837                 1.5852                 1.5689
 IR Inten    --     15.6814                 6.0132                34.8375

                     28                     29                     30
                      A                      A                      A
 Frequencies --   1142.4999              1191.6665              1240.1621
 Red. masses --      1.6061                 1.2590                 1.5624
 Frc consts  --      1.2352                 1.0534                 1.4158
 IR Inten    --      8.4555                25.5817                20.2155

                     31                     32                     33
                      A                      A                      A
 Frequencies --   1259.2319              1349.7716              1357.8691
 Red. masses --      1.8117                 1.7474                 1.2473
 Frc consts  --      1.6926                 1.8757                 1.3550
 IR Inten    --     56.2702                 2.5756                27.4175

                     34                     35                     36
                      A                      A                      A
 Frequencies --   1380.4539              1416.7180              1419.3462
 Red. masses --      1.3826                 1.2858                 1.2865
 Frc consts  --      1.5524                 1.5205                 1.5270
 IR Inten    --     32.9252                53.3421                 4.6443

                     37                     38                     39
                      A                      A                      A
 Frequencies --   1479.2364              1490.0917              1494.0636
 Red. masses --      1.6434                 1.1243                 1.0574
 Frc consts  --      2.1186                 1.4709                 1.3907
 IR Inten    --      2.6971                 1.9672                 1.6442

                     40                     41                     42
                      A                      A                      A
 Frequencies --   1509.9860              2234.1753              3019.7662
 Red. masses --      1.3863                 6.0479                 1.0617
 Frc consts  --      1.8623                17.7866                 5.7045
 IR Inten    --     13.5531                21.1754                25.0975

                     43                     44                     45
                      A                      A                      A
 Frequencies --   3034.6547              3084.7281              3097.6145
 Red. masses --      1.0370                 1.1006                 1.1013
 Frc consts  --      5.6268                 6.1702                 6.2258
 IR Inten    --     43.3047                21.7142                21.8989

                     46                     47                     48
                      A                      A                      A
 Frequencies --   3104.3994              3116.4940              3159.6391
 Red. masses --      1.1002                 1.0858                 1.0875
 Frc consts  --      6.2471                 6.2134                 6.3968
 IR Inten    --     18.8834                13.2680                 6.7488

                     49                     50                     51
                      A                      A                      A
 Frequencies --   3505.6295              3756.9586              3796.7104
 Red. masses --      1.1595                 1.0648                 1.0660
 Frc consts  --      8.3956                 8.8553                 9.0536
 IR Inten    --     82.6321                48.2033                16.1559

 - Thermochemistry -
 -------------------
 Temperature   298.150 Kelvin.  Pressure   1.00000 Atm.
 Atom     1 has atomic number  6 and mass  12.00000

 Molecular mass:   126.06808 amu.
 Principal axes and moments of inertia in atomic units:
                           1         2         3
     Eigenvalues --   961.074861305.142541830.15125
           X            0.99802  -0.06215   0.01017
           Y            0.06220   0.99805  -0.00543
           Z           -0.00982   0.00605   0.99993
 This molecule is an asymmetric top.
 Rotational symmetry number  1.
 Warning -- assumption of classical behavior for rotation
           may cause significant error
 Rotational temperatures (Kelvin)      0.09012     0.06636     0.04733
 Rotational constants (GHZ):           1.87784     1.38279     0.98612
 Zero-point vibrational energy     409347.8 (Joules/Mol)
                                   97.83647 (Kcal/Mol)
 Warning -- explicit consideration of  16 degrees of freedom as
           vibrations may cause significant error
 Vibrational temperatures:    123.85   182.58   193.05   238.77   286.85
          (Kelvin)            324.18   392.19   493.20   534.36   558.08
                              607.58   705.64   735.23   790.35   817.84
                              878.79   930.53  1047.84  1194.89  1234.06
                             1358.45  1433.54  1443.03  1507.19  1544.08
                             1550.46  1619.91  1643.80  1714.54  1784.31
                             1811.75  1942.02  1953.67  1986.16  2038.34
                             2042.12  2128.29  2143.91  2149.62  2172.53
                             3214.48  4344.76  4366.19  4438.23  4456.77
                             4466.53  4483.93  4546.01  5043.81  5405.42
                             5462.61

 Zero-point correction=                           0.155912 (Hartree/Particle)
 Thermal correction to Energy=                    0.166029
 Thermal correction to Enthalpy=                  0.166974
 Thermal correction to Gibbs Free Energy=         0.121259
 Sum of electronic and zero-point Energies=           -422.974439
 Sum of electronic and thermal Energies=              -422.964322
 Sum of electronic and thermal Enthalpies=            -422.963378
 Sum of electronic and thermal Free Energies=         -423.009092

                     E (Thermal)             CV                S
                      KCal/Mol        Cal/Mol-Kelvin    Cal/Mol-Kelvin
 Total                  104.185             37.740             96.215
 Electronic               0.000              0.000              0.000
 Translational            0.889              2.981             40.409
 Rotational               0.889              2.981             29.219
 Vibrational            102.408             31.779             26.587
 Vibration     1          0.601              1.959              3.747
 Vibration     2          0.611              1.926              2.992
 Vibration     3          0.613              1.919              2.885
 Vibration     4          0.624              1.884              2.481
 Vibration     5          0.637              1.841              2.139
 Vibration     6          0.650              1.802              1.916
 Vibration     7          0.676              1.724              1.580
 Vibration     8          0.722              1.590              1.199
 Vibration     9          0.743              1.531              1.074
 Vibration    10          0.756              1.496              1.008
 Vibration    11          0.785              1.422              0.884
 Vibration    12          0.846              1.271              0.682
 Vibration    13          0.866              1.226              0.631
 Vibration    14          0.905              1.141              0.546
 Vibration    15          0.924              1.100              0.507
 Vibration    16          0.970              1.009              0.431

 Optimization completed.
    -- Stationary point found.
 Normal termination of Gaussian 09 at Tue Jan 28 09:03:51 2020.
