 Gaussian 09, Revision D.01,
 Gaussian 09:  ES64L-G09RevD.01 24-Apr-2013

 -----------------------------
 # b3lyp 6-31G(2df,p) opt Freq
 -----------------------------

 -----
 titel
 -----
 Symbolic Z-matrix:
 Charge =  0 Multiplicity = 1

 SCF Done:  E(RB3LYP) =  -423.102291828     A.U. after   13 cycles
 SCF Done:  E(RB3LYP) =  -423.102291967     A.U. after    6 cycles
 Optimization completed.
    -- Stationary point found.
 Normal termination of Gaussian 09 at Mon Jan 27 16:07:59 2020.

 ----------------------------------------------------------------------
 #N Geom=AllCheck Guess=TCheck SCRF=Check GenChk RB3LYP/6-31G(2df,p) Fr
 eq
 ----------------------------------------------------------------------

 Structure from the checkpoint file:  "/scratch/puck/g09_a8675a86-a8c4-42b1-b344-ac5238bbf168/Gau-82650.chk"
 -----
 titel
 -----
 Charge =  0 Multiplicity = 1

                         Standard orientation:
 ---------------------------------------------------------------------
 Center     Atomic      Atomic             Coordinates (Angstroms)
 Number     Number       Type             X           Y           Z
 ---------------------------------------------------------------------
      1          6           0       -1.228469    1.743323   -0.004093
      2          6           0       -1.097583    0.226347   -0.006473
      3          8           0       -2.384123   -0.356366   -0.092560
      4          6           0       -0.069680   -0.476538    0.964987
      5          6           0       -0.154432   -1.718510    0.013128
      6          6           0       -0.074989   -0.482092   -0.950545
      7          6           0        1.018803    0.019127    0.004135
      8          6           0        2.067736    1.026986   -0.004270
      9          8           0        2.365605   -0.389043   -0.001090
     10          1           0       -1.801156    2.071629    0.872930
     11          1           0       -0.265286    2.254643    0.023630
     12          1           0       -1.773084    2.069490   -0.895416
     13          1           0       -2.921591    0.008706    0.617812
     14          1           0       -0.060605   -0.463019    2.055690
     15          1           0        0.716354   -2.374069    0.012976
     16          1           0       -1.095120   -2.261900    0.015380
     17          1           0       -0.073993   -0.478173   -2.040520
     18          1           0        2.322344    1.549131   -0.926065
     19          1           0        2.331971    1.554966    0.911563
 ---------------------------------------------------------------------

 SCF Done:  E(RB3LYP) =  -423.102291967     A.U. after    1 cycles

 The electronic state is 1-A.
 Alpha  occ. eigenvalues --  -19.14696 -19.14040 -10.24878 -10.24475 -10.23161
 Alpha  occ. eigenvalues --  -10.19855 -10.19747 -10.18422 -10.18126  -1.07033
 Alpha  occ. eigenvalues --   -1.02891  -0.90026  -0.73652  -0.67055  -0.63937
 Alpha  occ. eigenvalues --   -0.62773  -0.61356  -0.53103  -0.50279  -0.48330
 Alpha  occ. eigenvalues --   -0.47441  -0.46946  -0.43811  -0.42016  -0.38846
 Alpha  occ. eigenvalues --   -0.37992  -0.35816  -0.33792  -0.33219  -0.32098
 Alpha  occ. eigenvalues --   -0.31319  -0.28720  -0.26903  -0.25026
 Alpha virt. eigenvalues --    0.06963   0.09063   0.10964   0.12394   0.12853
 Alpha virt. eigenvalues --    0.13552   0.14020   0.15084   0.15973   0.16994
 Alpha virt. eigenvalues --    0.17912   0.18292   0.18335   0.19936   0.20637

 Mulliken charges:
               1
     1  C   -0.482902
     2  C    0.477670
     3  O   -0.483338
     4  C   -0.240542
     5  C   -0.240341
     6  C   -0.212489
     7  C    0.553416
     8  C   -0.326240
     9  O   -0.304481
    10  H    0.107205
    11  H    0.128799
    12  H    0.129303
    13  H    0.277542
    14  H    0.071396
    15  H    0.112701
    16  H    0.117844
    17  H    0.079142
    18  H    0.118305
    19  H    0.117011
 Sum of Mulliken charges =   0.00000

 Dipole moment (field-independent basis, Debye):
    X=             -1.2646    Y=              2.0474    Z=              0.9557  Tot=              2.5893
 Quadrupole moment (field-independent basis, Debye-Ang):
   XX=            -56.4815   YY=            -52.3142   ZZ=            -50.9828
   XY=              1.3132   XZ=             -3.4827   YZ=             -0.0260

  Exact polarizability:  82.592   3.119  77.945  -1.306   0.291  66.288
 Approx polarizability: 115.892   3.066 112.351  -1.299   1.094 104.135

                      1                      2                      3
                      A                      A                      A
 Frequencies --    179.8004               181.6698               208.5379
 Red. masses --      2.8654                 2.1045                 1.3906
 Frc consts  --      0.0546                 0.0409                 0.0356
 IR Inten    --      0.9053                 0.9376                 0.4998

                      4                      5                      6
                      A                      A                      A
 Frequencies --    266.9374               292.6986               334.8684
 Red. masses --      1.5630                 1.8707                 2.5349
 Frc consts  --      0.0656                 0.0944                 0.1675
 IR Inten    --     36.7819                58.8805                 0.5890

                      7                      8                      9
                      A                      A                      A
 Frequencies --    353.6187               429.3231               462.4936
 Red. masses --      3.1589                 4.4078                 2.6641
 Frc consts  --      0.2327                 0.4787                 0.3357
 IR Inten    --      5.0772                 9.8974                 3.1837

                     10                     11                     12
                      A                      A                      A
 Frequencies --    478.3761               585.7150               651.4672
 Red. masses --      4.0652                 3.5193                 3.9611
 Frc consts  --      0.5481                 0.7113                 0.9905
 IR Inten    --      1.7652                 6.8694                 2.0834

                     13                     14                     15
                      A                      A                      A
 Frequencies --    702.0498               740.5509               800.8247
 Red. masses --      2.7822                 2.5408                 3.0706
 Frc consts  --      0.8079                 0.8210                 1.1602
 IR Inten    --      2.6071                 0.3409                 0.6215

                     16                     17                     18
                      A                      A                      A
 Frequencies --    881.2304               883.7044               895.3003
 Red. masses --      3.7566                 1.7049                 2.5792
 Frc consts  --      1.7188                 0.7845                 1.2181
 IR Inten    --     37.8628                 1.8086                30.0484

                     19                     20                     21
                      A                      A                      A
 Frequencies --    958.8272               989.1026              1013.6886
 Red. masses --      1.8518                 3.0863                 1.1173
 Frc consts  --      1.0031                 1.7790                 0.6764
 IR Inten    --      6.7517                50.1275                 0.0290

                     22                     23                     24
                      A                      A                      A
 Frequencies --   1046.6944              1058.5185              1093.7957
 Red. masses --      1.7020                 1.4446                 2.1486
 Frc consts  --      1.0986                 0.9537                 1.5146
 IR Inten    --     17.7900                10.0740                 3.6362

                     25                     26                     27
                      A                      A                      A
 Frequencies --   1104.4971              1112.1605              1127.8219
 Red. masses --      2.1212                 1.3173                 1.6852
 Frc consts  --      1.5246                 0.9600                 1.2629
 IR Inten    --      7.0758                 8.3632                50.7564

                     28                     29                     30
                      A                      A                      A
 Frequencies --   1147.7686              1154.0455              1175.3492
 Red. masses --      1.6544                 1.4117                 1.7214
 Frc consts  --      1.2841                 1.1077                 1.4011
 IR Inten    --      0.7516                 1.2340                10.7407

                     31                     32                     33
                      A                      A                      A
 Frequencies --   1203.3933              1220.8012              1226.8186
 Red. masses --      2.5765                 1.5607                 2.2145
 Frc consts  --      2.1984                 1.3704                 1.9638
 IR Inten    --     11.4876                11.4638                36.1828

                     34                     35                     36
                      A                      A                      A
 Frequencies --   1253.3145              1373.3924              1411.6289
 Red. masses --      2.0459                 1.8071                 1.2905
 Frc consts  --      1.8935                 2.0083                 1.5151
 IR Inten    --     48.6531                22.4726                11.4427

                     37                     38                     39
                      A                      A                      A
 Frequencies --   1455.4921              1491.5566              1493.4444
 Red. masses --      1.6180                 1.0539                 1.0608
 Frc consts  --      2.0195                 1.3814                 1.3940
 IR Inten    --     29.7800                 1.8063                 4.8901

                     40                     41                     42
                      A                      A                      A
 Frequencies --   1506.1046              1558.8892              3026.4245
 Red. masses --      1.1160                 2.2909                 1.0453
 Frc consts  --      1.4915                 3.2801                 5.6409
 IR Inten    --      4.1729                19.8881                28.7905

                     43                     44                     45
                      A                      A                      A
 Frequencies --   3077.6658              3092.5534              3098.8220
 Red. masses --      1.0510                 1.0929                 1.0615
 Frc consts  --      5.8652                 6.1583                 6.0059
 IR Inten    --     23.0910                17.5234                25.9850

                     46                     47                     48
                      A                      A                      A
 Frequencies --   3109.1521              3120.9885              3140.3958
 Red. masses --      1.0877                 1.0918                 1.0979
 Frc consts  --      6.1951                 6.2661                 6.3795
 IR Inten    --     60.6570                19.7666                17.1591

                     49                     50                     51
                      A                      A                      A
 Frequencies --   3161.0960              3187.2213              3812.0982
 Red. masses --      1.1185                 1.1092                 1.0660
 Frc consts  --      6.5852                 6.6389                 9.1272
 IR Inten    --     20.5896                12.1812                19.6908

 - Thermochemistry -
 -------------------
 Temperature   298.150 Kelvin.  Pressure   1.00000 Atm.
 Atom     1 has atomic number  6 and mass  12.00000

 Molecular mass:   126.06808 amu.
 Principal axes and moments of inertia in atomic units:
                           1         2         3
     Eigenvalues --   568.493771211.111731534.91280
           X            0.99998  -0.00023  -0.00665
           Y            0.00023   1.00000  -0.00027
           Z            0.00665   0.00027   0.99998
 This molecule is an asymmetric top.
 Rotational symmetry number  1.
 Warning -- assumption of classical behavior for rotation
           may cause significant error
 Rotational temperatures (Kelvin)      0.15236     0.07152     0.05643
 Rotational constants (GHZ):           3.17460     1.49015     1.17579
 Zero-point vibrational energy     414701.6 (Joules/Mol)
                                   99.11606 (Kcal/Mol)
 Warning -- explicit consideration of  11 degrees of freedom as
           vibrations may cause significant error
 Vibrational temperatures:    258.69   261.38   300.04   384.06   421.13
          (Kelvin)            481.80   508.78   617.70   665.42   688.28
                              842.71   937.31  1010.09  1065.49  1152.21
                             1267.89  1271.45  1288.14  1379.54  1423.10
                             1458.47  1505.96  1522.97  1573.73  1589.12
                             1600.15  1622.68  1651.38  1660.41  1691.06
                             1731.41  1756.46  1765.12  1803.24  1976.00
                             2031.02  2094.13  2146.01  2148.73  2166.95
                             2242.89  4354.34  4428.07  4449.49  4458.51
                             4473.37  4490.40  4518.32  4548.11  4585.69
                             5484.75

 Zero-point correction=                           0.157951 (Hartree/Particle)
 Thermal correction to Energy=                    0.166111
 Thermal correction to Enthalpy=                  0.167055
 Thermal correction to Gibbs Free Energy=         0.125962
 Sum of electronic and zero-point Energies=           -422.944340
 Sum of electronic and thermal Energies=              -422.936181
 Sum of electronic and thermal Enthalpies=            -422.935237
 Sum of electronic and thermal Free Energies=         -422.976330

                     E (Thermal)             CV                S
                      KCal/Mol        Cal/Mol-Kelvin    Cal/Mol-Kelvin
 Total                  104.236             32.884             86.488
 Electronic               0.000              0.000              0.000
 Translational            0.889              2.981             40.409
 Rotational               0.889              2.981             28.449
 Vibrational            102.459             26.923             17.631
 Vibration     1          0.629              1.867              2.330
 Vibration     2          0.630              1.865              2.311
 Vibration     3          0.642              1.828              2.056
 Vibration     4          0.672              1.734              1.616
 Vibration     5          0.688              1.687              1.458
 Vibration     6          0.716              1.606              1.236
 Vibration     7          0.730              1.568              1.150
 Vibration     8          0.791              1.406              0.861
 Vibration     9          0.820              1.333              0.759
 Vibration    10          0.835              1.298              0.714
 Vibration    11          0.943              1.062              0.475

 Normal termination of Gaussian 09 at Mon Jan 27 16:50:25 2020.
