 Gaussian 09, Revision D.01,
 Gaussian 09:  ES64L-G09RevD.01 24-Apr-2013

 -----------------------------
 # b3lyp 6-31G(2df,p) opt Freq
 -----------------------------

 -----
 titel
 -----
 Symbolic Z-matrix:
 Charge =  0 Multiplicity = 1

 SCF Done:  E(RB3LYP) =  -423.107254258     A.U. after   14 cycles
 Optimization completed.
    -- Stationary point found.
 Normal termination of Gaussian 09 at Tue Jan 28 13:25:00 2020.

 ----------------------------------------------------------------------
 #N Geom=AllCheck Guess=TCheck SCRF=Check GenChk RB3LYP/6-31G(2df,p) Fr
 eq
 ----------------------------------------------------------------------

 Structure from the checkpoint file:  "/scratch/puck/g09_376048b6-dce2-4362-9794-271270a869b7/Gau-144722.chk"
 -----
 titel
 -----
 Charge =  0 Multiplicity = 1

                         Standard orientation:
 ---------------------------------------------------------------------
 Center     Atomic      Atomic             Coordinates (Angstroms)
 Number     Number       Type             X           Y           Z
 ---------------------------------------------------------------------
      1          6           0        3.195219   -0.433796   -0.088760
      2          8           0        1.828034   -0.608644   -0.405655
      3          6           0        1.085225    0.562373   -0.277777
      4          6           0        0.579832    0.973646    1.090337
      5          6           0       -0.356043    0.398681    0.058721
      6          6           0       -1.564080    1.032365   -0.678760
      7          6           0       -2.240955   -0.350043   -0.595757
      8          8           0       -2.333052   -0.702330    0.787507
      9          6           0       -1.085922   -0.929635    0.110485
     10          1           0        3.331070   -0.094894    0.947987
     11          1           0        3.681833   -1.403336   -0.217524
     12          1           0        3.674165    0.296961   -0.757771
     13          1           0        1.369220    1.354860   -0.974376
     14          1           0        0.841537    0.336880    1.929300
     15          1           0        0.511182    2.031911    1.321424
     16          1           0       -2.094888    1.835453   -0.161102
     17          1           0       -1.323908    1.339888   -1.700374
     18          1           0       -2.953694   -0.800366   -1.276289
     19          1           0       -0.676025   -1.931110    0.122976
 ---------------------------------------------------------------------

 SCF Done:  E(RB3LYP) =  -423.107254258     A.U. after    1 cycles

 The electronic state is 1-A.
 Alpha  occ. eigenvalues --  -19.14858 -19.14431 -10.23698 -10.23377 -10.23212
 Alpha  occ. eigenvalues --  -10.22695 -10.20024 -10.19025 -10.18374  -1.07108
 Alpha  occ. eigenvalues --   -1.04271  -0.85977  -0.76516  -0.69291  -0.65242
 Alpha  occ. eigenvalues --   -0.60398  -0.59071  -0.53874  -0.52566  -0.50685
 Alpha  occ. eigenvalues --   -0.45965  -0.44497  -0.43762  -0.42460  -0.42052
 Alpha  occ. eigenvalues --   -0.38917  -0.38590  -0.34792  -0.33976  -0.31556
 Alpha  occ. eigenvalues --   -0.29458  -0.27104  -0.25380  -0.24426
 Alpha virt. eigenvalues --    0.08521   0.09378   0.10461   0.10941   0.12111
 Alpha virt. eigenvalues --    0.13140   0.14372   0.14660   0.15404   0.16430
 Alpha virt. eigenvalues --    0.16809   0.17245   0.18658   0.19106   0.20528

 Mulliken charges:
               1
     1  C   -0.230823
     2  O   -0.243004
     3  C    0.051501
     4  C   -0.386614
     5  C    0.315057
     6  C   -0.352695
     7  C    0.040032
     8  O   -0.249325
     9  C   -0.050417
    10  H    0.111599
    11  H    0.128175
    12  H    0.106992
    13  H    0.083622
    14  H    0.122881
    15  H    0.114313
    16  H    0.112005
    17  H    0.109823
    18  H    0.104551
    19  H    0.112328
 Sum of Mulliken charges =   0.00000

 Dipole moment (field-independent basis, Debye):
    X=              1.6733    Y=              0.9878    Z=             -1.1226  Tot=              2.2441
 Quadrupole moment (field-independent basis, Debye-Ang):
   XX=            -51.8284   YY=            -51.3898   ZZ=            -53.6023
   XY=             -0.8035   XZ=              5.1552   YZ=             -0.0745

  Exact polarizability:  92.720  -1.313  71.200   4.531  -1.079  66.669
 Approx polarizability: 118.393  -1.544 104.315   3.046  -2.622 104.621

                      1                      2                      3
                      A                      A                      A
 Frequencies --     86.6866               112.3206               163.4018
 Red. masses --      2.9938                 3.8497                 1.6796
 Frc consts  --      0.0133                 0.0286                 0.0264
 IR Inten    --      2.0152                 1.3840                 1.7898

                      4                      5                      6
                      A                      A                      A
 Frequencies --    177.5075               223.1747               311.6514
 Red. masses --      3.0760                 1.6989                 3.3338
 Frc consts  --      0.0571                 0.0499                 0.1908
 IR Inten    --      1.0098                 3.6120                 1.0544

                      7                      8                      9
                      A                      A                      A
 Frequencies --    364.1396               419.1389               459.4048
 Red. masses --      2.5653                 2.8092                 2.4026
 Frc consts  --      0.2004                 0.2908                 0.2988
 IR Inten    --      0.6848                 5.6147                 4.3273

                     10                     11                     12
                      A                      A                      A
 Frequencies --    594.5915               609.3621               777.1681
 Red. masses --      3.3706                 3.9032                 3.3089
 Frc consts  --      0.7021                 0.8539                 1.1775
 IR Inten    --      1.8700                 4.4455                 2.3350

                     13                     14                     15
                      A                      A                      A
 Frequencies --    833.5909               841.0428               857.5696
 Red. masses --      2.3415                 2.1586                 2.0769
 Frc consts  --      0.9586                 0.8996                 0.8999
 IR Inten    --      7.1503                11.4172                26.2291

                     16                     17                     18
                      A                      A                      A
 Frequencies --    873.1453               907.4896               931.3628
 Red. masses --      1.9450                 1.9784                 2.7444
 Frc consts  --      0.8737                 0.9599                 1.4026
 IR Inten    --      2.0052                 1.3246                10.6014

                     19                     20                     21
                      A                      A                      A
 Frequencies --    975.9127              1014.5747              1025.5167
 Red. masses --      1.9937                 2.0610                 2.6055
 Frc consts  --      1.1187                 1.2500                 1.6145
 IR Inten    --     18.3530                25.3389                11.1262

                     22                     23                     24
                      A                      A                      A
 Frequencies --   1037.4249              1046.4832              1078.1832
 Red. masses --      1.6307                 1.9235                 2.0450
 Frc consts  --      1.0340                 1.2411                 1.4007
 IR Inten    --      0.5642                14.5064                 3.2212

                     25                     26                     27
                      A                      A                      A
 Frequencies --   1110.0908              1161.3980              1168.8508
 Red. masses --      1.4394                 1.5097                 1.8857
 Frc consts  --      1.0451                 1.1998                 1.5179
 IR Inten    --     12.4894                32.4770                31.3076

                     28                     29                     30
                      A                      A                      A
 Frequencies --   1181.6589              1187.1261              1214.1109
 Red. masses --      1.5272                 1.7671                 1.4751
 Frc consts  --      1.2564                 1.4673                 1.2811
 IR Inten    --     22.7624                35.2902                 2.3938

                     31                     32                     33
                      A                      A                      A
 Frequencies --   1225.5034              1244.1925              1265.6999
 Red. masses --      1.4153                 1.9145                 1.6564
 Frc consts  --      1.2524                 1.7462                 1.5634
 IR Inten    --      6.9236                50.0412                 4.6264

                     34                     35                     36
                      A                      A                      A
 Frequencies --   1345.8352              1374.6019              1415.6777
 Red. masses --      1.6245                 3.3272                 1.5447
 Frc consts  --      1.7336                 3.7041                 1.8239
 IR Inten    --     14.1786                13.6020                33.8071

                     37                     38                     39
                      A                      A                      A
 Frequencies --   1468.8063              1472.1523              1485.7177
 Red. masses --      1.1442                 1.2393                 1.0519
 Frc consts  --      1.4544                 1.5824                 1.3680
 IR Inten    --      5.0101                 7.9444                 4.0271

                     40                     41                     42
                      A                      A                      A
 Frequencies --   1495.4276              1508.9609              2985.1002
 Red. masses --      1.5805                 1.1294                 1.0365
 Frc consts  --      2.0824                 1.5151                 5.4417
 IR Inten    --     21.8336                 2.1207                61.8548

                     43                     44                     45
                      A                      A                      A
 Frequencies --   3037.6681              3057.2743              3070.4177
 Red. masses --      1.1022                 1.0572                 1.0866
 Frc consts  --      5.9924                 5.8223                 6.0354
 IR Inten    --     49.4958                26.3523                34.4002

                     46                     47                     48
                      A                      A                      A
 Frequencies --   3114.8787              3119.4989              3125.6486
 Red. masses --      1.1086                 1.0979                 1.0541
 Frc consts  --      6.3374                 6.2946                 6.0673
 IR Inten    --     17.0384                27.2639                 8.8748

                     49                     50                     51
                      A                      A                      A
 Frequencies --   3187.6750              3211.9099              3215.0314
 Red. masses --      1.0902                 1.0987                 1.1168
 Frc consts  --      6.5271                 6.6779                 6.8013
 IR Inten    --     20.2963                12.4414                 6.2528

 - Thermochemistry -
 -------------------
 Temperature   298.150 Kelvin.  Pressure   1.00000 Atm.
 Atom     1 has atomic number  6 and mass  12.00000

 Molecular mass:   126.06808 amu.
 Principal axes and moments of inertia in atomic units:
                           1         2         3
     Eigenvalues --   449.230061761.807871851.85553
           X            0.99982  -0.00824   0.01704
           Y            0.00814   0.99995   0.00567
           Z           -0.01709  -0.00554   0.99984
 This molecule is an asymmetric top.
 Rotational symmetry number  1.
 Warning -- assumption of classical behavior for rotation
           may cause significant error
 Rotational temperatures (Kelvin)      0.19281     0.04916     0.04677
 Rotational constants (GHZ):           4.01741     1.02437     0.97456
 Zero-point vibrational energy     413739.0 (Joules/Mol)
                                   98.88599 (Kcal/Mol)
 Warning -- explicit consideration of  11 degrees of freedom as
           vibrations may cause significant error
 Vibrational temperatures:    124.72   161.60   235.10   255.39   321.10
          (Kelvin)            448.40   523.92   603.05   660.98   855.48
                              876.74  1118.17  1199.35  1210.07  1233.85
                             1256.26  1305.67  1340.02  1404.12  1459.74
                             1475.49  1492.62  1505.65  1551.26  1597.17
                             1670.99  1681.71  1700.14  1708.01  1746.83
                             1763.22  1790.11  1821.06  1936.35  1977.74
                             2036.84  2113.28  2118.10  2137.61  2151.58
                             2171.06  4294.89  4370.52  4398.73  4417.64
                             4481.61  4488.26  4497.11  4586.35  4621.22
                             4625.71

 Zero-point correction=                           0.157585 (Hartree/Particle)
 Thermal correction to Energy=                    0.166099
 Thermal correction to Enthalpy=                  0.167043
 Thermal correction to Gibbs Free Energy=         0.124220
 Sum of electronic and zero-point Energies=           -422.949669
 Sum of electronic and thermal Energies=              -422.941156
 Sum of electronic and thermal Enthalpies=            -422.940211
 Sum of electronic and thermal Free Energies=         -422.983034

                     E (Thermal)             CV                S
                      KCal/Mol        Cal/Mol-Kelvin    Cal/Mol-Kelvin
 Total                  104.229             32.070             90.129
 Electronic               0.000              0.000              0.000
 Translational            0.889              2.981             40.409
 Rotational               0.889              2.981             28.773
 Vibrational            102.451             26.108             20.947
 Vibration     1          0.601              1.958              3.733
 Vibration     2          0.607              1.939              3.228
 Vibration     3          0.623              1.887              2.510
 Vibration     4          0.628              1.870              2.354
 Vibration     5          0.649              1.806              1.933
 Vibration     6          0.700              1.651              1.354
 Vibration     7          0.738              1.546              1.104
 Vibration     8          0.782              1.429              0.895
 Vibration     9          0.817              1.340              0.768
 Vibration    10          0.952              1.043              0.459
 Vibration    11          0.968              1.012              0.434

 Normal termination of Gaussian 09 at Tue Jan 28 14:06:09 2020.
