 Gaussian 09, Revision D.01,
 Gaussian 09:  ES64L-G09RevD.01 24-Apr-2013

 -----------------------------
 # b3lyp 6-31G(2df,p) opt Freq
 -----------------------------

 -----
 titel
 -----
 Symbolic Z-matrix:
 Charge =  0 Multiplicity = 1

 SCF Done:  E(RB3LYP) =  -423.223659295     A.U. after   14 cycles
 Optimization completed.
    -- Stationary point found.
 Normal termination of Gaussian 09 at Mon Jan 27 22:08:22 2020.

 ----------------------------------------------------------------------
 #N Geom=AllCheck Guess=TCheck SCRF=Check GenChk RB3LYP/6-31G(2df,p) Fr
 eq
 ----------------------------------------------------------------------

 Structure from the checkpoint file:  "/scratch/puck/g09_bf95712f-1661-4a58-9ea0-7ecb24217857/Gau-51212.chk"
 -----
 titel
 -----
 Charge =  0 Multiplicity = 1

                         Standard orientation:
 ---------------------------------------------------------------------
 Center     Atomic      Atomic             Coordinates (Angstroms)
 Number     Number       Type             X           Y           Z
 ---------------------------------------------------------------------
      1          6           0        0.502860    2.028081   -0.189998
      2          6           0        0.299513    0.651317    0.442108
      3          6           0        1.465854   -0.306727    0.134671
      4          8           0        2.640136   -0.032399    0.218396
      5          6           0        0.878132   -1.605397   -0.272092
      6          6           0       -0.449899   -1.504955   -0.350897
      7          6           0       -0.981792   -0.129038    0.006987
      8          6           0       -2.041535   -0.200268    1.112659
      9          8           0       -1.567363    0.371988   -1.197303
     10          1           0       -0.243812    2.748561    0.161169
     11          1           0        1.492830    2.403925    0.080263
     12          1           0        0.437877    1.969770   -1.278901
     13          1           0        0.292137    0.765382    1.534153
     14          1           0        1.484892   -2.474595   -0.492566
     15          1           0       -1.134554   -2.288396   -0.658857
     16          1           0       -2.388468    0.806804    1.375049
     17          1           0       -2.904237   -0.783144    0.776465
     18          1           0       -1.639056   -0.659954    2.020420
     19          1           0       -2.018592    1.196855   -0.986569
 ---------------------------------------------------------------------

 SCF Done:  E(RB3LYP) =  -423.223659295     A.U. after    1 cycles

 The electronic state is 1-A.
 Alpha  occ. eigenvalues --  -19.14646 -19.12337 -10.26100 -10.25389 -10.21032
 Alpha  occ. eigenvalues --  -10.19588 -10.19239 -10.19080 -10.17915  -1.03427
 Alpha  occ. eigenvalues --   -1.02912  -0.84894  -0.76308  -0.74434  -0.65279
 Alpha  occ. eigenvalues --   -0.64981  -0.56376  -0.53329  -0.50448  -0.47960
 Alpha  occ. eigenvalues --   -0.45462  -0.44135  -0.43431  -0.41834  -0.40350
 Alpha  occ. eigenvalues --   -0.39680  -0.37499  -0.36790  -0.36177  -0.34698
 Alpha  occ. eigenvalues --   -0.32548  -0.28669  -0.28062  -0.23757
 Alpha virt. eigenvalues --   -0.04888   0.04411   0.07274   0.10911   0.12711
 Alpha virt. eigenvalues --    0.13679   0.14140   0.15278   0.15692   0.16915
 Alpha virt. eigenvalues --    0.17070   0.18244   0.19501   0.21080   0.21619

 Mulliken charges:
               1
     1  C   -0.411669
     2  C   -0.155313
     3  C    0.380750
     4  O   -0.335750
     5  C   -0.197499
     6  C   -0.045314
     7  C    0.306881
     8  C   -0.446638
     9  O   -0.459783
    10  H    0.101378
    11  H    0.140960
    12  H    0.135136
    13  H    0.097764
    14  H    0.120274
    15  H    0.119504
    16  H    0.114881
    17  H    0.125664
    18  H    0.127176
    19  H    0.281600
 Sum of Mulliken charges =   0.00000

 Dipole moment (field-independent basis, Debye):
    X=             -3.3262    Y=             -0.0732    Z=              0.9559  Tot=              3.4616
 Quadrupole moment (field-independent basis, Debye-Ang):
   XX=            -60.3460   YY=            -47.7177   ZZ=            -54.8038
   XY=             -2.4623   XZ=             -2.2940   YZ=              0.3100

  Exact polarizability:  94.058   0.701  79.846   0.189   3.246  58.670
 Approx polarizability: 153.736   4.973 110.587   6.090   5.520  91.364

                      1                      2                      3
                      A                      A                      A
 Frequencies --     34.5749               189.8019               220.1366
 Red. masses --      4.3328                 3.7839                 1.1518
 Frc consts  --      0.0031                 0.0803                 0.0329
 IR Inten    --      1.7116                 3.3721                 1.8045

                      4                      5                      6
                      A                      A                      A
 Frequencies --    241.2021               258.6867               273.5934
 Red. masses --      2.4294                 1.1072                 2.2335
 Frc consts  --      0.0833                 0.0437                 0.0985
 IR Inten    --      1.1153                 0.4435                35.6392

                      7                      8                      9
                      A                      A                      A
 Frequencies --    280.7340               324.5188               354.4594
 Red. masses --      1.1497                 2.7885                 3.9571
 Frc consts  --      0.0534                 0.1730                 0.2929
 IR Inten    --     69.2690                 4.5624                11.7457

                     10                     11                     12
                      A                      A                      A
 Frequencies --    395.3125               516.9142               536.3494
 Red. masses --      3.6951                 3.7021                 3.1778
 Frc consts  --      0.3402                 0.5828                 0.5386
 IR Inten    --     10.8257                 1.2598                 4.1189

                     13                     14                     15
                      A                      A                      A
 Frequencies --    583.9117               689.7082               705.6260
 Red. masses --      3.9497                 4.0560                 6.2106
 Frc consts  --      0.7934                 1.1368                 1.8219
 IR Inten    --      8.2911                 4.5083                 3.0035

                     16                     17                     18
                      A                      A                      A
 Frequencies --    759.9818               805.5062               856.8052
 Red. masses --      2.3457                 2.5205                 1.6368
 Frc consts  --      0.7982                 0.9636                 0.7080
 IR Inten    --      2.1310                 2.7374                20.9960

                     19                     20                     21
                      A                      A                      A
 Frequencies --    925.2299               944.7549              1003.4805
 Red. masses --      1.9860                 2.0847                 1.3286
 Frc consts  --      1.0017                 1.0963                 0.7882
 IR Inten    --      2.3974                24.6126                 4.1869

                     22                     23                     24
                      A                      A                      A
 Frequencies --   1010.6841              1044.1942              1084.9289
 Red. masses --      1.4719                 2.1137                 1.3623
 Frc consts  --      0.8859                 1.3579                 0.9448
 IR Inten    --      2.6352                14.3654                13.2047

                     25                     26                     27
                      A                      A                      A
 Frequencies --   1105.4657              1117.9080              1146.0732
 Red. masses --      1.5223                 1.9681                 3.1430
 Frc consts  --      1.0961                 1.4492                 2.4323
 IR Inten    --     40.3452                 5.8674                34.4587

                     28                     29                     30
                      A                      A                      A
 Frequencies --   1195.8935              1223.1901              1277.5624
 Red. masses --      2.5957                 2.3617                 1.5307
 Frc consts  --      2.1872                 2.0819                 1.4720
 IR Inten    --     72.1777                 8.9645                 2.6969

                     31                     32                     33
                      A                      A                      A
 Frequencies --   1324.2973              1347.9495              1388.1081
 Red. masses --      1.4757                 1.8103                 1.8511
 Frc consts  --      1.5248                 1.9379                 2.1015
 IR Inten    --     11.5888                27.4789                25.3426

                     34                     35                     36
                      A                      A                      A
 Frequencies --   1400.1374              1405.9919              1488.0000
 Red. masses --      1.2354                 1.2518                 1.0512
 Frc consts  --      1.4269                 1.4580                 1.3714
 IR Inten    --      8.8001                 2.4778                 1.3392

                     37                     38                     39
                      A                      A                      A
 Frequencies --   1494.2308              1497.4189              1505.5395
 Red. masses --      1.0730                 1.0442                 1.0509
 Frc consts  --      1.4115                 1.3795                 1.4035
 IR Inten    --      5.4992                 7.1386                 4.4962

                     40                     41                     42
                      A                      A                      A
 Frequencies --   1661.8418              1815.5500              3021.9547
 Red. masses --      6.9558                12.3355                 1.0652
 Frc consts  --     11.3182                23.9564                 5.7313
 IR Inten    --      9.2331               248.0027                 9.6335

                     43                     44                     45
                      A                      A                      A
 Frequencies --   3025.8413              3039.9741              3093.7202
 Red. masses --      1.0530                 1.0388                 1.0979
 Frc consts  --      5.6804                 5.6564                 6.1913
 IR Inten    --     17.9220                26.8548                20.1952

                     46                     47                     48
                      A                      A                      A
 Frequencies --   3109.7928              3116.0065              3135.0916
 Red. masses --      1.0968                 1.1026                 1.1023
 Frc consts  --      6.2494                 6.3075                 6.3836
 IR Inten    --     15.6186                18.3852                10.4528

                     49                     50                     51
                      A                      A                      A
 Frequencies --   3190.5438              3224.9774              3803.5359
 Red. masses --      1.0882                 1.1032                 1.0659
 Frc consts  --      6.5268                 6.7599                 9.0857
 IR Inten    --      5.4866                 6.3499                14.3994

 - Thermochemistry -
 -------------------
 Temperature   298.150 Kelvin.  Pressure   1.00000 Atm.
 Atom     1 has atomic number  6 and mass  12.00000

 Molecular mass:   126.06808 amu.
 Principal axes and moments of inertia in atomic units:
                           1         2         3
     Eigenvalues --   732.069871203.437501535.61647
           X            0.99944   0.01312  -0.03085
           Y           -0.01312   0.99991   0.00023
           Z            0.03085   0.00017   0.99952
 This molecule is an asymmetric top.
 Rotational symmetry number  1.
 Warning -- assumption of classical behavior for rotation
           may cause significant error
 Rotational temperatures (Kelvin)      0.11831     0.07197     0.05640
 Rotational constants (GHZ):           2.46526     1.49966     1.17526
 Zero-point vibrational energy     413894.1 (Joules/Mol)
                                   98.92307 (Kcal/Mol)
 Warning -- explicit consideration of  13 degrees of freedom as
           vibrations may cause significant error
 Vibrational temperatures:     49.75   273.08   316.73   347.04   372.19
          (Kelvin)            393.64   403.91   466.91   509.99   568.77
                              743.72   771.69   840.12   992.34  1015.24
                             1093.44  1158.94  1232.75  1331.20  1359.29
                             1443.78  1454.15  1502.36  1560.97  1590.52
                             1608.42  1648.94  1720.62  1759.90  1838.12
                             1905.37  1939.40  1997.18  2014.48  2022.91
                             2140.90  2149.86  2154.45  2166.13  2391.02
                             2612.17  4347.91  4353.51  4373.84  4451.17
                             4474.29  4483.23  4510.69  4590.48  4640.02
                             5472.43

 Zero-point correction=                           0.157644 (Hartree/Particle)
 Thermal correction to Energy=                    0.166824
 Thermal correction to Enthalpy=                  0.167768
 Thermal correction to Gibbs Free Energy=         0.123712
 Sum of electronic and zero-point Energies=           -423.066015
 Sum of electronic and thermal Energies=              -423.056835
 Sum of electronic and thermal Enthalpies=            -423.055891
 Sum of electronic and thermal Free Energies=         -423.099947

                     E (Thermal)             CV                S
                      KCal/Mol        Cal/Mol-Kelvin    Cal/Mol-Kelvin
 Total                  104.684             34.841             92.724
 Electronic               0.000              0.000              0.000
 Translational            0.889              2.981             40.409
 Rotational               0.889              2.981             28.694
 Vibrational            102.906             28.880             23.622
 Vibration     1          0.594              1.983              5.548
 Vibration     2          0.633              1.854              2.230
 Vibration     3          0.647              1.810              1.958
 Vibration     4          0.658              1.777              1.794
 Vibration     5          0.668              1.748              1.671
 Vibration     6          0.676              1.722              1.573
 Vibration     7          0.680              1.709              1.529
 Vibration     8          0.709              1.626              1.287
 Vibration     9          0.730              1.566              1.146
 Vibration    10          0.762              1.480              0.980
 Vibration    11          0.872              1.213              0.617
 Vibration    12          0.891              1.170              0.573
 Vibration    13          0.941              1.066              0.478

 Optimization completed.
    -- Stationary point found.
 Normal termination of Gaussian 09 at Mon Jan 27 23:50:40 2020.
