 Gaussian 09, Revision D.01,
 Gaussian 09:  ES64L-G09RevD.01 24-Apr-2013

 -----------------------------
 # b3lyp 6-31G(2df,p) opt Freq
 -----------------------------

 -----
 titel
 -----
 Symbolic Z-matrix:
 Charge =  0 Multiplicity = 1

 SCF Done:  E(RB3LYP) =  -423.180065975     A.U. after   13 cycles
 Optimization completed.
    -- Stationary point found.
 Normal termination of Gaussian 09 at Mon Jan 27 23:58:15 2020.

 ----------------------------------------------------------------------
 #N Geom=AllCheck Guess=TCheck SCRF=Check GenChk RB3LYP/6-31G(2df,p) Fr
 eq
 ----------------------------------------------------------------------

 Structure from the checkpoint file:  "/scratch/puck/g09_009554f6-94af-464a-adda-e2c8f0aeb6c8/Gau-186460.chk"
 -----
 titel
 -----
 Charge =  0 Multiplicity = 1

                         Standard orientation:
 ---------------------------------------------------------------------
 Center     Atomic      Atomic             Coordinates (Angstroms)
 Number     Number       Type             X           Y           Z
 ---------------------------------------------------------------------
      1          8           0       -2.299980   -0.745433   -0.734718
      2          6           0       -0.907393   -0.563598   -0.672903
      3          6           0       -0.181560   -0.838123    0.631855
      4          6           0        1.240302   -1.369794    0.607306
      5          6           0        2.194619   -0.484386   -0.148650
      6          6           0        1.933718    0.771782   -0.508176
      7          6           0        0.648898    1.497768   -0.214705
      8          6           0       -0.485592    0.587757    0.199191
      9          8           0       -1.512330    1.278871    0.844620
     10          1           0       -2.499715   -1.667080   -0.542245
     11          1           0       -0.381602   -0.747205   -1.609358
     12          1           0       -0.818223   -1.207440    1.432056
     13          1           0        1.601895   -1.478479    1.640196
     14          1           0        1.263316   -2.385334    0.184639
     15          1           0        3.163327   -0.916665   -0.387231
     16          1           0        2.694315    1.342853   -1.034813
     17          1           0        0.810298    2.215842    0.602023
     18          1           0        0.343372    2.102811   -1.079115
     19          1           0       -2.336460    0.864766    0.551121
 ---------------------------------------------------------------------

 SCF Done:  E(RB3LYP) =  -423.180065975     A.U. after    1 cycles

 The electronic state is 1-A.
 Alpha  occ. eigenvalues --  -19.15798 -19.12822 -10.23310 -10.22999 -10.19015
 Alpha  occ. eigenvalues --  -10.18483 -10.18231 -10.18028 -10.17938  -1.04689
 Alpha  occ. eigenvalues --   -1.00982  -0.85490  -0.77932  -0.74262  -0.66328
 Alpha  occ. eigenvalues --   -0.60045  -0.58413  -0.52763  -0.50683  -0.49178
 Alpha  occ. eigenvalues --   -0.48251  -0.43979  -0.42288  -0.41119  -0.39777
 Alpha  occ. eigenvalues --   -0.38795  -0.38256  -0.35701  -0.33813  -0.32620
 Alpha  occ. eigenvalues --   -0.30798  -0.26454  -0.24488  -0.22509
 Alpha virt. eigenvalues --    0.02700   0.06639   0.09528   0.11636   0.12241
 Alpha virt. eigenvalues --    0.14084   0.14403   0.15570   0.16006   0.17458
 Alpha virt. eigenvalues --    0.18382   0.19505   0.21734   0.22319   0.24232

 Mulliken charges:
               1
     1  O   -0.434454
     2  C    0.000316
     3  C   -0.169612
     4  C   -0.277278
     5  C   -0.064359
     6  C   -0.050914
     7  C   -0.327326
     8  C    0.430196
     9  O   -0.489086
    10  H    0.293132
    11  H    0.095204
    12  H    0.082936
    13  H    0.116632
    14  H    0.099907
    15  H    0.084840
    16  H    0.086853
    17  H    0.126100
    18  H    0.108473
    19  H    0.288439
 Sum of Mulliken charges =   0.00000

 Dipole moment (field-independent basis, Debye):
    X=              0.3880    Y=             -2.2327    Z=             -0.4023  Tot=              2.3016
 Quadrupole moment (field-independent basis, Debye-Ang):
   XX=            -51.2221   YY=            -50.3558   ZZ=            -54.8114
   XY=              4.4817   XZ=             -0.7783   YZ=             -2.1637

  Exact polarizability:  82.739  -1.939  84.237  -1.947  -5.411  61.439
 Approx polarizability: 109.696  -6.445 132.752  -0.527  -8.558  96.475

                      1                      2                      3
                      A                      A                      A
 Frequencies --    116.2987               200.1744               252.2738
 Red. masses --      2.5686                 2.8751                 2.4616
 Frc consts  --      0.0205                 0.0679                 0.0923
 IR Inten    --      0.3452                 6.6179                 1.6606

                      4                      5                      6
                      A                      A                      A
 Frequencies --    259.7963               282.0752               355.3260
 Red. masses --      4.1147                 1.3527                 4.0113
 Frc consts  --      0.1636                 0.0634                 0.2984
 IR Inten    --      2.0957                44.2190                 8.9737

                      7                      8                      9
                      A                      A                      A
 Frequencies --    391.0598               404.8369               424.3731
 Red. masses --      2.8817                 2.1769                 2.1390
 Frc consts  --      0.2597                 0.2102                 0.2270
 IR Inten    --      6.9939                 8.0396                27.2954

                     10                     11                     12
                      A                      A                      A
 Frequencies --    464.5482               547.7423               621.4359
 Red. masses --      1.6279                 4.3727                 3.7550
 Frc consts  --      0.2070                 0.7730                 0.8544
 IR Inten    --     69.7042                 4.5266                 9.4775

                     13                     14                     15
                      A                      A                      A
 Frequencies --    685.3293               705.9238               806.6431
 Red. masses --      1.2697                 3.9670                 3.1378
 Frc consts  --      0.3514                 1.1648                 1.2029
 IR Inten    --     20.9447                 9.4699                 7.3285

                     16                     17                     18
                      A                      A                      A
 Frequencies --    846.0887               889.1178               936.1038
 Red. masses --      2.5815                 3.1279                 2.3346
 Frc consts  --      1.0888                 1.4569                 1.2054
 IR Inten    --      7.6051                 2.8855                 6.6648

                     19                     20                     21
                      A                      A                      A
 Frequencies --    944.0677               991.0347              1013.2782
 Red. masses --      2.1445                 1.4571                 1.3474
 Frc consts  --      1.1261                 0.8432                 0.8151
 IR Inten    --     10.0337                 2.0605                 2.8618

                     22                     23                     24
                      A                      A                      A
 Frequencies --   1028.3988              1029.8693              1067.4335
 Red. masses --      2.1005                 1.7979                 1.5836
 Frc consts  --      1.3088                 1.1235                 1.0631
 IR Inten    --     11.1426                13.9857                 5.5824

                     25                     26                     27
                      A                      A                      A
 Frequencies --   1113.0258              1127.9647              1183.0637
 Red. masses --      1.7776                 3.5644                 1.5867
 Frc consts  --      1.2975                 2.6719                 1.3084
 IR Inten    --      8.5709                78.8048                62.5451

                     28                     29                     30
                      A                      A                      A
 Frequencies --   1199.3346              1233.7277              1241.8025
 Red. masses --      1.2034                 1.2895                 1.2902
 Frc consts  --      1.0199                 1.1564                 1.1722
 IR Inten    --     11.8728                 8.7621                15.0088

                     31                     32                     33
                      A                      A                      A
 Frequencies --   1257.6368              1291.8278              1312.9965
 Red. masses --      1.6453                 1.3573                 1.4508
 Frc consts  --      1.5332                 1.3346                 1.4736
 IR Inten    --     14.4127                47.6037                 8.2035

                     34                     35                     36
                      A                      A                      A
 Frequencies --   1361.1707              1367.0250              1407.9615
 Red. masses --      1.4977                 1.5785                 1.8362
 Frc consts  --      1.6349                 1.7380                 2.1446
 IR Inten    --     33.8331                23.9942                 3.6028

                     37                     38                     39
                      A                      A                      A
 Frequencies --   1425.0274              1467.9361              1477.5613
 Red. masses --      1.5173                 1.7894                 1.0854
 Frc consts  --      1.8154                 2.2718                 1.3962
 IR Inten    --      7.1441                25.9979                 2.7454

                     40                     41                     42
                      A                      A                      A
 Frequencies --   1486.2014              1729.1376              2991.7725
 Red. masses --      1.4467                 6.5265                 1.0610
 Frc consts  --      1.8827                11.4971                 5.5954
 IR Inten    --     11.9777                 3.4554                52.8511

                     43                     44                     45
                      A                      A                      A
 Frequencies --   3007.5134              3013.1782              3031.4457
 Red. masses --      1.0596                 1.0985                 1.1001
 Frc consts  --      5.6471                 5.8762                 5.9565
 IR Inten    --     31.0478                21.7999                20.2795

                     46                     47                     48
                      A                      A                      A
 Frequencies --   3108.0086              3141.5630              3144.9287
 Red. masses --      1.0884                 1.0875                 1.0833
 Frc consts  --      6.1943                 6.3237                 6.3130
 IR Inten    --     18.0214                16.4618                 7.0726

                     49                     50                     51
                      A                      A                      A
 Frequencies --   3168.1648              3733.6086              3812.0828
 Red. masses --      1.0965                 1.0649                 1.0666
 Frc consts  --      6.4842                 8.7461                 9.1324
 IR Inten    --     36.7641                66.0047                27.7795

 - Thermochemistry -
 -------------------
 Temperature   298.150 Kelvin.  Pressure   1.00000 Atm.
 Atom     1 has atomic number  8 and mass  15.99491

 Molecular mass:   126.06808 amu.
 Principal axes and moments of inertia in atomic units:
                           1         2         3
     Eigenvalues --   665.157881232.284241542.52508
           X            0.99995   0.00716  -0.00640
           Y           -0.00744   0.99894  -0.04546
           Z            0.00606   0.04551   0.99895
 This molecule is an asymmetric top.
 Rotational symmetry number  1.
 Warning -- assumption of classical behavior for rotation
           may cause significant error
 Rotational temperatures (Kelvin)      0.13022     0.07029     0.05615
 Rotational constants (GHZ):           2.71325     1.46455     1.16999
 Zero-point vibrational energy     419284.5 (Joules/Mol)
                                  100.21140 (Kcal/Mol)
 Warning -- explicit consideration of  11 degrees of freedom as
           vibrations may cause significant error
 Vibrational temperatures:    167.33   288.01   362.97   373.79   405.84
          (Kelvin)            511.23   562.65   582.47   610.58   668.38
                              788.08   894.11   986.03  1015.67  1160.58
                             1217.33  1279.24  1346.84  1358.30  1425.88
                             1457.88  1479.63  1481.75  1535.80  1601.39
                             1622.89  1702.16  1725.57  1775.06  1786.67
                             1809.46  1858.65  1889.11  1958.42  1966.84
                             2025.74  2050.29  2112.03  2125.88  2138.31
                             2487.84  4304.49  4327.14  4335.29  4361.57
                             4471.73  4520.00  4524.85  4558.28  5371.82
                             5484.73

 Zero-point correction=                           0.159697 (Hartree/Particle)
 Thermal correction to Energy=                    0.167931
 Thermal correction to Enthalpy=                  0.168876
 Thermal correction to Gibbs Free Energy=         0.127451
 Sum of electronic and zero-point Energies=           -423.020369
 Sum of electronic and thermal Energies=              -423.012135
 Sum of electronic and thermal Enthalpies=            -423.011190
 Sum of electronic and thermal Free Energies=         -423.052615

                     E (Thermal)             CV                S
                      KCal/Mol        Cal/Mol-Kelvin    Cal/Mol-Kelvin
 Total                  105.379             32.886             87.185
 Electronic               0.000              0.000              0.000
 Translational            0.889              2.981             40.409
 Rotational               0.889              2.981             28.627
 Vibrational            103.601             26.924             18.150
 Vibration     1          0.608              1.936              3.161
 Vibration     2          0.638              1.840              2.131
 Vibration     3          0.664              1.759              1.715
 Vibration     4          0.668              1.746              1.663
 Vibration     5          0.681              1.707              1.521
 Vibration     6          0.731              1.564              1.142
 Vibration     7          0.759              1.489              0.996
 Vibration     8          0.770              1.460              0.945
 Vibration     9          0.786              1.417              0.877
 Vibration    10          0.822              1.329              0.753
 Vibration    11          0.903              1.145              0.549

 Normal termination of Gaussian 09 at Tue Jan 28 00:42:05 2020.
