 Gaussian 09, Revision D.01,
 Gaussian 09:  ES64L-G09RevD.01 24-Apr-2013

 -----------------------------
 # b3lyp 6-31G(2df,p) opt Freq
 -----------------------------

 -----
 titel
 -----
 Symbolic Z-matrix:
 Charge =  0 Multiplicity = 1

 SCF Done:  E(RB3LYP) =  -423.128428419     A.U. after   13 cycles
 Optimization completed.
    -- Stationary point found.
 Normal termination of Gaussian 09 at Mon Jan 27 23:42:57 2020.

 ----------------------------------------------------------------------
 #N Geom=AllCheck Guess=TCheck SCRF=Check GenChk RB3LYP/6-31G(2df,p) Fr
 eq
 ----------------------------------------------------------------------

 Structure from the checkpoint file:  "/scratch/puck/g09_2566c75f-6d57-4b33-b537-94f9339db93a/Gau-193807.chk"
 -----
 titel
 -----
 Charge =  0 Multiplicity = 1

                         Standard orientation:
 ---------------------------------------------------------------------
 Center     Atomic      Atomic             Coordinates (Angstroms)
 Number     Number       Type             X           Y           Z
 ---------------------------------------------------------------------
      1          6           0       -0.658750    1.834774   -0.572169
      2          6           0       -0.320734    0.424477   -0.188305
      3          6           0       -1.298291   -0.487433    0.540022
      4          8           0       -2.645174   -0.113614    0.501763
      5          6           0       -0.761614   -0.940286   -0.777514
      6          6           0        0.645901   -1.518305   -0.582775
      7          6           0        1.064658   -0.150181   -0.007066
      8          6           0        2.360026    0.519956   -0.102940
      9          8           0        1.863848    0.038169    1.154997
     10          1           0       -0.337370    2.540483    0.204170
     11          1           0       -0.171339    2.127334   -1.508339
     12          1           0       -1.738322    1.945469   -0.704025
     13          1           0       -0.991675   -0.997452    1.456283
     14          1           0       -2.786879    0.557198    1.178474
     15          1           0       -1.424936   -1.126493   -1.612286
     16          1           0        0.728978   -2.369778    0.100449
     17          1           0        1.157822   -1.756685   -1.518451
     18          1           0        3.217177   -0.018792   -0.506955
     19          1           0        2.409975    1.604259   -0.198916
 ---------------------------------------------------------------------

 SCF Done:  E(RB3LYP) =  -423.128428419     A.U. after    1 cycles

 The electronic state is 1-A.
 Alpha  occ. eigenvalues --  -19.14868 -19.14525 -10.24038 -10.23638 -10.22999
 Alpha  occ. eigenvalues --  -10.19615 -10.19294 -10.18867 -10.18159  -1.06589
 Alpha  occ. eigenvalues --   -1.03380  -0.89033  -0.73570  -0.70758  -0.65676
 Alpha  occ. eigenvalues --   -0.62274  -0.58145  -0.53706  -0.50354  -0.49592
 Alpha  occ. eigenvalues --   -0.47889  -0.45389  -0.42982  -0.41635  -0.40783
 Alpha  occ. eigenvalues --   -0.39187  -0.38108  -0.35134  -0.33759  -0.31783
 Alpha  occ. eigenvalues --   -0.30963  -0.26851  -0.25698  -0.24292
 Alpha virt. eigenvalues --    0.06789   0.08894   0.10694   0.11063   0.12284
 Alpha virt. eigenvalues --    0.12644   0.13942   0.14417   0.15846   0.16809
 Alpha virt. eigenvalues --    0.16963   0.18109   0.19336   0.20364   0.22545

 Mulliken charges:
               1
     1  C   -0.524380
     2  C    0.234705
     3  C    0.048711
     4  O   -0.434665
     5  C   -0.128102
     6  C   -0.346880
     7  C    0.398747
     8  C   -0.269536
     9  O   -0.280941
    10  H    0.122252
    11  H    0.120638
    12  H    0.130651
    13  H    0.090511
    14  H    0.289842
    15  H    0.100102
    16  H    0.110883
    17  H    0.112383
    18  H    0.112437
    19  H    0.112641
 Sum of Mulliken charges =   0.00000

 Dipole moment (field-independent basis, Debye):
    X=              0.0754    Y=              0.9333    Z=             -0.9367  Tot=              1.3245
 Quadrupole moment (field-independent basis, Debye-Ang):
   XX=            -55.0418   YY=            -51.0175   ZZ=            -52.9279
   XY=             -2.3123   XZ=             -6.2226   YZ=              1.3087

  Exact polarizability:  86.181   0.917  77.422  -3.100   1.265  64.052
 Approx polarizability: 116.429   4.300 109.813  -2.219   2.748 103.539

                      1                      2                      3
                      A                      A                      A
 Frequencies --     99.1821               180.9037               211.8296
 Red. masses --      4.1329                 1.1113                 3.2149
 Frc consts  --      0.0240                 0.0214                 0.0850
 IR Inten    --      2.8818                 1.8955                 3.5072

                      4                      5                      6
                      A                      A                      A
 Frequencies --    223.1497               251.1616               289.6909
 Red. masses --      2.4675                 3.1333                 2.4732
 Frc consts  --      0.0724                 0.1165                 0.1223
 IR Inten    --      3.8801                 0.6513                 4.8665

                      7                      8                      9
                      A                      A                      A
 Frequencies --    335.5258               345.6604               434.1613
 Red. masses --      1.1984                 2.3770                 3.6150
 Frc consts  --      0.0795                 0.1673                 0.4015
 IR Inten    --    115.5916                 7.2435                 3.6326

                     10                     11                     12
                      A                      A                      A
 Frequencies --    472.4116               507.2509               598.9406
 Red. masses --      3.4913                 3.2703                 5.0701
 Frc consts  --      0.4591                 0.4958                 1.0716
 IR Inten    --      1.9228                 1.4553                14.7162

                     13                     14                     15
                      A                      A                      A
 Frequencies --    676.3863               779.6541               825.0516
 Red. masses --      3.4509                 2.7929                 3.3676
 Frc consts  --      0.9302                 1.0002                 1.3506
 IR Inten    --      2.2119                 1.5822                17.9297

                     16                     17                     18
                      A                      A                      A
 Frequencies --    834.4710               890.5427               919.2741
 Red. masses --      3.2744                 1.5684                 1.8079
 Frc consts  --      1.3434                 0.7328                 0.9002
 IR Inten    --     27.0649                 4.4619                11.5983

                     19                     20                     21
                      A                      A                      A
 Frequencies --    958.8787               961.8248              1025.0278
 Red. masses --      2.3127                 1.7748                 1.7004
 Frc consts  --      1.2529                 0.9674                 1.0526
 IR Inten    --     28.8714                 4.3333                 6.0301

                     22                     23                     24
                      A                      A                      A
 Frequencies --   1057.4211              1082.0303              1109.6894
 Red. masses --      1.6748                 1.4981                 1.9371
 Frc consts  --      1.1033                 1.0334                 1.4054
 IR Inten    --      6.6261                 2.4576                 9.9228

                     25                     26                     27
                      A                      A                      A
 Frequencies --   1116.4758              1127.1813              1131.8825
 Red. masses --      1.8282                 1.5377                 1.8690
 Frc consts  --      1.3426                 1.1511                 1.4108
 IR Inten    --     31.5465                14.4565                 1.3668

                     28                     29                     30
                      A                      A                      A
 Frequencies --   1161.2385              1182.3268              1231.1524
 Red. masses --      1.4849                 1.6365                 2.4141
 Frc consts  --      1.1797                 1.3479                 2.1559
 IR Inten    --      8.9834                20.4063                15.8818

                     31                     32                     33
                      A                      A                      A
 Frequencies --   1244.9022              1266.6413              1298.8621
 Red. masses --      1.6873                 1.8811                 1.2294
 Frc consts  --      1.5407                 1.7781                 1.2220
 IR Inten    --      3.5503                19.3370                54.9577

                     34                     35                     36
                      A                      A                      A
 Frequencies --   1368.2069              1412.0197              1434.5359
 Red. masses --      1.9614                 1.5862                 2.2328
 Frc consts  --      2.1633                 1.8633                 2.7072
 IR Inten    --      8.6371                 2.3584                20.9037

                     37                     38                     39
                      A                      A                      A
 Frequencies --   1449.6016              1484.4353              1495.9030
 Red. masses --      2.0188                 1.1725                 1.0539
 Frc consts  --      2.4994                 1.5222                 1.3895
 IR Inten    --      6.3973                 2.3198                 4.5041

                     40                     41                     42
                      A                      A                      A
 Frequencies --   1498.1597              1535.8504              3022.7086
 Red. masses --      1.0696                 1.6268                 1.0389
 Frc consts  --      1.4145                 2.2609                 5.5925
 IR Inten    --      8.2767                12.8640                33.3562

                     43                     44                     45
                      A                      A                      A
 Frequencies --   3048.0324              3067.2769              3073.4745
 Red. masses --      1.0598                 1.0878                 1.0507
 Frc consts  --      5.8013                 6.0300                 5.8480
 IR Inten    --     33.9985                32.8353                26.3243

                     46                     47                     48
                      A                      A                      A
 Frequencies --   3080.4897              3104.8054              3114.8492
 Red. masses --      1.0979                 1.1058                 1.0985
 Frc consts  --      6.1386                 6.2803                 6.2797
 IR Inten    --     23.1741                17.5101                12.4244

                     49                     50                     51
                      A                      A                      A
 Frequencies --   3158.1225              3202.6816              3801.6210
 Red. masses --      1.1190                 1.0929                 1.0662
 Frc consts  --      6.5758                 6.6047                 9.0785
 IR Inten    --     23.8371                 7.6471                24.2312

 - Thermochemistry -
 -------------------
 Temperature   298.150 Kelvin.  Pressure   1.00000 Atm.
 Atom     1 has atomic number  6 and mass  12.00000

 Molecular mass:   126.06808 amu.
 Principal axes and moments of inertia in atomic units:
                           1         2         3
     Eigenvalues --   615.273311339.335301553.76331
           X            0.99968  -0.01756  -0.01796
           Y            0.01728   0.99974  -0.01515
           Z            0.01822   0.01483   0.99972
 This molecule is an asymmetric top.
 Rotational symmetry number  1.
 Warning -- assumption of classical behavior for rotation
           may cause significant error
 Rotational temperatures (Kelvin)      0.14077     0.06467     0.05574
 Rotational constants (GHZ):           2.93323     1.34749     1.16153
 Zero-point vibrational energy     413809.6 (Joules/Mol)
                                   98.90286 (Kcal/Mol)
 Warning -- explicit consideration of  12 degrees of freedom as
           vibrations may cause significant error
 Vibrational temperatures:    142.70   260.28   304.78   321.06   361.37
          (Kelvin)            416.80   482.75   497.33   624.66   679.69
                              729.82   861.74   973.17  1121.75  1187.06
                             1200.62  1281.29  1322.63  1379.61  1383.85
                             1474.78  1521.39  1556.80  1596.59  1606.36
                             1621.76  1628.52  1670.76  1701.10  1771.35
                             1791.13  1822.41  1868.77  1968.54  2031.58
                             2063.97  2085.65  2135.77  2152.27  2155.51
                             2209.74  4349.00  4385.43  4413.12  4422.04
                             4432.13  4467.12  4481.57  4543.83  4607.94
                             5469.68

 Zero-point correction=                           0.157612 (Hartree/Particle)
 Thermal correction to Energy=                    0.166262
 Thermal correction to Enthalpy=                  0.167207
 Thermal correction to Gibbs Free Energy=         0.124778
 Sum of electronic and zero-point Energies=           -422.970817
 Sum of electronic and thermal Energies=              -422.962166
 Sum of electronic and thermal Enthalpies=            -422.961222
 Sum of electronic and thermal Free Energies=         -423.003650

                     E (Thermal)             CV                S
                      KCal/Mol        Cal/Mol-Kelvin    Cal/Mol-Kelvin
 Total                  104.331             33.461             89.297
 Electronic               0.000              0.000              0.000
 Translational            0.889              2.981             40.409
 Rotational               0.889              2.981             28.639
 Vibrational            102.554             27.499             20.250
 Vibration     1          0.604              1.950              3.470
 Vibration     2          0.630              1.866              2.319
 Vibration     3          0.643              1.823              2.028
 Vibration     4          0.649              1.806              1.933
 Vibration     5          0.663              1.761              1.722
 Vibration     6          0.686              1.693              1.476
 Vibration     7          0.717              1.605              1.233
 Vibration     8          0.724              1.584              1.186
 Vibration     9          0.795              1.396              0.845
 Vibration    10          0.829              1.311              0.731
 Vibration    11          0.862              1.234              0.640
 Vibration    12          0.957              1.034              0.451

 Normal termination of Gaussian 09 at Tue Jan 28 00:26:09 2020.
