 Gaussian 09, Revision D.01,
 Gaussian 09:  ES64L-G09RevD.01 24-Apr-2013

 -----------------------------
 # b3lyp 6-31G(2df,p) opt Freq
 -----------------------------

 -----
 titel
 -----
 Symbolic Z-matrix:
 Charge =  0 Multiplicity = 1

 SCF Done:  E(RB3LYP) =  -423.128476758     A.U. after   13 cycles
 Optimization completed.
    -- Stationary point found.
 Normal termination of Gaussian 09 at Tue Jan 28 00:40:46 2020.

 ----------------------------------------------------------------------
 #N Geom=AllCheck Guess=TCheck SCRF=Check GenChk RB3LYP/6-31G(2df,p) Fr
 eq
 ----------------------------------------------------------------------

 Structure from the checkpoint file:  "/scratch/puck/g09_d382319b-752e-4224-be19-aa7aa7bba268/Gau-81359.chk"
 -----
 titel
 -----
 Charge =  0 Multiplicity = 1

                         Standard orientation:
 ---------------------------------------------------------------------
 Center     Atomic      Atomic             Coordinates (Angstroms)
 Number     Number       Type             X           Y           Z
 ---------------------------------------------------------------------
      1          6           0        1.382219    1.482928   -0.753918
      2          6           0        0.452462    0.275221   -0.805524
      3          6           0        0.996388   -0.995205   -0.075410
      4          8           0        2.381133   -1.195814    0.046855
      5          6           0        0.159840   -0.623789    1.175192
      6          6           0       -0.709387    0.310425    0.268235
      7          8           0       -1.105211    1.562088    0.790081
      8          6           0       -1.906815   -0.361148   -0.220973
      9          6           0       -2.863078   -0.952298   -0.645122
     10          1           0        0.868502    2.384439   -1.098825
     11          1           0        1.762423    1.689186    0.255722
     12          1           0        2.251998    1.317992   -1.396621
     13          1           0        0.112928    0.116900   -1.831146
     14          1           0        0.611014   -1.901926   -0.546402
     15          1           0        2.761098   -0.437904    0.502564
     16          1           0       -0.346001   -1.415332    1.729092
     17          1           0        0.746673   -0.019071    1.877299
     18          1           0       -0.327230    1.981150    1.171593
     19          1           0       -3.718552   -1.462432   -1.013647
 ---------------------------------------------------------------------

 SCF Done:  E(RB3LYP) =  -423.128476758     A.U. after    1 cycles

 The electronic state is 1-A.
 Alpha  occ. eigenvalues --  -19.14718 -19.14332 -10.26301 -10.23575 -10.19228
 Alpha  occ. eigenvalues --  -10.19198 -10.18865 -10.18085 -10.17597  -1.03417
 Alpha  occ. eigenvalues --   -1.02547  -0.84713  -0.75466  -0.73337  -0.66227
 Alpha  occ. eigenvalues --   -0.64522  -0.58722  -0.52925  -0.51220  -0.49661
 Alpha  occ. eigenvalues --   -0.47888  -0.45057  -0.43828  -0.41241  -0.39824
 Alpha  occ. eigenvalues --   -0.38202  -0.37569  -0.36372  -0.35149  -0.30246
 Alpha  occ. eigenvalues --   -0.28507  -0.27321  -0.26746  -0.24910
 Alpha virt. eigenvalues --    0.03033   0.05105   0.05825   0.08234   0.09851
 Alpha virt. eigenvalues --    0.12661   0.13292   0.14245   0.15783   0.16192
 Alpha virt. eigenvalues --    0.17448   0.18316   0.19038   0.21303   0.22046

 Mulliken charges:
               1
     1  C   -0.440958
     2  C   -0.090326
     3  C    0.166127
     4  O   -0.431219
     5  C   -0.333017
     6  C    0.172656
     7  O   -0.465867
     8  C    0.353991
     9  C   -0.454927
    10  H    0.138464
    11  H    0.093112
    12  H    0.135375
    13  H    0.086391
    14  H    0.106522
    15  H    0.279418
    16  H    0.118945
    17  H    0.086694
    18  H    0.280243
    19  H    0.198374
 Sum of Mulliken charges =   0.00000

 Dipole moment (field-independent basis, Debye):
    X=              1.1805    Y=              0.8574    Z=              0.4519  Tot=              1.5274
 Quadrupole moment (field-independent basis, Debye-Ang):
   XX=            -54.2805   YY=            -53.8111   ZZ=            -51.5118
   XY=              9.4794   XZ=              4.4323   YZ=              1.3671

  Exact polarizability:  92.331  11.921  72.536   6.594   2.765  65.553
 Approx polarizability: 131.755  18.890 107.690  14.179   9.953  99.151

                      1                      2                      3
                      A                      A                      A
 Frequencies --     81.8408               143.2418               179.9492
 Red. masses --      4.2254                 3.5458                 2.9857
 Frc consts  --      0.0167                 0.0429                 0.0570
 IR Inten    --      1.3494                 0.5300                 3.0362

                      4                      5                      6
                      A                      A                      A
 Frequencies --    210.2410               228.2753               245.0812
 Red. masses --      1.5446                 1.2223                 2.1651
 Frc consts  --      0.0402                 0.0375                 0.0766
 IR Inten    --      8.4331                10.3890                11.9623

                      7                      8                      9
                      A                      A                      A
 Frequencies --    272.2605               308.5337               371.9709
 Red. masses --      1.6610                 1.2552                 2.9459
 Frc consts  --      0.0725                 0.0704                 0.2402
 IR Inten    --      1.1660               158.3026                20.2829

                     10                     11                     12
                      A                      A                      A
 Frequencies --    398.2804               444.9761               457.3401
 Red. masses --      4.0324                 4.9386                 5.2160
 Frc consts  --      0.3769                 0.5761                 0.6428
 IR Inten    --     14.3009                 1.9698                 1.7656

                     13                     14                     15
                      A                      A                      A
 Frequencies --    556.9248               583.4321               613.4179
 Red. masses --      2.7838                 3.4646                 1.2146
 Frc consts  --      0.5087                 0.6948                 0.2693
 IR Inten    --      0.7864                 0.0646                43.2156

                     16                     17                     18
                      A                      A                      A
 Frequencies --    637.5289               674.6447               725.1241
 Red. masses --      4.8760                 1.2665                 2.6566
 Frc consts  --      1.1676                 0.3396                 0.8230
 IR Inten    --      2.9437                34.6813                 1.9548

                     19                     20                     21
                      A                      A                      A
 Frequencies --    808.3966               883.2490               917.3498
 Red. masses --      2.6754                 1.8789                 2.9741
 Frc consts  --      1.0301                 0.8636                 1.4746
 IR Inten    --      6.3502                 3.0357                10.9217

                     22                     23                     24
                      A                      A                      A
 Frequencies --    964.3668              1014.0339              1037.9609
 Red. masses --      2.1412                 2.2101                 1.4605
 Frc consts  --      1.1733                 1.3390                 0.9271
 IR Inten    --      8.7245                24.3236                15.9346

                     25                     26                     27
                      A                      A                      A
 Frequencies --   1067.0228              1098.6147              1115.6232
 Red. masses --      2.1236                 1.7528                 2.3829
 Frc consts  --      1.4245                 1.2465                 1.7474
 IR Inten    --     55.4446                26.6906                74.4540

                     28                     29                     30
                      A                      A                      A
 Frequencies --   1153.0048              1185.5786              1209.3518
 Red. masses --      2.1572                 2.4885                 1.7548
 Frc consts  --      1.6896                 2.0608                 1.5121
 IR Inten    --     84.8528                52.6954                52.4793

                     31                     32                     33
                      A                      A                      A
 Frequencies --   1264.3359              1278.4430              1311.2592
 Red. masses --      1.6331                 1.3585                 1.5160
 Frc consts  --      1.5381                 1.3082                 1.5358
 IR Inten    --     13.4674                 2.6754                 1.7163

                     34                     35                     36
                      A                      A                      A
 Frequencies --   1347.6302              1392.5187              1408.7456
 Red. masses --      1.4172                 1.5333                 1.3843
 Frc consts  --      1.5164                 1.7518                 1.6187
 IR Inten    --     15.4035                42.6150                10.4515

                     37                     38                     39
                      A                      A                      A
 Frequencies --   1437.4567              1474.1305              1500.9897
 Red. masses --      1.2332                 1.1221                 1.0505
 Frc consts  --      1.5014                 1.4366                 1.3944
 IR Inten    --     46.0188                 4.7059                 9.6363

                     40                     41                     42
                      A                      A                      A
 Frequencies --   1508.6650              2240.0660              3014.9104
 Red. masses --      1.0479                 5.9349                 1.0477
 Frc consts  --      1.4053                17.5462                 5.6107
 IR Inten    --      1.3113                 1.2508                14.7942

                     43                     44                     45
                      A                      A                      A
 Frequencies --   3037.1882              3077.3390              3090.8982
 Red. masses --      1.0650                 1.0845                 1.0877
 Frc consts  --      5.7881                 6.0511                 6.1227
 IR Inten    --     28.7730                 1.2669                17.6799

                     46                     47                     48
                      A                      A                      A
 Frequencies --   3098.7247              3118.7091              3128.5179
 Red. masses --      1.0882                 1.1019                 1.1000
 Frc consts  --      6.1566                 6.3145                 6.3433
 IR Inten    --     41.7992                11.1892                21.7652

                     49                     50                     51
                      A                      A                      A
 Frequencies --   3502.6487              3816.2670              3823.2214
 Red. masses --      1.1624                 1.0657                 1.0654
 Frc consts  --      8.4023                 9.1443                 9.1758
 IR Inten    --     67.4752                11.6450                12.8110

 - Thermochemistry -
 -------------------
 Temperature   298.150 Kelvin.  Pressure   1.00000 Atm.
 Atom     1 has atomic number  6 and mass  12.00000

 Molecular mass:   126.06808 amu.
 Principal axes and moments of inertia in atomic units:
                           1         2         3
     Eigenvalues --   731.676391399.691921675.57631
           X            0.99828   0.05853   0.00407
           Y           -0.05840   0.99795  -0.02623
           Z           -0.00560   0.02595   0.99965
 This molecule is an asymmetric top.
 Rotational symmetry number  1.
 Warning -- assumption of classical behavior for rotation
           may cause significant error
 Rotational temperatures (Kelvin)      0.11838     0.06188     0.05169
 Rotational constants (GHZ):           2.46658     1.28938     1.07709
 Zero-point vibrational energy     409483.4 (Joules/Mol)
                                   97.86888 (Kcal/Mol)
 Warning -- explicit consideration of  15 degrees of freedom as
           vibrations may cause significant error
 Vibrational temperatures:    117.75   206.09   258.91   302.49   328.44
          (Kelvin)            352.62   391.72   443.91   535.18   573.04
                              640.22   658.01   801.29   839.43   882.57
                              917.26   970.66  1043.29  1163.10  1270.80
                             1319.86  1387.51  1458.97  1493.39  1535.21
                             1580.66  1605.13  1658.91  1705.78  1739.99
                             1819.10  1839.39  1886.61  1938.94  2003.52
                             2026.87  2068.18  2120.94  2159.59  2170.63
                             3222.95  4337.78  4369.83  4427.60  4447.11
                             4458.37  4487.12  4501.23  5039.52  5490.75
                             5500.76

 Zero-point correction=                           0.155964 (Hartree/Particle)
 Thermal correction to Energy=                    0.165790
 Thermal correction to Enthalpy=                  0.166734
 Thermal correction to Gibbs Free Energy=         0.121942
 Sum of electronic and zero-point Energies=           -422.972513
 Sum of electronic and thermal Energies=              -422.962687
 Sum of electronic and thermal Enthalpies=            -422.961742
 Sum of electronic and thermal Free Energies=         -423.006535

                     E (Thermal)             CV                S
                      KCal/Mol        Cal/Mol-Kelvin    Cal/Mol-Kelvin
 Total                  104.035             37.402             94.273
 Electronic               0.000              0.000              0.000
 Translational            0.889              2.981             40.409
 Rotational               0.889              2.981             28.930
 Vibrational            102.257             31.440             24.935
 Vibration     1          0.600              1.962              3.846
 Vibration     2          0.616              1.910              2.760
 Vibration     3          0.629              1.867              2.329
 Vibration     4          0.642              1.825              2.042
 Vibration     5          0.651              1.798              1.892
 Vibration     6          0.660              1.771              1.766
 Vibration     7          0.675              1.724              1.582
 Vibration     8          0.698              1.657              1.370
 Vibration     9          0.744              1.530              1.072
 Vibration    10          0.765              1.474              0.969
 Vibration    11          0.804              1.372              0.811
 Vibration    12          0.815              1.345              0.774
 Vibration    13          0.912              1.125              0.530
 Vibration    14          0.940              1.067              0.479
 Vibration    15          0.973              1.003              0.427

 Optimization completed.
    -- Stationary point found.
 Normal termination of Gaussian 09 at Tue Jan 28 01:23:38 2020.
