 Gaussian 09, Revision D.01,
 Gaussian 09:  ES64L-G09RevD.01 24-Apr-2013

 -----------------------------
 # b3lyp 6-31G(2df,p) opt Freq
 -----------------------------

 -----
 titel
 -----
 Symbolic Z-matrix:
 Charge =  0 Multiplicity = 1

 SCF Done:  E(RB3LYP) =  -423.247523664     A.U. after   14 cycles
 Optimization completed.
    -- Stationary point found.
 Normal termination of Gaussian 09 at Mon Jan 27 17:02:17 2020.

 ----------------------------------------------------------------------
 #N Geom=AllCheck Guess=TCheck SCRF=Check GenChk RB3LYP/6-31G(2df,p) Fr
 eq
 ----------------------------------------------------------------------

 Structure from the checkpoint file:  "/scratch/puck/g09_72566338-aeeb-4e55-b5fc-fbf57a182b44/Gau-85177.chk"
 -----
 titel
 -----
 Charge =  0 Multiplicity = 1

                         Standard orientation:
 ---------------------------------------------------------------------
 Center     Atomic      Atomic             Coordinates (Angstroms)
 Number     Number       Type             X           Y           Z
 ---------------------------------------------------------------------
      1          6           0       -1.216337   -1.950498    0.492304
      2          6           0       -0.609679   -0.653410    0.009587
      3          6           0       -1.555400    0.354150   -0.646019
      4          6           0       -0.830803    1.710719   -0.537730
      5          6           0       -0.102531    1.639174    0.821323
      6          6           0        0.330311    0.168301    0.938318
      7          6           0        1.409157   -0.246281   -0.061958
      8          8           0        2.580156   -0.089638   -0.207712
      9          8           0        0.549494   -0.925784   -0.882989
     10          1           0       -1.990622   -1.753747    1.240490
     11          1           0       -1.676254   -2.494817   -0.338554
     12          1           0       -0.454888   -2.594934    0.940431
     13          1           0       -1.801325    0.067310   -1.672025
     14          1           0       -2.490960    0.376084   -0.073831
     15          1           0       -0.102905    1.810417   -1.349506
     16          1           0       -1.512542    2.561469   -0.607482
     17          1           0        0.743097    2.327782    0.895680
     18          1           0       -0.793748    1.875280    1.638375
     19          1           0        0.494644   -0.184394    1.957081
 ---------------------------------------------------------------------

 SCF Done:  E(RB3LYP) =  -423.247523664     A.U. after    1 cycles

 The electronic state is 1-A.
 Alpha  occ. eigenvalues --  -19.17169 -19.12689 -10.29956 -10.25632 -10.20534
 Alpha  occ. eigenvalues --  -10.19930 -10.19472 -10.19304 -10.19236  -1.09751
 Alpha  occ. eigenvalues --   -1.02420  -0.84522  -0.76492  -0.74203  -0.67991
 Alpha  occ. eigenvalues --   -0.61411  -0.58020  -0.52661  -0.51267  -0.49377
 Alpha  occ. eigenvalues --   -0.46387  -0.44732  -0.43280  -0.42009  -0.41714
 Alpha  occ. eigenvalues --   -0.40445  -0.37313  -0.35712  -0.35335  -0.34803
 Alpha  occ. eigenvalues --   -0.34313  -0.32160  -0.29305  -0.26410
 Alpha virt. eigenvalues --    0.01416   0.07415   0.08742   0.10770   0.11917
 Alpha virt. eigenvalues --    0.13042   0.14327   0.14570   0.15789   0.16733
 Alpha virt. eigenvalues --    0.17015   0.18104   0.19132   0.19869   0.20672

 Mulliken charges:
               1
     1  C   -0.465107
     2  C    0.438102
     3  C   -0.247243
     4  C   -0.230501
     5  C   -0.225046
     6  C   -0.262559
     7  C    0.448394
     8  O   -0.336353
     9  O   -0.292470
    10  H    0.124044
    11  H    0.134759
    12  H    0.130655
    13  H    0.116757
    14  H    0.103699
    15  H    0.127287
    16  H    0.103310
    17  H    0.124276
    18  H    0.106445
    19  H    0.101550
 Sum of Mulliken charges =   0.00000

 Dipole moment (field-independent basis, Debye):
    X=             -3.9199    Y=              0.5752    Z=              1.6548  Tot=              4.2936
 Quadrupole moment (field-independent basis, Debye-Ang):
   XX=            -60.7884   YY=            -51.1972   ZZ=            -52.4726
   XY=              0.9769   XZ=              1.8233   YZ=             -1.5455

  Exact polarizability:  82.097   2.299  74.923   0.791   0.569  65.578
 Approx polarizability: 124.467   4.194 101.100  -0.780   3.961 101.358

                      1                      2                      3
                      A                      A                      A
 Frequencies --    110.4019               179.8613               217.3083
 Red. masses --      4.9085                 2.6106                 1.0786
 Frc consts  --      0.0352                 0.0498                 0.0300
 IR Inten    --      1.0491                 1.7231                 0.2247

                      4                      5                      6
                      A                      A                      A
 Frequencies --    245.3652               293.3005               330.3172
 Red. masses --      2.1576                 2.6446                 2.4712
 Frc consts  --      0.0765                 0.1340                 0.1589
 IR Inten    --      0.2766                 1.1250                 0.7066

                      7                      8                      9
                      A                      A                      A
 Frequencies --    376.2523               500.8909               572.8318
 Red. masses --      3.0702                 4.4496                 2.1560
 Frc consts  --      0.2561                 0.6577                 0.4168
 IR Inten    --      2.4017                 1.9485                 2.1121

                     10                     11                     12
                      A                      A                      A
 Frequencies --    589.3392               619.6697               720.2258
 Red. masses --      3.6257                 3.3859                 4.3400
 Frc consts  --      0.7419                 0.7660                 1.3264
 IR Inten    --      2.0749                 0.9221                 2.7668

                     13                     14                     15
                      A                      A                      A
 Frequencies --    793.0126               823.4385               870.1595
 Red. masses --      2.8502                 3.8195                 2.5942
 Frc consts  --      1.0561                 1.5259                 1.1573
 IR Inten    --      1.0854                32.3623                40.7750

                     16                     17                     18
                      A                      A                      A
 Frequencies --    874.0405               902.0599               927.1741
 Red. masses --      2.2263                 2.4736                 2.0013
 Frc consts  --      1.0021                 1.1859                 1.0137
 IR Inten    --      0.3012                 7.5063                 1.9526

                     19                     20                     21
                      A                      A                      A
 Frequencies --    946.7191               994.4457              1023.2224
 Red. masses --      1.7996                 1.7464                 1.6241
 Frc consts  --      0.9503                 1.0175                 1.0018
 IR Inten    --      3.3782                 1.1002                16.1206

                     22                     23                     24
                      A                      A                      A
 Frequencies --   1052.5888              1095.2875              1112.8875
 Red. masses --      1.8573                 2.2641                 1.6560
 Frc consts  --      1.2124                 1.6003                 1.2084
 IR Inten    --      8.7380                45.9246                19.7806

                     25                     26                     27
                      A                      A                      A
 Frequencies --   1114.3600              1195.7267              1225.0467
 Red. masses --      1.6099                 1.8276                 2.6149
 Frc consts  --      1.1779                 1.5395                 2.3121
 IR Inten    --     16.4638                24.1426                16.3039

                     28                     29                     30
                      A                      A                      A
 Frequencies --   1244.5061              1255.7465              1280.2430
 Red. masses --      1.8934                 1.9803                 1.8202
 Frc consts  --      1.7278                 1.8399                 1.7577
 IR Inten    --     18.5560                14.9211                15.6736

                     31                     32                     33
                      A                      A                      A
 Frequencies --   1284.6906              1336.9522              1348.3693
 Red. masses --      1.4996                 1.5380                 1.3087
 Frc consts  --      1.4582                 1.6197                 1.4018
 IR Inten    --     12.1367                 6.0822                 1.9547

                     34                     35                     36
                      A                      A                      A
 Frequencies --   1370.7347              1414.0276              1472.3562
 Red. masses --      1.8116                 1.3269                 1.0941
 Frc consts  --      2.0055                 1.5632                 1.3975
 IR Inten    --     10.0755                 7.6781                 2.0851

                     37                     38                     39
                      A                      A                      A
 Frequencies --   1483.2746              1489.9784              1494.5178
 Red. masses --      1.0536                 1.0800                 1.0508
 Frc consts  --      1.3658                 1.4127                 1.3828
 IR Inten    --      3.4336                 2.2837                 3.2939

                     40                     41                     42
                      A                      A                      A
 Frequencies --   1502.4598              1927.3727              3036.2836
 Red. masses --      1.1012                12.8167                 1.0533
 Frc consts  --      1.4646                28.0516                 5.7211
 IR Inten    --      2.9508               434.0297                 5.5793

                     43                     44                     45
                      A                      A                      A
 Frequencies --   3041.4288              3043.7147              3057.5590
 Red. masses --      1.0475                 1.0659                 1.0625
 Frc consts  --      5.7089                 5.8178                 5.8521
 IR Inten    --     30.3347                23.1201                18.1592

                     46                     47                     48
                      A                      A                      A
 Frequencies --   3098.3294              3100.7367              3110.0340
 Red. masses --      1.0963                 1.0979                 1.1021
 Frc consts  --      6.2007                 6.2193                 6.2808
 IR Inten    --     14.1201                14.7403                 9.2804

                     49                     50                     51
                      A                      A                      A
 Frequencies --   3111.5107              3114.1003              3118.1430
 Red. masses --      1.0992                 1.0925                 1.1019
 Frc consts  --      6.2701                 6.2422                 6.3121
 IR Inten    --     21.5929                20.5512                20.6780

 - Thermochemistry -
 -------------------
 Temperature   298.150 Kelvin.  Pressure   1.00000 Atm.
 Atom     1 has atomic number  6 and mass  12.00000

 Molecular mass:   126.06808 amu.
 Principal axes and moments of inertia in atomic units:
                           1         2         3
     Eigenvalues --   812.81684 978.776931376.95139
           X            0.99663   0.08108   0.01229
           Y           -0.08073   0.99637  -0.02684
           Z           -0.01442   0.02575   0.99956
 This molecule is an asymmetric top.
 Rotational symmetry number  1.
 Warning -- assumption of classical behavior for rotation
           may cause significant error
 Rotational temperatures (Kelvin)      0.10656     0.08849     0.06290
 Rotational constants (GHZ):           2.22035     1.84387     1.31068
 Zero-point vibrational energy     421342.7 (Joules/Mol)
                                  100.70333 (Kcal/Mol)
 Warning -- explicit consideration of  11 degrees of freedom as
           vibrations may cause significant error
 Vibrational temperatures:    158.84   258.78   312.66   353.03   421.99
          (Kelvin)            475.25   541.34   720.67   824.18   847.93
                              891.57  1036.24  1140.97  1184.74  1251.96
                             1257.55  1297.86  1334.00  1362.12  1430.78
                             1472.19  1514.44  1575.87  1601.19  1603.31
                             1720.38  1762.57  1790.56  1806.74  1841.98
                             1848.38  1923.57  1940.00  1972.18  2034.47
                             2118.39  2134.10  2143.74  2150.28  2161.70
                             2773.06  4368.53  4375.93  4379.22  4399.14
                             4457.80  4461.26  4474.64  4476.76  4480.49
                             4486.31

 Zero-point correction=                           0.160481 (Hartree/Particle)
 Thermal correction to Energy=                    0.168351
 Thermal correction to Enthalpy=                  0.169296
 Thermal correction to Gibbs Free Energy=         0.128337
 Sum of electronic and zero-point Energies=           -423.087043
 Sum of electronic and thermal Energies=              -423.079172
 Sum of electronic and thermal Enthalpies=            -423.078228
 Sum of electronic and thermal Free Energies=         -423.119186

                     E (Thermal)             CV                S
                      KCal/Mol        Cal/Mol-Kelvin    Cal/Mol-Kelvin
 Total                  105.642             30.926             86.204
 Electronic               0.000              0.000              0.000
 Translational            0.889              2.981             40.409
 Rotational               0.889              2.981             28.484
 Vibrational            103.865             24.964             17.311
 Vibration     1          0.606              1.941              3.262
 Vibration     2          0.629              1.867              2.330
 Vibration     3          0.646              1.815              1.981
 Vibration     4          0.660              1.770              1.764
 Vibration     5          0.688              1.686              1.455
 Vibration     6          0.713              1.615              1.259
 Vibration     7          0.747              1.521              1.054
 Vibration     8          0.856              1.248              0.656
 Vibration     9          0.929              1.090              0.499
 Vibration    10          0.947              1.055              0.468
 Vibration    11          0.980              0.990              0.417

 Normal termination of Gaussian 09 at Mon Jan 27 17:45:58 2020.
