 Gaussian 09, Revision D.01,
 Gaussian 09:  ES64L-G09RevD.01 24-Apr-2013

 -----------------------------
 # b3lyp 6-31G(2df,p) opt Freq
 -----------------------------

 -----
 titel
 -----
 Symbolic Z-matrix:
 Charge =  0 Multiplicity = 1

 SCF Done:  E(RB3LYP) =  -423.200952881     A.U. after   12 cycles
 SCF Done:  E(RB3LYP) =  -423.200954011     A.U. after    7 cycles
 Optimization completed.
    -- Stationary point found.
 Normal termination of Gaussian 09 at Mon Jan 27 12:24:35 2020.

 ----------------------------------------------------------------------
 #N Geom=AllCheck Guess=TCheck SCRF=Check GenChk RB3LYP/6-31G(2df,p) Fr
 eq
 ----------------------------------------------------------------------

 Structure from the checkpoint file:  "/scratch/puck/g09_196a88f6-2af2-45e8-8ad8-3f23fa149796/Gau-152722.chk"
 -----
 titel
 -----
 Charge =  0 Multiplicity = 1

                         Standard orientation:
 ---------------------------------------------------------------------
 Center     Atomic      Atomic             Coordinates (Angstroms)
 Number     Number       Type             X           Y           Z
 ---------------------------------------------------------------------
      1          6           0       -2.353596    0.000000   -0.000008
      2          8           0       -1.523737   -1.154599   -0.052286
      3          6           0       -0.221181   -0.672723   -0.350528
      4          6           0        0.936807   -1.525918    0.127792
      5          6           0        2.185705   -0.665300    0.065525
      6          6           0        2.185698    0.665297   -0.065564
      7          6           0        0.936808    1.525923   -0.127742
      8          6           0       -0.221188    0.672718    0.350544
      9          8           0       -1.523737    1.154596    0.052259
     10          1           0       -2.984895    0.082060   -0.896328
     11          1           0       -2.984885   -0.082062    0.896319
     12          1           0       -0.121350   -0.504424   -1.436267
     13          1           0        0.752222   -1.875880    1.152389
     14          1           0        1.060339   -2.422884   -0.489191
     15          1           0        3.136436   -1.189450    0.118402
     16          1           0        3.136425    1.189450   -0.118519
     17          1           0        1.060366    2.422837    0.489315
     18          1           0        0.752208    1.875975   -1.152304
     19          1           0       -0.121399    0.504420    1.436287
 ---------------------------------------------------------------------

 SCF Done:  E(RB3LYP) =  -423.200954011     A.U. after    1 cycles

 The electronic state is 1-A.
 Alpha  occ. eigenvalues --  -19.14389 -19.14389 -10.27176 -10.23005 -10.22981
 Alpha  occ. eigenvalues --  -10.19181 -10.19181 -10.19003 -10.18917  -1.08341
 Alpha  occ. eigenvalues --   -0.99079  -0.84089  -0.74850  -0.74631  -0.65339
 Alpha  occ. eigenvalues --   -0.61112  -0.60763  -0.54208  -0.49752  -0.49206
 Alpha  occ. eigenvalues --   -0.47998  -0.46860  -0.44134  -0.41344  -0.40004
 Alpha  occ. eigenvalues --   -0.39279  -0.39216  -0.37243  -0.33832  -0.33409
 Alpha  occ. eigenvalues --   -0.31398  -0.26841  -0.25276  -0.24781
 Alpha virt. eigenvalues --    0.01716   0.09144   0.10681   0.12020   0.12598
 Alpha virt. eigenvalues --    0.13162   0.13983   0.15893   0.16800   0.17505
 Alpha virt. eigenvalues --    0.17960   0.18692   0.19240   0.20505   0.23272

 Mulliken charges:
               1
     1  C    0.010464
     2  O   -0.288524
     3  C    0.141714
     4  C   -0.306756
     5  C   -0.051802
     6  C   -0.051794
     7  C   -0.306756
     8  C    0.141711
     9  O   -0.288522
    10  H    0.102409
    11  H    0.102408
    12  H    0.072790
    13  H    0.120230
    14  H    0.113257
    15  H    0.091446
    16  H    0.091445
    17  H    0.113258
    18  H    0.120232
    19  H    0.072790
 Sum of Mulliken charges =   0.00000

 Dipole moment (field-independent basis, Debye):
    X=              1.2101    Y=              0.0000    Z=              0.0000  Tot=              1.2101
 Quadrupole moment (field-independent basis, Debye-Ang):
   XX=            -51.0335   YY=            -54.9611   ZZ=            -52.7743
   XY=              0.0000   XZ=             -0.0001   YZ=             -0.0380

  Exact polarizability:  89.010   0.000  80.817   0.000  -2.155  58.323
 Approx polarizability: 112.442   0.000 128.509   0.000  -5.138  91.896

                      1                      2                      3
                      A                      A                      A
 Frequencies --     64.2795               167.5349               188.5660
 Red. masses --      2.2795                 2.3674                 4.6560
 Frc consts  --      0.0055                 0.0391                 0.0975
 IR Inten    --      6.7765                 2.8185                 0.0094

                      4                      5                      6
                      A                      A                      A
 Frequencies --    350.6038               356.4215               407.8885
 Red. masses --      2.6719                 3.6379                 2.4370
 Frc consts  --      0.1935                 0.2723                 0.2389
 IR Inten    --      1.2613                 1.2582                 0.2652

                      7                      8                      9
                      A                      A                      A
 Frequencies --    459.1721               553.2542               566.3740
 Red. masses --      4.6591                 2.9853                 6.1140
 Frc consts  --      0.5788                 0.5384                 1.1555
 IR Inten    --      2.1994                 3.1006                 2.0465

                     10                     11                     12
                      A                      A                      A
 Frequencies --    687.6609               731.6086               805.1540
 Red. masses --      1.1675                 8.6335                 3.7990
 Frc consts  --      0.3253                 2.7227                 1.4510
 IR Inten    --     26.8856                 1.8750                14.8182

                     13                     14                     15
                      A                      A                      A
 Frequencies --    822.1146               899.9937               943.2512
 Red. masses --      2.2909                 2.8212                 2.1810
 Frc consts  --      0.9122                 1.3464                 1.1433
 IR Inten    --      0.0662                 0.0998                 2.0046

                     16                     17                     18
                      A                      A                      A
 Frequencies --    975.8423               997.5637              1000.9008
 Red. masses --      2.8955                 2.3706                 1.2024
 Frc consts  --      1.6246                 1.3899                 0.7097
 IR Inten    --     18.5242                54.5730                 0.0084

                     19                     20                     21
                      A                      A                      A
 Frequencies --   1015.8114              1064.5837              1070.6229
 Red. masses --      4.1710                 4.1320                 2.1628
 Frc consts  --      2.5358                 2.7591                 1.4606
 IR Inten    --      2.2535                10.5458                 0.2280

                     22                     23                     24
                      A                      A                      A
 Frequencies --   1128.0345              1135.3569              1146.8050
 Red. masses --      1.7905                 2.5796                 1.4491
 Frc consts  --      1.3423                 1.9591                 1.1229
 IR Inten    --     13.1576               125.5563                 6.0128

                     25                     26                     27
                      A                      A                      A
 Frequencies --   1146.9313              1171.7087              1204.4584
 Red. masses --      2.3618                 1.5603                 1.0938
 Frc consts  --      1.8305                 1.2621                 0.9349
 IR Inten    --    117.2280                 1.3656                14.3072

                     28                     29                     30
                      A                      A                      A
 Frequencies --   1216.7530              1236.1452              1302.7047
 Red. masses --      1.2992                 1.3576                 1.3489
 Frc consts  --      1.1333                 1.2223                 1.3488
 IR Inten    --     39.4288                 1.4573                 1.5608

                     31                     32                     33
                      A                      A                      A
 Frequencies --   1325.4541              1328.7804              1387.9602
 Red. masses --      1.4225                 1.4140                 1.3058
 Frc consts  --      1.4724                 1.4710                 1.4821
 IR Inten    --      0.1216                 0.0187                36.8808

                     34                     35                     36
                      A                      A                      A
 Frequencies --   1388.6766              1413.3079              1413.8302
 Red. masses --      1.3968                 1.7464                 1.4114
 Frc consts  --      1.5871                 2.0552                 1.6622
 IR Inten    --      1.7537                 4.7043                 3.4167

                     37                     38                     39
                      A                      A                      A
 Frequencies --   1434.7409              1486.1114              1487.2419
 Red. masses --      1.3374                 1.1051                 1.1147
 Frc consts  --      1.6220                 1.4380                 1.4527
 IR Inten    --      2.9705                 6.1792                 0.6810

                     40                     41                     42
                      A                      A                      A
 Frequencies --   1548.7390              1701.4911              2951.5745
 Red. masses --      1.1043                 6.3464                 1.0790
 Frc consts  --      1.5606                10.8252                 5.5382
 IR Inten    --      3.5843                 3.4654                 9.3452

                     43                     44                     45
                      A                      A                      A
 Frequencies --   2967.9245              2989.2971              3022.9807
 Red. masses --      1.0844                 1.0528                 1.0638
 Frc consts  --      5.6276                 5.5430                 5.7276
 IR Inten    --     62.0187               119.5242                 0.1122

                     46                     47                     48
                      A                      A                      A
 Frequencies --   3024.5684              3025.7078              3064.5187
 Red. masses --      1.0741                 1.1025                 1.0978
 Frc consts  --      5.7890                 5.9467                 6.0744
 IR Inten    --     22.8987                90.9303                 1.1195

                     49                     50                     51
                      A                      A                      A
 Frequencies --   3065.7411              3150.0624              3172.6641
 Red. masses --      1.0986                 1.0838                 1.0963
 Frc consts  --      6.0839                 6.3365                 6.5017
 IR Inten    --     46.8981                 4.8226                35.0883

 - Thermochemistry -
 -------------------
 Temperature   298.150 Kelvin.  Pressure   1.00000 Atm.
 Atom     1 has atomic number  6 and mass  12.00000

 Molecular mass:   126.06808 amu.
 Principal axes and moments of inertia in atomic units:
                           1         2         3
     Eigenvalues --   552.843741182.899471646.54143
           X            1.00000   0.00000   0.00000
           Y            0.00000   0.99997  -0.00712
           Z            0.00000   0.00712   0.99997
 This molecule is an asymmetric top.
 Rotational symmetry number  1.
 Warning -- assumption of classical behavior for rotation
           may cause significant error
 Rotational temperatures (Kelvin)      0.15667     0.07322     0.05260
 Rotational constants (GHZ):           3.26447     1.52569     1.09608
 Zero-point vibrational energy     425688.0 (Joules/Mol)
                                  101.74187 (Kcal/Mol)
 Warning -- explicit consideration of   9 degrees of freedom as
           vibrations may cause significant error
 Vibrational temperatures:     92.48   241.05   271.30   504.44   512.81
          (Kelvin)            586.86   660.65   796.01   814.88   989.39
                             1052.62  1158.44  1182.84  1294.89  1357.13
                             1404.02  1435.27  1440.07  1461.52  1531.70
                             1540.39  1622.99  1633.52  1649.99  1650.18
                             1685.83  1732.94  1750.63  1778.54  1874.30
                             1907.03  1911.82  1996.96  1997.99  2033.43
                             2034.18  2064.27  2138.18  2139.81  2228.29
                             2448.06  4246.65  4270.18  4300.93  4349.39
                             4351.67  4353.31  4409.15  4410.91  4532.23
                             4564.75

 Zero-point correction=                           0.162136 (Hartree/Particle)
 Thermal correction to Energy=                    0.169513
 Thermal correction to Enthalpy=                  0.170458
 Thermal correction to Gibbs Free Energy=         0.129932
 Sum of electronic and zero-point Energies=           -423.038818
 Sum of electronic and thermal Energies=              -423.031441
 Sum of electronic and thermal Enthalpies=            -423.030496
 Sum of electronic and thermal Free Energies=         -423.071022

                     E (Thermal)             CV                S
                      KCal/Mol        Cal/Mol-Kelvin    Cal/Mol-Kelvin
 Total                  106.371             28.787             85.294
 Electronic               0.000              0.000              0.000
 Translational            0.889              2.981             40.409
 Rotational               0.889              2.981             28.467
 Vibrational            104.594             22.825             16.418
 Vibration     1          0.597              1.971              4.321
 Vibration     2          0.624              1.882              2.463
 Vibration     3          0.633              1.856              2.242
 Vibration     4          0.728              1.574              1.163
 Vibration     5          0.732              1.562              1.138
 Vibration     6          0.772              1.453              0.934
 Vibration     7          0.817              1.341              0.769
 Vibration     8          0.909              1.133              0.537
 Vibration     9          0.922              1.104              0.511

 Optimization completed.
    -- Stationary point found.
 Normal termination of Gaussian 09 at Mon Jan 27 13:12:33 2020.
