 Gaussian 09, Revision D.01,
 Gaussian 09:  ES64L-G09RevD.01 24-Apr-2013

 -----------------------------
 # b3lyp 6-31G(2df,p) opt Freq
 -----------------------------

 -----
 titel
 -----
 Symbolic Z-matrix:
 Charge =  0 Multiplicity = 1

 SCF Done:  E(RB3LYP) =  -423.159788324     A.U. after   14 cycles
 Optimization completed.
    -- Stationary point found.
 Normal termination of Gaussian 09 at Tue Jan 28 02:22:57 2020.

 ----------------------------------------------------------------------
 #N Geom=AllCheck Guess=TCheck SCRF=Check GenChk RB3LYP/6-31G(2df,p) Fr
 eq
 ----------------------------------------------------------------------

 Structure from the checkpoint file:  "/scratch/puck/g09_69626aa6-4de4-4cf8-870e-115847f12122/Gau-86229.chk"
 -----
 titel
 -----
 Charge =  0 Multiplicity = 1

                         Standard orientation:
 ---------------------------------------------------------------------
 Center     Atomic      Atomic             Coordinates (Angstroms)
 Number     Number       Type             X           Y           Z
 ---------------------------------------------------------------------
      1          6           0        0.095577    2.499635   -0.071262
      2          6           0        0.931891    1.265125    0.187726
      3          8           0        1.015862    0.323917   -0.930001
      4          6           0        0.805387   -0.779998   -0.033786
      5          6           0        1.647158   -1.999114   -0.222849
      6          6           0       -0.612294   -0.741598    0.494002
      7          6           0       -1.767597   -0.299163   -0.327054
      8          8           0       -2.909305   -0.623438   -0.094321
      9          6           0        0.496555    0.137449    1.114941
     10          1           0        0.154006    3.169965    0.792841
     11          1           0        0.484634    3.037418   -0.941862
     12          1           0       -0.954992    2.264443   -0.251074
     13          1           0        1.956023    1.565559    0.449704
     14          1           0        1.436005   -2.736118    0.556703
     15          1           0        1.435986   -2.461013   -1.193343
     16          1           0        2.711283   -1.745753   -0.190570
     17          1           0       -0.865627   -1.560418    1.162693
     18          1           0       -1.511994    0.318000   -1.210184
     19          1           0        0.722158    0.050076    2.169355
 ---------------------------------------------------------------------

 SCF Done:  E(RB3LYP) =  -423.159788324     A.U. after    1 cycles

 The electronic state is 1-A.
 Alpha  occ. eigenvalues --  -19.14999 -19.12670 -10.26166 -10.26061 -10.25272
 Alpha  occ. eigenvalues --  -10.21338 -10.20532 -10.19576 -10.18711  -1.06424
 Alpha  occ. eigenvalues --   -1.03291  -0.84931  -0.77485  -0.73417  -0.68431
 Alpha  occ. eigenvalues --   -0.61960  -0.56667  -0.53790  -0.51879  -0.49512
 Alpha  occ. eigenvalues --   -0.46402  -0.43859  -0.42478  -0.41976  -0.41781
 Alpha  occ. eigenvalues --   -0.41206  -0.39298  -0.38108  -0.36994  -0.33329
 Alpha  occ. eigenvalues --   -0.32527  -0.29400  -0.26218  -0.23015
 Alpha virt. eigenvalues --   -0.01995   0.07508   0.08412   0.10061   0.11847
 Alpha virt. eigenvalues --    0.12561   0.14319   0.14449   0.15131   0.16041
 Alpha virt. eigenvalues --    0.16480   0.17186   0.18807   0.20127   0.21068

 Mulliken charges:
               1
     1  C   -0.420541
     2  C    0.147952
     3  O   -0.338077
     4  C    0.433258
     5  C   -0.488612
     6  C   -0.170791
     7  C    0.138106
     8  O   -0.277808
     9  C   -0.226768
    10  H    0.125508
    11  H    0.134072
    12  H    0.130992
    13  H    0.092016
    14  H    0.130824
    15  H    0.140644
    16  H    0.133025
    17  H    0.110465
    18  H    0.095860
    19  H    0.109877
 Sum of Mulliken charges =   0.00000

 Dipole moment (field-independent basis, Debye):
    X=              3.2280    Y=              0.4273    Z=              1.4253  Tot=              3.5545
 Quadrupole moment (field-independent basis, Debye-Ang):
   XX=            -63.7068   YY=            -48.2893   ZZ=            -52.8706
   XY=             -2.9373   XZ=              2.1635   YZ=              0.2535

  Exact polarizability:  86.468   1.662  82.510   0.906  -1.027  64.645
 Approx polarizability: 130.563   8.237 109.071  -1.568  -0.268 103.917

                      1                      2                      3
                      A                      A                      A
 Frequencies --     80.8176               145.1453               183.4193
 Red. masses --      5.1802                 2.4827                 2.1763
 Frc consts  --      0.0199                 0.0308                 0.0431
 IR Inten    --      4.6079                 1.1847                 3.4468

                      4                      5                      6
                      A                      A                      A
 Frequencies --    194.5103               216.7569               233.2180
 Red. masses --      1.0818                 1.4596                 2.5601
 Frc consts  --      0.0241                 0.0404                 0.0820
 IR Inten    --      0.2811                 1.8063                 1.6971

                      7                      8                      9
                      A                      A                      A
 Frequencies --    269.6795               327.4550               402.3104
 Red. masses --      2.2968                 3.1369                 2.6464
 Frc consts  --      0.0984                 0.1982                 0.2524
 IR Inten    --      3.2037                 0.2334                 4.8399

                     10                     11                     12
                      A                      A                      A
 Frequencies --    442.5473               541.0204               578.1347
 Red. masses --      5.5425                 4.3911                 3.1662
 Frc consts  --      0.6396                 0.7573                 0.6235
 IR Inten    --      9.3971                 0.8841                 5.2274

                     13                     14                     15
                      A                      A                      A
 Frequencies --    662.8011               700.4440               826.4371
 Red. masses --      3.5603                 3.1736                 2.4204
 Frc consts  --      0.9215                 0.9174                 0.9740
 IR Inten    --      9.0986                 0.6072                 8.5014

                     16                     17                     18
                      A                      A                      A
 Frequencies --    863.0799               873.0058               912.1208
 Red. masses --      2.6932                 2.0979                 2.0139
 Frc consts  --      1.1820                 0.9420                 0.9872
 IR Inten    --     36.8230                 5.4129                19.6870

                     19                     20                     21
                      A                      A                      A
 Frequencies --    975.2060               986.8648              1033.1587
 Red. masses --      1.7291                 1.9077                 1.5661
 Frc consts  --      0.9688                 1.0946                 0.9849
 IR Inten    --      9.6006                16.2387                 6.5199

                     22                     23                     24
                      A                      A                      A
 Frequencies --   1053.3851              1074.1930              1087.4127
 Red. masses --      1.7867                 1.9372                 2.1494
 Frc consts  --      1.1681                 1.3170                 1.4974
 IR Inten    --     42.2037                11.4788                48.7444

                     25                     26                     27
                      A                      A                      A
 Frequencies --   1107.6232              1139.1715              1164.3283
 Red. masses --      1.7142                 2.5788                 2.2400
 Frc consts  --      1.2390                 1.9717                 1.7891
 IR Inten    --     21.8197                11.4333                57.3454

                     28                     29                     30
                      A                      A                      A
 Frequencies --   1194.7362              1244.5549              1302.9665
 Red. masses --      2.1639                 1.5996                 1.4303
 Frc consts  --      1.8198                 1.4598                 1.4307
 IR Inten    --     24.6965                 1.9998                 8.3536

                     31                     32                     33
                      A                      A                      A
 Frequencies --   1310.5312              1386.7599              1403.8630
 Red. masses --      1.6529                 1.4484                 1.2453
 Frc consts  --      1.6726                 1.6411                 1.4460
 IR Inten    --      6.8937                17.8652                 6.1295

                     34                     35                     36
                      A                      A                      A
 Frequencies --   1411.9812              1417.4021              1470.9169
 Red. masses --      1.3557                 1.3037                 1.4081
 Frc consts  --      1.5924                 1.5431                 1.7950
 IR Inten    --     28.0238                 2.0999                11.4055

                     37                     38                     39
                      A                      A                      A
 Frequencies --   1477.7933              1488.6606              1492.2526
 Red. masses --      1.3404                 1.1737                 1.0546
 Frc consts  --      1.7247                 1.5325                 1.3836
 IR Inten    --     14.8568                 0.1186                 2.7093

                     40                     41                     42
                      A                      A                      A
 Frequencies --   1497.7082              1800.7933              2943.3861
 Red. masses --      1.2128                 9.6086                 1.0831
 Frc consts  --      1.6028                18.3586                 5.5284
 IR Inten    --      8.5686               238.1371                57.2704

                     43                     44                     45
                      A                      A                      A
 Frequencies --   3006.4464              3037.4189              3043.8201
 Red. masses --      1.0844                 1.0353                 1.0374
 Frc consts  --      5.7748                 5.6277                 5.6629
 IR Inten    --     39.1251                21.8226                13.0727

                     46                     47                     48
                      A                      A                      A
 Frequencies --   3103.0268              3108.1573              3121.6357
 Red. masses --      1.1011                 1.1005                 1.1010
 Frc consts  --      6.2465                 6.2640                 6.3215
 IR Inten    --     13.2637                12.5334                11.8383

                     49                     50                     51
                      A                      A                      A
 Frequencies --   3138.0045              3154.8601              3203.4070
 Red. masses --      1.0997                 1.0867                 1.0939
 Frc consts  --      6.3804                 6.3725                 6.6136
 IR Inten    --     21.3694                 3.9843                 7.8564

 - Thermochemistry -
 -------------------
 Temperature   298.150 Kelvin.  Pressure   1.00000 Atm.
 Atom     1 has atomic number  6 and mass  12.00000

 Molecular mass:   126.06808 amu.
 Principal axes and moments of inertia in atomic units:
                           1         2         3
     Eigenvalues --   913.088681121.995001711.33880
           X            0.98973  -0.14273   0.00816
           Y            0.14277   0.98975  -0.00361
           Z           -0.00756   0.00474   0.99996
 This molecule is an asymmetric top.
 Rotational symmetry number  1.
 Warning -- assumption of classical behavior for rotation
           may cause significant error
 Rotational temperatures (Kelvin)      0.09486     0.07720     0.05061
 Rotational constants (GHZ):           1.97652     1.60851     1.05458
 Zero-point vibrational energy     411726.7 (Joules/Mol)
                                   98.40504 (Kcal/Mol)
 Warning -- explicit consideration of  12 degrees of freedom as
           vibrations may cause significant error
 Vibrational temperatures:    116.28   208.83   263.90   279.86   311.86
          (Kelvin)            335.55   388.01   471.13   578.83   636.73
                              778.41   831.81   953.62  1007.78  1189.06
                             1241.78  1256.06  1312.34  1403.10  1419.88
                             1486.48  1515.58  1545.52  1564.54  1593.62
                             1639.01  1675.21  1718.96  1790.63  1874.68
                             1885.56  1995.24  2019.84  2031.52  2039.32
                             2116.32  2126.21  2141.85  2147.02  2154.87
                             2590.94  4234.87  4325.60  4370.16  4379.37
                             4464.56  4471.94  4491.33  4514.88  4539.13
                             4608.98

 Zero-point correction=                           0.156818 (Hartree/Particle)
 Thermal correction to Energy=                    0.165924
 Thermal correction to Enthalpy=                  0.166868
 Thermal correction to Gibbs Free Energy=         0.123062
 Sum of electronic and zero-point Energies=           -423.002970
 Sum of electronic and thermal Energies=              -422.993864
 Sum of electronic and thermal Enthalpies=            -422.992920
 Sum of electronic and thermal Free Energies=         -423.036726

                     E (Thermal)             CV                S
                      KCal/Mol        Cal/Mol-Kelvin    Cal/Mol-Kelvin
 Total                  104.119             33.809             92.197
 Electronic               0.000              0.000              0.000
 Translational            0.889              2.981             40.409
 Rotational               0.889              2.981             28.951
 Vibrational            102.341             27.848             22.837
 Vibration     1          0.600              1.962              3.871
 Vibration     2          0.617              1.908              2.735
 Vibration     3          0.631              1.862              2.293
 Vibration     4          0.635              1.848              2.184
 Vibration     5          0.646              1.816              1.986
 Vibration     6          0.654              1.790              1.854
 Vibration     7          0.674              1.729              1.598
 Vibration     8          0.711              1.621              1.273
 Vibration     9          0.768              1.465              0.954
 Vibration    10          0.802              1.377              0.819
 Vibration    11          0.896              1.159              0.563
 Vibration    12          0.935              1.079              0.489

 Normal termination of Gaussian 09 at Tue Jan 28 03:03:40 2020.
