 Gaussian 09, Revision D.01,
 Gaussian 09:  ES64L-G09RevD.01 24-Apr-2013

 -----------------------------
 # b3lyp 6-31G(2df,p) opt Freq
 -----------------------------

 -----
 titel
 -----
 Symbolic Z-matrix:
 Charge =  0 Multiplicity = 1

 SCF Done:  E(RB3LYP) =  -423.123099935     A.U. after   13 cycles
 Optimization completed.
    -- Stationary point found.
 Normal termination of Gaussian 09 at Tue Jan 28 03:50:45 2020.

 ----------------------------------------------------------------------
 #N Geom=AllCheck Guess=TCheck SCRF=Check GenChk RB3LYP/6-31G(2df,p) Fr
 eq
 ----------------------------------------------------------------------

 Structure from the checkpoint file:  "/scratch/puck/g09_eb455d48-0197-4272-825c-283d488a3bd6/Gau-2857.chk"
 -----
 titel
 -----
 Charge =  0 Multiplicity = 1

                         Standard orientation:
 ---------------------------------------------------------------------
 Center     Atomic      Atomic             Coordinates (Angstroms)
 Number     Number       Type             X           Y           Z
 ---------------------------------------------------------------------
      1          8           0       -2.380036   -1.023722    0.010363
      2          6           0       -1.400368   -0.179653   -0.566130
      3          6           0       -1.384051    1.287716   -0.022503
      4          6           0       -0.059180    1.011954    0.762338
      5          6           0        1.251180    1.506954    0.090934
      6          6           0        1.302252    0.185198   -0.710796
      7          8           0        2.074350   -0.855406   -0.066881
      8          6           0        0.877886   -1.528244    0.409368
      9          6           0        0.017642   -0.349275   -0.017949
     10          1           0       -2.323766   -0.942973    0.968990
     11          1           0       -1.519226   -0.303603   -1.646502
     12          1           0       -1.302103    2.061006   -0.791627
     13          1           0       -2.253403    1.513909    0.600826
     14          1           0       -0.134479    1.071467    1.849962
     15          1           0        1.154250    2.422505   -0.501148
     16          1           0        2.105781    1.606819    0.764073
     17          1           0        1.466846    0.211157   -1.793296
     18          1           0        0.688953   -2.454665   -0.150701
     19          1           0        0.930461   -1.760494    1.479993
 ---------------------------------------------------------------------

 SCF Done:  E(RB3LYP) =  -423.123099935     A.U. after    1 cycles

 The electronic state is 1-A.
 Alpha  occ. eigenvalues --  -19.14191 -19.13372 -10.23602 -10.23348 -10.23048
 Alpha  occ. eigenvalues --  -10.19445 -10.19053 -10.18762 -10.18360  -1.03861
 Alpha  occ. eigenvalues --   -1.02318  -0.85972  -0.74572  -0.70588  -0.66356
 Alpha  occ. eigenvalues --   -0.61594  -0.59397  -0.52781  -0.51438  -0.49040
 Alpha  occ. eigenvalues --   -0.47812  -0.44842  -0.42952  -0.42418  -0.39476
 Alpha  occ. eigenvalues --   -0.37967  -0.37569  -0.35256  -0.34134  -0.30396
 Alpha  occ. eigenvalues --   -0.29362  -0.28489  -0.25350  -0.24240
 Alpha virt. eigenvalues --    0.05111   0.07841   0.09430   0.10075   0.10428
 Alpha virt. eigenvalues --    0.12674   0.13942   0.15101   0.15585   0.16622
 Alpha virt. eigenvalues --    0.17028   0.18920   0.20039   0.20111   0.21618

 Mulliken charges:
               1
     1  O   -0.428907
     2  C    0.016660
     3  C   -0.268474
     4  C   -0.088946
     5  C   -0.252301
     6  C    0.071938
     7  O   -0.295935
     8  C   -0.185711
     9  C    0.296859
    10  H    0.279484
    11  H    0.087345
    12  H    0.105395
    13  H    0.104775
    14  H    0.065285
    15  H    0.097570
    16  H    0.114200
    17  H    0.072383
    18  H    0.107822
    19  H    0.100558
 Sum of Mulliken charges =   0.00000

 Dipole moment (field-independent basis, Debye):
    X=             -0.7518    Y=              1.2574    Z=              0.8207  Tot=              1.6792
 Quadrupole moment (field-independent basis, Debye-Ang):
   XX=            -61.8857   YY=            -53.2560   ZZ=            -49.1893
   XY=             -0.1654   XZ=             -2.7527   YZ=             -1.9924

  Exact polarizability:  76.802   0.621  78.484  -1.260  -1.902  68.315
 Approx polarizability: 107.399   2.079 110.541  -2.557  -2.887 105.607

                      1                      2                      3
                      A                      A                      A
 Frequencies --     89.3079               146.2997               220.1777
 Red. masses --      2.7548                 3.4677                 3.8556
 Frc consts  --      0.0129                 0.0437                 0.1101
 IR Inten    --      0.8763                 5.2949                 0.5816

                      4                      5                      6
                      A                      A                      A
 Frequencies --    295.5520               301.9212               373.9328
 Red. masses --      2.3564                 1.1457                 2.8644
 Frc consts  --      0.1213                 0.0615                 0.2360
 IR Inten    --      0.7195                93.7927                 0.2887

                      7                      8                      9
                      A                      A                      A
 Frequencies --    396.0775               452.0299               529.3155
 Red. masses --      3.0263                 1.9026                 3.9304
 Frc consts  --      0.2797                 0.2291                 0.6488
 IR Inten    --      1.9123                 2.5524                 5.5510

                     10                     11                     12
                      A                      A                      A
 Frequencies --    682.3633               747.3813               785.0013
 Red. masses --      3.1340                 2.4151                 2.2561
 Frc consts  --      0.8598                 0.7948                 0.8191
 IR Inten    --      1.6052                 3.3424                 0.6817

                     13                     14                     15
                      A                      A                      A
 Frequencies --    825.8341               841.0962               866.0745
 Red. masses --      2.9283                 2.2613                 2.6537
 Frc consts  --      1.1767                 0.9425                 1.1728
 IR Inten    --     14.0483                 2.6053                10.5634

                     16                     17                     18
                      A                      A                      A
 Frequencies --    911.1282               927.3934               987.1307
 Red. masses --      1.8656                 2.2720                 4.5357
 Frc consts  --      0.9125                 1.1513                 2.6040
 IR Inten    --     17.4680                 8.9180                23.1403

                     19                     20                     21
                      A                      A                      A
 Frequencies --   1000.9733              1011.6466              1023.4138
 Red. masses --      2.8714                 2.1057                 2.0723
 Frc consts  --      1.6951                 1.2697                 1.2788
 IR Inten    --     32.3075                 0.3155                11.2118

                     22                     23                     24
                      A                      A                      A
 Frequencies --   1050.8864              1100.6413              1104.6983
 Red. masses --      2.9898                 2.0469                 1.7965
 Frc consts  --      1.9454                 1.4610                 1.2917
 IR Inten    --     26.0476                70.8561                12.0820

                     25                     26                     27
                      A                      A                      A
 Frequencies --   1132.3297              1146.1241              1168.3831
 Red. masses --      1.7517                 1.7330                 1.3376
 Frc consts  --      1.3233                 1.3413                 1.0758
 IR Inten    --     34.5095                17.7112                 1.5983

                     28                     29                     30
                      A                      A                      A
 Frequencies --   1197.6906              1223.3699              1238.3616
 Red. masses --      1.4795                 1.5928                 1.5160
 Frc consts  --      1.2504                 1.4045                 1.3698
 IR Inten    --      4.2950                 1.0155                 0.9072

                     31                     32                     33
                      A                      A                      A
 Frequencies --   1257.5889              1268.2632              1290.3366
 Red. masses --      1.7775                 1.6065                 1.4154
 Frc consts  --      1.6563                 1.5225                 1.3885
 IR Inten    --      3.1071                 8.7206                 3.8140

                     34                     35                     36
                      A                      A                      A
 Frequencies --   1295.1554              1299.0260              1325.6819
 Red. masses --      1.6864                 1.5935                 1.5377
 Frc consts  --      1.6667                 1.5843                 1.5923
 IR Inten    --      0.5477                 2.1500                 7.5687

                     37                     38                     39
                      A                      A                      A
 Frequencies --   1368.8072              1431.0321              1458.2791
 Red. masses --      1.8852                 1.2630                 1.1084
 Frc consts  --      2.0811                 1.5238                 1.3888
 IR Inten    --      3.3490                67.6922                 0.2153

                     40                     41                     42
                      A                      A                      A
 Frequencies --   1470.6755              1518.5998              3001.4647
 Red. masses --      1.1087                 1.1001                 1.0575
 Frc consts  --      1.4129                 1.4947                 5.6132
 IR Inten    --      6.6622                 0.7764                77.9427

                     43                     44                     45
                      A                      A                      A
 Frequencies --   3043.6480              3050.9461              3052.8327
 Red. masses --      1.0751                 1.1069                 1.0608
 Frc consts  --      5.8682                 6.0703                 5.8251
 IR Inten    --     34.5785                34.9054                25.7040

                     46                     47                     48
                      A                      A                      A
 Frequencies --   3055.2818              3069.0379              3081.8881
 Red. masses --      1.0726                 1.0866                 1.0898
 Frc consts  --      5.8990                 6.0303                 6.0984
 IR Inten    --     52.3251                56.1336                15.9104

                     49                     50                     51
                      A                      A                      A
 Frequencies --   3109.9624              3115.5413              3798.0671
 Red. masses --      1.1065                 1.1047                 1.0659
 Frc consts  --      6.3053                 6.3180                 9.0596
 IR Inten    --     15.2055                31.7701                11.5117

 - Thermochemistry -
 -------------------
 Temperature   298.150 Kelvin.  Pressure   1.00000 Atm.
 Atom     1 has atomic number  8 and mass  15.99491

 Molecular mass:   126.06808 amu.
 Principal axes and moments of inertia in atomic units:
                           1         2         3
     Eigenvalues --   636.011271113.435501510.33504
           X            0.99999  -0.00345  -0.00263
           Y            0.00341   0.99987  -0.01546
           Z            0.00269   0.01545   0.99988
 This molecule is an asymmetric top.
 Rotational symmetry number  1.
 Warning -- assumption of classical behavior for rotation
           may cause significant error
 Rotational temperatures (Kelvin)      0.13618     0.07779     0.05735
 Rotational constants (GHZ):           2.83759     1.62088     1.19493
 Zero-point vibrational energy     419522.3 (Joules/Mol)
                                  100.26824 (Kcal/Mol)
 Warning -- explicit consideration of   9 degrees of freedom as
           vibrations may cause significant error
 Vibrational temperatures:    128.49   210.49   316.79   425.23   434.40
          (Kelvin)            538.01   569.87   650.37   761.57   981.77
                             1075.31  1129.44  1188.19  1210.15  1246.09
                             1310.91  1334.31  1420.26  1440.18  1455.53
                             1472.46  1511.99  1583.58  1589.41  1629.17
                             1649.01  1681.04  1723.21  1760.15  1781.72
                             1809.39  1824.75  1856.50  1863.44  1869.01
                             1907.36  1969.41  2058.93  2098.14  2115.97
                             2184.92  4318.43  4379.13  4389.63  4392.34
                             4395.86  4415.66  4434.14  4474.54  4482.56
                             5464.56

 Zero-point correction=                           0.159788 (Hartree/Particle)
 Thermal correction to Energy=                    0.167544
 Thermal correction to Enthalpy=                  0.168489
 Thermal correction to Gibbs Free Energy=         0.127554
 Sum of electronic and zero-point Energies=           -422.963312
 Sum of electronic and thermal Energies=              -422.955555
 Sum of electronic and thermal Enthalpies=            -422.954611
 Sum of electronic and thermal Free Energies=         -422.995546

                     E (Thermal)             CV                S
                      KCal/Mol        Cal/Mol-Kelvin    Cal/Mol-Kelvin
 Total                  105.136             30.546             86.153
 Electronic               0.000              0.000              0.000
 Translational            0.889              2.981             40.409
 Rotational               0.889              2.981             28.460
 Vibrational            103.358             24.585             17.284
 Vibration     1          0.602              1.957              3.675
 Vibration     2          0.617              1.907              2.720
 Vibration     3          0.647              1.810              1.958
 Vibration     4          0.690              1.682              1.442
 Vibration     5          0.694              1.670              1.406
 Vibration     6          0.745              1.526              1.064
 Vibration     7          0.763              1.479              0.977
 Vibration     8          0.811              1.356              0.790
 Vibration     9          0.884              1.185              0.589

 Normal termination of Gaussian 09 at Tue Jan 28 04:35:12 2020.
