 Gaussian 09, Revision D.01,
 Gaussian 09:  ES64L-G09RevD.01 24-Apr-2013

 -----------------------------
 # b3lyp 6-31G(2df,p) opt Freq
 -----------------------------

 -----
 titel
 -----
 Symbolic Z-matrix:
 Charge =  0 Multiplicity = 1

 SCF Done:  E(RB3LYP) =  -423.172654574     A.U. after   14 cycles
 Optimization completed.
    -- Stationary point found.
 Normal termination of Gaussian 09 at Tue Jan 28 12:12:10 2020.

 ----------------------------------------------------------------------
 #N Geom=AllCheck Guess=TCheck SCRF=Check GenChk RB3LYP/6-31G(2df,p) Fr
 eq
 ----------------------------------------------------------------------

 Structure from the checkpoint file:  "/scratch/puck/g09_eacad926-ffa1-43cd-8068-025282d05d0c/Gau-54396.chk"
 -----
 titel
 -----
 Charge =  0 Multiplicity = 1

                         Standard orientation:
 ---------------------------------------------------------------------
 Center     Atomic      Atomic             Coordinates (Angstroms)
 Number     Number       Type             X           Y           Z
 ---------------------------------------------------------------------
      1          6           0       -2.644736   -0.203079   -0.118190
      2          6           0       -1.480480   -0.506918    0.835754
      3          6           0       -0.145631   -0.235147    0.193062
      4          8           0        0.121108   -1.053780   -0.982086
      5          6           0        1.399150   -1.487763   -0.456535
      6          6           0        1.297786   -0.534716    0.740210
      7          6           0        1.743726    0.918515    0.426320
      8          6           0        0.325258    1.213710   -0.110504
      9          8           0       -0.209835    2.186847   -0.554270
     10          1           0       -3.603674   -0.423247    0.359264
     11          1           0       -2.637636    0.848629   -0.415873
     12          1           0       -2.563547   -0.812044   -1.022568
     13          1           0       -1.562265    0.104354    1.743746
     14          1           0       -1.511283   -1.556744    1.152831
     15          1           0        1.374784   -2.553909   -0.199970
     16          1           0        2.220852   -1.306356   -1.159535
     17          1           0        1.496076   -0.919298    1.738413
     18          1           0        1.959647    1.518300    1.316661
     19          1           0        2.566423    1.048156   -0.282824
 ---------------------------------------------------------------------

 SCF Done:  E(RB3LYP) =  -423.172654574     A.U. after    1 cycles

 The electronic state is 1-A.
 Alpha  occ. eigenvalues --  -19.14730 -19.14329 -10.27028 -10.24382 -10.24086
 Alpha  occ. eigenvalues --  -10.20473 -10.19967 -10.19026 -10.17142  -1.05802
 Alpha  occ. eigenvalues --   -1.04236  -0.83049  -0.77963  -0.70682  -0.66899
 Alpha  occ. eigenvalues --   -0.61293  -0.59005  -0.50798  -0.50387  -0.48533
 Alpha  occ. eigenvalues --   -0.47010  -0.44737  -0.42574  -0.41651  -0.41052
 Alpha  occ. eigenvalues --   -0.39447  -0.37666  -0.36489  -0.35897  -0.34768
 Alpha  occ. eigenvalues --   -0.31859  -0.29657  -0.28173  -0.23076
 Alpha virt. eigenvalues --   -0.03104   0.07514   0.08845   0.11372   0.12171
 Alpha virt. eigenvalues --    0.13067   0.13286   0.13755   0.15967   0.16436
 Alpha virt. eigenvalues --    0.17392   0.18401   0.19180   0.20133   0.21836

 Mulliken charges:
               1
     1  C   -0.388059
     2  C   -0.287400
     3  C    0.354869
     4  O   -0.323988
     5  C   -0.080769
     6  C   -0.164972
     7  C   -0.362256
     8  C    0.376551
     9  O   -0.294281
    10  H    0.110377
    11  H    0.145450
    12  H    0.137186
    13  H    0.102689
    14  H    0.103210
    15  H    0.107914
    16  H    0.107049
    17  H    0.088177
    18  H    0.136448
    19  H    0.131804
 Sum of Mulliken charges =   0.00000

 Dipole moment (field-independent basis, Debye):
    X=              1.7067    Y=             -1.8208    Z=              2.2878  Tot=              3.3856
 Quadrupole moment (field-independent basis, Debye-Ang):
   XX=            -49.1236   YY=            -57.8734   ZZ=            -53.6207
   XY=              0.5373   XZ=             -1.0253   YZ=              1.1664

  Exact polarizability:  85.593  -2.219  77.877   0.561  -0.374  63.770
 Approx polarizability: 113.064  -7.102 117.079   3.617  -1.862  99.938

                      1                      2                      3
                      A                      A                      A
 Frequencies --     80.0701               100.4491               152.8570
 Red. masses --      3.0816                 2.9012                 2.7000
 Frc consts  --      0.0116                 0.0172                 0.0372
 IR Inten    --      2.4846                 0.7969                 5.4011

                      4                      5                      6
                      A                      A                      A
 Frequencies --    192.1846               232.7147               292.7415
 Red. masses --      2.3861                 1.6601                 2.4131
 Frc consts  --      0.0519                 0.0530                 0.1218
 IR Inten    --      0.5948                 1.7236                 0.6843

                      7                      8                      9
                      A                      A                      A
 Frequencies --    311.4562               403.8155               470.0155
 Red. masses --      2.7963                 2.4377                 3.3580
 Frc consts  --      0.1598                 0.2342                 0.4371
 IR Inten    --      0.3445                 0.8156                 5.9319

                     10                     11                     12
                      A                      A                      A
 Frequencies --    511.6983               612.2473               672.1880
 Red. masses --      2.1222                 4.9495                 3.4401
 Frc consts  --      0.3274                 1.0931                 0.9158
 IR Inten    --      2.4227                 0.5648                 6.5766

                     13                     14                     15
                      A                      A                      A
 Frequencies --    765.7486               812.8573               820.7771
 Red. masses --      1.5229                 2.3802                 1.9400
 Frc consts  --      0.5261                 0.9266                 0.7700
 IR Inten    --      0.5488                 5.3726                 5.2107

                     16                     17                     18
                      A                      A                      A
 Frequencies --    898.9733               924.2526               947.4705
 Red. masses --      2.5572                 2.1455                 1.9377
 Frc consts  --      1.2176                 1.0798                 1.0249
 IR Inten    --     12.0359                10.4353                20.9805

                     19                     20                     21
                      A                      A                      A
 Frequencies --    982.0732              1004.9967              1029.6166
 Red. masses --      3.6213                 5.5314                 2.0028
 Frc consts  --      2.0578                 3.2917                 1.2510
 IR Inten    --     11.3126                53.1326                25.5376

                     22                     23                     24
                      A                      A                      A
 Frequencies --   1044.6190              1050.7479              1100.7239
 Red. masses --      1.9417                 3.1147                 1.5352
 Frc consts  --      1.2484                 2.0261                 1.0959
 IR Inten    --      4.8143                61.1548                 0.4732

                     25                     26                     27
                      A                      A                      A
 Frequencies --   1127.8586              1144.9989              1169.0989
 Red. masses --      2.2048                 1.5469                 1.8321
 Frc consts  --      1.6524                 1.1948                 1.4754
 IR Inten    --      5.3116                 0.8287                 9.7084

                     28                     29                     30
                      A                      A                      A
 Frequencies --   1178.3045              1222.0365              1268.3571
 Red. masses --      1.3726                 1.6507                 1.7865
 Frc consts  --      1.1228                 1.4524                 1.6933
 IR Inten    --      1.5383                 1.6636                 7.0334

                     31                     32                     33
                      A                      A                      A
 Frequencies --   1305.5383              1320.0893              1343.0809
 Red. masses --      1.4831                 1.6211                 1.4364
 Frc consts  --      1.4894                 1.6644                 1.5266
 IR Inten    --      1.2527                 0.3588                 0.5851

                     34                     35                     36
                      A                      A                      A
 Frequencies --   1372.1058              1407.9045              1435.0364
 Red. masses --      1.9162                 1.2192                 1.1059
 Frc consts  --      2.1255                 1.4239                 1.3419
 IR Inten    --      1.7642                 3.9636                 9.4152

                     37                     38                     39
                      A                      A                      A
 Frequencies --   1474.8267              1496.8219              1512.9132
 Red. masses --      1.0860                 1.0379                 1.0637
 Frc consts  --      1.3918                 1.3701                 1.4345
 IR Inten    --      1.4505                 5.9458                 4.7959

                     40                     41                     42
                      A                      A                      A
 Frequencies --   1523.4546              1886.0097              3017.1633
 Red. masses --      1.0988                12.8353                 1.0556
 Frc consts  --      1.5026                26.8994                 5.6619
 IR Inten    --      0.7320               223.4588                74.6548

                     43                     44                     45
                      A                      A                      A
 Frequencies --   3021.6007              3048.2447              3053.8078
 Red. masses --      1.0587                 1.0346                 1.0593
 Frc consts  --      5.6952                 5.6639                 5.8202
 IR Inten    --     21.9650                24.0916                 7.8997

                     46                     47                     48
                      A                      A                      A
 Frequencies --   3058.3067              3062.9615              3105.8332
 Red. masses --      1.1028                 1.1105                 1.1049
 Frc consts  --      6.0771                 6.1386                 6.2798
 IR Inten    --     14.4027                36.9779                 5.7240

                     49                     50                     51
                      A                      A                      A
 Frequencies --   3120.0069              3130.3344              3136.9841
 Red. masses --      1.1019                 1.1026                 1.0903
 Frc consts  --      6.3198                 6.3657                 6.3216
 IR Inten    --     22.6482                14.9844                21.8050

 - Thermochemistry -
 -------------------
 Temperature   298.150 Kelvin.  Pressure   1.00000 Atm.
 Atom     1 has atomic number  6 and mass  12.00000

 Molecular mass:   126.06808 amu.
 Principal axes and moments of inertia in atomic units:
                           1         2         3
     Eigenvalues --   804.989421059.505721488.21009
           X            0.99978   0.02100  -0.00252
           Y           -0.02098   0.99976   0.00608
           Z            0.00265  -0.00602   0.99998
 This molecule is an asymmetric top.
 Rotational symmetry number  1.
 Warning -- assumption of classical behavior for rotation
           may cause significant error
 Rotational temperatures (Kelvin)      0.10760     0.08175     0.05820
 Rotational constants (GHZ):           2.24194     1.70338     1.21269
 Zero-point vibrational energy     414858.8 (Joules/Mol)
                                   99.15363 (Kcal/Mol)
 Warning -- explicit consideration of  11 degrees of freedom as
           vibrations may cause significant error
 Vibrational temperatures:    115.20   144.52   219.93   276.51   334.82
          (Kelvin)            421.19   448.12   581.00   676.25   736.22
                              880.89   967.13  1101.74  1169.52  1180.91
                             1293.42  1329.79  1363.20  1412.98  1445.96
                             1481.39  1502.97  1511.79  1583.69  1622.73
                             1647.40  1682.07  1695.32  1758.24  1824.88
                             1878.38  1899.31  1932.39  1974.15  2025.66
                             2064.69  2121.94  2153.59  2176.74  2191.91
                             2713.54  4341.02  4347.40  4385.74  4393.74
                             4400.22  4406.91  4468.60  4488.99  4503.85
                             4513.41

 Zero-point correction=                           0.158011 (Hartree/Particle)
 Thermal correction to Energy=                    0.166716
 Thermal correction to Enthalpy=                  0.167661
 Thermal correction to Gibbs Free Energy=         0.124463
 Sum of electronic and zero-point Energies=           -423.014643
 Sum of electronic and thermal Energies=              -423.005938
 Sum of electronic and thermal Enthalpies=            -423.004994
 Sum of electronic and thermal Free Energies=         -423.048192

                     E (Thermal)             CV                S
                      KCal/Mol        Cal/Mol-Kelvin    Cal/Mol-Kelvin
 Total                  104.616             32.403             90.918
 Electronic               0.000              0.000              0.000
 Translational            0.889              2.981             40.409
 Rotational               0.889              2.981             28.631
 Vibrational            102.839             26.441             21.879
 Vibration     1          0.600              1.963              3.889
 Vibration     2          0.604              1.949              3.446
 Vibration     3          0.619              1.900              2.636
 Vibration     4          0.634              1.851              2.207
 Vibration     5          0.653              1.791              1.858
 Vibration     6          0.688              1.687              1.458
 Vibration     7          0.700              1.652              1.355
 Vibration     8          0.769              1.462              0.949
 Vibration     9          0.827              1.317              0.738
 Vibration    10          0.867              1.224              0.630
 Vibration    11          0.971              1.006              0.429

 Optimization completed.
    -- Stationary point found.
 Normal termination of Gaussian 09 at Tue Jan 28 12:58:41 2020.
