 Gaussian 09, Revision D.01,
 Gaussian 09:  ES64L-G09RevD.01 24-Apr-2013

 -----------------------------
 # b3lyp 6-31G(2df,p) opt Freq
 -----------------------------

 -----
 titel
 -----
 Symbolic Z-matrix:
 Charge =  0 Multiplicity = 1

 SCF Done:  E(RB3LYP) =  -423.205296891     A.U. after   14 cycles
 Optimization completed.
    -- Stationary point found.
 Normal termination of Gaussian 09 at Tue Jan 28 03:59:48 2020.

 ----------------------------------------------------------------------
 #N Geom=AllCheck Guess=TCheck SCRF=Check GenChk RB3LYP/6-31G(2df,p) Fr
 eq
 ----------------------------------------------------------------------

 Structure from the checkpoint file:  "/scratch/puck/g09_82a86eae-183c-4d0e-9a0e-34623ac96509/Gau-92418.chk"
 -----
 titel
 -----
 Charge =  0 Multiplicity = 1

                         Standard orientation:
 ---------------------------------------------------------------------
 Center     Atomic      Atomic             Coordinates (Angstroms)
 Number     Number       Type             X           Y           Z
 ---------------------------------------------------------------------
      1          8           0        2.858198   -0.006024    0.354121
      2          6           0        1.756559    0.083657   -0.557590
      3          6           0        0.891629   -1.185062   -0.552442
      4          6           0       -0.100315   -1.195297    0.617893
      5          6           0       -1.031515    0.035801    0.605828
      6          6           0       -2.172360   -0.122069   -0.395959
      7          8           0       -3.331844    0.076446   -0.143586
      8          6           0       -0.275665    1.301112    0.265985
      9          6           0        0.946177    1.321814   -0.270406
     10          1           0        2.521438    0.186779    1.235452
     11          1           0        2.232388    0.180345   -1.540345
     12          1           0        0.353266   -1.248718   -1.505688
     13          1           0        1.554519   -2.053663   -0.500699
     14          1           0       -0.690403   -2.118017    0.617887
     15          1           0        0.456398   -1.189282    1.563147
     16          1           0       -1.515409    0.158089    1.581010
     17          1           0       -1.851048   -0.424717   -1.418323
     18          1           0       -0.796545    2.234034    0.467469
     19          1           0        1.437503    2.272033   -0.464042
 ---------------------------------------------------------------------

 SCF Done:  E(RB3LYP) =  -423.205296891     A.U. after    1 cycles

 The electronic state is 1-A.
 Alpha  occ. eigenvalues --  -19.14360 -19.14038 -10.27447 -10.24084 -10.20689
 Alpha  occ. eigenvalues --  -10.20332 -10.19995 -10.19510 -10.18886  -1.05069
 Alpha  occ. eigenvalues --   -1.02110  -0.84711  -0.75994  -0.75634  -0.65532
 Alpha  occ. eigenvalues --   -0.61870  -0.59178  -0.53633  -0.51907  -0.47528
 Alpha  occ. eigenvalues --   -0.46414  -0.44929  -0.44497  -0.42897  -0.41840
 Alpha  occ. eigenvalues --   -0.40818  -0.38041  -0.36566  -0.35614  -0.33705
 Alpha  occ. eigenvalues --   -0.31992  -0.28409  -0.27237  -0.24441
 Alpha virt. eigenvalues --   -0.03592   0.01315   0.07256   0.09248   0.10339
 Alpha virt. eigenvalues --    0.12541   0.13652   0.14992   0.15366   0.16048
 Alpha virt. eigenvalues --    0.17333   0.18851   0.20705   0.22481   0.22608

 Mulliken charges:
               1
     1  O   -0.436306
     2  C    0.105630
     3  C   -0.227003
     4  C   -0.251999
     5  C   -0.107388
     6  C    0.158768
     7  O   -0.245497
     8  C   -0.082410
     9  C   -0.100001
    10  H    0.279401
    11  H    0.091497
    12  H    0.102122
    13  H    0.110963
    14  H    0.108701
    15  H    0.102995
    16  H    0.099625
    17  H    0.079405
    18  H    0.109155
    19  H    0.102339
 Sum of Mulliken charges =   0.00000

 Dipole moment (field-independent basis, Debye):
    X=              1.2706    Y=             -0.0543    Z=              0.3516  Tot=              1.3195
 Quadrupole moment (field-independent basis, Debye-Ang):
   XX=            -71.8060   YY=            -50.7780   ZZ=            -49.8539
   XY=              1.5614   XZ=              0.2014   YZ=              0.4319

  Exact polarizability:  98.986  -0.050  70.533  -5.683   1.048  65.159
 Approx polarizability: 150.937  -1.147  99.438 -12.364   1.674 102.653

                      1                      2                      3
                      A                      A                      A
 Frequencies --     50.5207                69.2262               162.4127
 Red. masses --      4.6104                 5.3203                 4.4405
 Frc consts  --      0.0069                 0.0150                 0.0690
 IR Inten    --      6.5168                 4.8064                 3.3620

                      4                      5                      6
                      A                      A                      A
 Frequencies --    190.5061               285.6857               312.1495
 Red. masses --      2.7146                 1.0802                 2.0322
 Frc consts  --      0.0580                 0.0519                 0.1167
 IR Inten    --      0.5818                79.4664                 1.9315

                      7                      8                      9
                      A                      A                      A
 Frequencies --    367.8708               386.4866               417.3806
 Red. masses --      2.2456                 3.8826                 2.8707
 Frc consts  --      0.1790                 0.3417                 0.2946
 IR Inten    --      6.2866                 1.8698                 5.5707

                     10                     11                     12
                      A                      A                      A
 Frequencies --    509.2016               540.0159               623.2258
 Red. masses --      3.8201                 3.8212                 3.7960
 Frc consts  --      0.5836                 0.6565                 0.8687
 IR Inten    --      7.2297                 7.4324                 0.5192

                     13                     14                     15
                      A                      A                      A
 Frequencies --    729.2064               779.4191               813.2198
 Red. masses --      1.9560                 1.7242                 2.8270
 Frc consts  --      0.6128                 0.6171                 1.1015
 IR Inten    --      0.3391                21.5961                36.4412

                     16                     17                     18
                      A                      A                      A
 Frequencies --    886.6370               904.2878               927.8775
 Red. masses --      2.4838                 2.2614                 2.2095
 Frc consts  --      1.1504                 1.0895                 1.1208
 IR Inten    --     14.5235                 7.5457                21.8140

                     19                     20                     21
                      A                      A                      A
 Frequencies --    977.6488              1010.6861              1020.9818
 Red. masses --      3.0721                 1.7510                 1.4338
 Frc consts  --      1.7300                 1.0538                 0.8806
 IR Inten    --      6.3658                 4.2577                 2.7371

                     22                     23                     24
                      A                      A                      A
 Frequencies --   1029.8838              1087.7517              1100.8850
 Red. masses --      2.4347                 2.1692                 1.8584
 Frc consts  --      1.5215                 1.5122                 1.3270
 IR Inten    --      4.5519                79.6797                 1.0832

                     25                     26                     27
                      A                      A                      A
 Frequencies --   1112.9296              1161.0434              1206.9289
 Red. masses --      2.4128                 1.0537                 1.2095
 Frc consts  --      1.7608                 0.8369                 1.0381
 IR Inten    --     39.3789                 4.8248                 2.1561

                     28                     29                     30
                      A                      A                      A
 Frequencies --   1255.4032              1265.1716              1284.3868
 Red. masses --      1.2273                 1.4112                 1.3913
 Frc consts  --      1.1396                 1.3309                 1.3523
 IR Inten    --      8.3614                 9.0182                 0.6669

                     31                     32                     33
                      A                      A                      A
 Frequencies --   1329.6453              1354.2217              1365.1072
 Red. masses --      1.5741                 1.2991                 1.6118
 Frc consts  --      1.6396                 1.4037                 1.7697
 IR Inten    --      1.8987                 0.8886                 1.6627

                     34                     35                     36
                      A                      A                      A
 Frequencies --   1390.9258              1404.9923              1419.8081
 Red. masses --      1.4571                 1.2367                 1.1977
 Frc consts  --      1.6609                 1.4384                 1.4225
 IR Inten    --      6.7420                31.0371                 4.4472

                     37                     38                     39
                      A                      A                      A
 Frequencies --   1427.8406              1480.2337              1493.0003
 Red. masses --      1.3963                 1.0899                 1.0894
 Frc consts  --      1.6772                 1.4070                 1.4307
 IR Inten    --     32.9459                 5.5989                 5.0742

                     40                     41                     42
                      A                      A                      A
 Frequencies --   1703.3367              1828.2877              2874.2943
 Red. masses --      6.8125                10.3585                 1.0820
 Frc consts  --     11.6455                20.4003                 5.2668
 IR Inten    --      7.2542               221.9314                77.1197

                     43                     44                     45
                      A                      A                      A
 Frequencies --   3027.0812              3032.6025              3046.6398
 Red. masses --      1.0666                 1.0681                 1.0790
 Frc consts  --      5.7586                 5.7874                 5.9009
 IR Inten    --     15.6730                 7.7379                46.6210

                     46                     47                     48
                      A                      A                      A
 Frequencies --   3053.2903              3071.2123              3090.9776
 Red. masses --      1.0827                 1.0988                 1.0997
 Frc consts  --      5.9470                 6.1067                 6.1904
 IR Inten    --     19.2532                29.8180                25.8477

                     49                     50                     51
                      A                      A                      A
 Frequencies --   3150.0263              3172.3159              3812.4311
 Red. masses --      1.0837                 1.0968                 1.0662
 Frc consts  --      6.3356                 6.5035                 9.1305
 IR Inten    --      3.4400                22.8797                13.9328

 - Thermochemistry -
 -------------------
 Temperature   298.150 Kelvin.  Pressure   1.00000 Atm.
 Atom     1 has atomic number  8 and mass  15.99491

 Molecular mass:   126.06808 amu.
 Principal axes and moments of inertia in atomic units:
                           1         2         3
     Eigenvalues --   480.325781769.997001988.88410
           X            0.99999   0.00042  -0.00504
           Y           -0.00037   0.99996   0.00866
           Z            0.00505  -0.00865   0.99995
 This molecule is an asymmetric top.
 Rotational symmetry number  1.
 Warning -- assumption of classical behavior for rotation
           may cause significant error
 Rotational temperatures (Kelvin)      0.18032     0.04893     0.04355
 Rotational constants (GHZ):           3.75733     1.01963     0.90741
 Zero-point vibrational energy     418676.8 (Joules/Mol)
                                  100.06616 (Kcal/Mol)
 Warning -- explicit consideration of  11 degrees of freedom as
           vibrations may cause significant error
 Vibrational temperatures:     72.69    99.60   233.68   274.10   411.04
          (Kelvin)            449.11   529.28   556.07   600.52   732.63
                              776.96   896.68  1049.16  1121.41  1170.04
                             1275.67  1301.07  1335.01  1406.62  1454.15
                             1468.96  1481.77  1565.03  1583.93  1601.26
                             1670.48  1736.50  1806.24  1820.30  1847.94
                             1913.06  1948.42  1964.08  2001.23  2021.47
                             2042.78  2054.34  2129.72  2148.09  2450.72
                             2630.49  4135.46  4355.29  4363.23  4383.43
                             4393.00  4418.78  4447.22  4532.18  4564.25
                             5485.23

 Zero-point correction=                           0.159466 (Hartree/Particle)
 Thermal correction to Energy=                    0.168267
 Thermal correction to Enthalpy=                  0.169211
 Thermal correction to Gibbs Free Energy=         0.125257
 Sum of electronic and zero-point Energies=           -423.045831
 Sum of electronic and thermal Energies=              -423.037030
 Sum of electronic and thermal Enthalpies=            -423.036086
 Sum of electronic and thermal Free Energies=         -423.080040

                     E (Thermal)             CV                S
                      KCal/Mol        Cal/Mol-Kelvin    Cal/Mol-Kelvin
 Total                  105.589             32.644             92.509
 Electronic               0.000              0.000              0.000
 Translational            0.889              2.981             40.409
 Rotational               0.889              2.981             28.916
 Vibrational            103.812             26.683             23.185
 Vibration     1          0.595              1.977              4.797
 Vibration     2          0.598              1.969              4.175
 Vibration     3          0.623              1.889              2.522
 Vibration     4          0.634              1.853              2.223
 Vibration     5          0.683              1.700              1.499
 Vibration     6          0.700              1.651              1.351
 Vibration     7          0.740              1.538              1.089
 Vibration     8          0.755              1.499              1.014
 Vibration     9          0.780              1.432              0.901
 Vibration    10          0.864              1.230              0.636
 Vibration    11          0.895              1.162              0.565

 Normal termination of Gaussian 09 at Tue Jan 28 04:49:48 2020.
