 Gaussian 09, Revision D.01,
 Gaussian 09:  ES64L-G09RevD.01 24-Apr-2013

 -----------------------------
 # b3lyp 6-31G(2df,p) opt Freq
 -----------------------------

 -----
 titel
 -----
 Symbolic Z-matrix:
 Charge =  0 Multiplicity = 1

 SCF Done:  E(RB3LYP) =  -423.142487012     A.U. after   14 cycles
 SCF Done:  E(RB3LYP) =  -423.142487268     A.U. after    6 cycles
 SCF Done:  E(RB3LYP) =  -423.142487181     A.U. after    6 cycles
 Optimization completed.
    -- Stationary point found.
 Normal termination of Gaussian 09 at Tue Jan 28 08:53:37 2020.

 ----------------------------------------------------------------------
 #N Geom=AllCheck Guess=TCheck SCRF=Check GenChk RB3LYP/6-31G(2df,p) Fr
 eq
 ----------------------------------------------------------------------

 Structure from the checkpoint file:  "/scratch/puck/g09_ac144455-c547-4298-b03b-11507e1bef6b/Gau-129329.chk"
 -----
 titel
 -----
 Charge =  0 Multiplicity = 1

                         Standard orientation:
 ---------------------------------------------------------------------
 Center     Atomic      Atomic             Coordinates (Angstroms)
 Number     Number       Type             X           Y           Z
 ---------------------------------------------------------------------
      1          8           0        2.570662   -0.534178    0.284751
      2          6           0        1.396245   -0.742667   -0.510183
      3          6           0        0.342316    0.310721   -0.161890
      4          8           0        0.978295    1.562124   -0.150336
      5          6           0       -0.666969    0.079651    1.069152
      6          6           0       -1.578739    1.117354    0.332334
      7          6           0       -1.033558    0.369305   -0.932224
      8          6           0       -1.562331   -1.040317   -0.668501
      9          6           0       -1.326006   -1.224764    0.637430
     10          1           0        2.375808   -0.835136    1.178826
     11          1           0        1.719096   -0.593833   -1.545898
     12          1           0        1.018923   -1.761835   -0.405470
     13          1           0        1.884488    1.382642    0.140878
     14          1           0       -0.356459    0.209322    2.106592
     15          1           0       -2.651951    1.037787    0.517490
     16          1           0       -1.225390    2.144764    0.417493
     17          1           0       -1.094559    0.787277   -1.936778
     18          1           0       -1.986388   -1.714543   -1.399114
     19          1           0       -1.500972   -2.095708    1.253958
 ---------------------------------------------------------------------

 SCF Done:  E(RB3LYP) =  -423.142487181     A.U. after    1 cycles

 The electronic state is 1-A.
 Alpha  occ. eigenvalues --  -19.15385 -19.13067 -10.23882 -10.22761 -10.19143
 Alpha  occ. eigenvalues --  -10.19054 -10.17921 -10.17835 -10.17745  -1.04181
 Alpha  occ. eigenvalues --   -1.00980  -0.88491  -0.71938  -0.71224  -0.67225
 Alpha  occ. eigenvalues --   -0.61672  -0.54421  -0.52544  -0.51549  -0.51077
 Alpha  occ. eigenvalues --   -0.49050  -0.45224  -0.43998  -0.40012  -0.38309
 Alpha  occ. eigenvalues --   -0.37030  -0.34763  -0.34487  -0.32996  -0.32454
 Alpha  occ. eigenvalues --   -0.31767  -0.28668  -0.25505  -0.22383
 Alpha virt. eigenvalues --    0.00940   0.05868   0.11082   0.12802   0.13525
 Alpha virt. eigenvalues --    0.13696   0.15561   0.16166   0.16543   0.16850
 Alpha virt. eigenvalues --    0.17726   0.18787   0.19228   0.20977   0.21826

 Mulliken charges:
               1
     1  O   -0.424972
     2  C   -0.169560
     3  C    0.453997
     4  O   -0.494491
     5  C   -0.152669
     6  C   -0.218046
     7  C   -0.124581
     8  C   -0.094924
     9  C   -0.096716
    10  H    0.290651
    11  H    0.118675
    12  H    0.107371
    13  H    0.283270
    14  H    0.053232
    15  H    0.088131
    16  H    0.120453
    17  H    0.063747
    18  H    0.099711
    19  H    0.096721
 Sum of Mulliken charges =   0.00000

 Dipole moment (field-independent basis, Debye):
    X=             -0.2045    Y=             -1.6178    Z=              0.8730  Tot=              1.8496
 Quadrupole moment (field-independent basis, Debye-Ang):
   XX=            -56.1637   YY=            -54.3208   ZZ=            -49.2507
   XY=             -0.1326   XZ=              3.0217   YZ=             -0.4109

  Exact polarizability:  77.953   2.874  73.873   2.057  -0.796  74.020
 Approx polarizability: 109.502   6.461 111.019   5.870  -4.301 125.154

                      1                      2                      3
                      A                      A                      A
 Frequencies --    101.7931               179.8817               262.9799
 Red. masses --      3.7064                 3.3269                 2.8406
 Frc consts  --      0.0226                 0.0634                 0.1157
 IR Inten    --      4.0273                 0.5221                 1.1322

                      4                      5                      6
                      A                      A                      A
 Frequencies --    326.8967               356.4633               399.8600
 Red. masses --      2.5454                 1.5615                 3.0605
 Frc consts  --      0.1603                 0.1169                 0.2883
 IR Inten    --      6.5201                76.4548                 1.9016

                      7                      8                      9
                      A                      A                      A
 Frequencies --    425.6156               485.8794               533.5971
 Red. masses --      3.9055                 2.0239                 2.7778
 Frc consts  --      0.4168                 0.2815                 0.4660
 IR Inten    --      3.1239                15.3045                 7.7520

                     10                     11                     12
                      A                      A                      A
 Frequencies --    563.9781               594.9899               668.8631
 Red. masses --      2.8356                 1.1549                 2.8670
 Frc consts  --      0.5314                 0.2409                 0.7557
 IR Inten    --      1.3067                98.5968                33.7463

                     13                     14                     15
                      A                      A                      A
 Frequencies --    723.6536               781.0077               826.6504
 Red. masses --      1.7233                 4.0755                 2.9766
 Frc consts  --      0.5317                 1.4647                 1.1984
 IR Inten    --     26.0658                 2.5017                11.4845

                     16                     17                     18
                      A                      A                      A
 Frequencies --    845.9010               907.4057               910.1194
 Red. masses --      2.4956                 1.8872                 1.8185
 Frc consts  --      1.0521                 0.9155                 0.8875
 IR Inten    --      2.0451                 8.3039                 2.3409

                     19                     20                     21
                      A                      A                      A
 Frequencies --    926.0640               948.3138               974.2432
 Red. masses --      1.6378                 2.6239                 2.1407
 Frc consts  --      0.8275                 1.3903                 1.1971
 IR Inten    --      0.6781                 1.5393                18.3777

                     22                     23                     24
                      A                      A                      A
 Frequencies --   1004.4693              1013.5528              1040.3768
 Red. masses --      2.1543                 2.0201                 2.5073
 Frc consts  --      1.2807                 1.2227                 1.5990
 IR Inten    --     23.6147                36.8716                59.3496

                     25                     26                     27
                      A                      A                      A
 Frequencies --   1094.2988              1098.3352              1125.0178
 Red. masses --      1.9173                 1.1073                 1.4985
 Frc consts  --      1.3527                 0.7870                 1.1174
 IR Inten    --     23.0757                 4.0128                11.8427

                     28                     29                     30
                      A                      A                      A
 Frequencies --   1136.2032              1175.1664              1201.5703
 Red. masses --      1.8629                 2.2246                 1.5121
 Frc consts  --      1.4169                 1.8101                 1.2862
 IR Inten    --     31.6143                 2.0901                20.9371

                     31                     32                     33
                      A                      A                      A
 Frequencies --   1214.0814              1244.0014              1249.5576
 Red. masses --      1.5087                 1.5259                 1.3620
 Frc consts  --      1.3102                 1.3913                 1.2529
 IR Inten    --      0.8150                22.7292                 4.7033

                     34                     35                     36
                      A                      A                      A
 Frequencies --   1269.1177              1331.6283              1357.8354
 Red. masses --      2.0059                 1.7489                 1.2490
 Frc consts  --      1.9035                 1.8272                 1.3567
 IR Inten    --     32.9971                 6.5446                26.2099

                     37                     38                     39
                      A                      A                      A
 Frequencies --   1398.8955              1426.8824              1490.3304
 Red. masses --      1.1975                 1.5444                 1.1282
 Frc consts  --      1.3806                 1.8526                 1.4763
 IR Inten    --     54.4911                62.6950                 4.5528

                     40                     41                     42
                      A                      A                      A
 Frequencies --   1496.8843              1613.2778              3055.3302
 Red. masses --      1.0858                 5.5097                 1.0596
 Frc consts  --      1.4335                 8.4489                 5.8278
 IR Inten    --      8.3945                 1.6936                23.9128

                     43                     44                     45
                      A                      A                      A
 Frequencies --   3075.4155              3108.9463              3112.9873
 Red. masses --      1.0578                 1.0894                 1.1054
 Frc consts  --      5.8947                 6.2039                 6.3115
 IR Inten    --     42.9577                47.8936                17.2161

                     46                     47                     48
                      A                      A                      A
 Frequencies --   3122.5149              3153.0457              3213.5049
 Red. masses --      1.0903                 1.1081                 1.0863
 Frc consts  --      6.2632                 6.4907                 6.6093
 IR Inten    --     29.5221                19.6418                 5.9307

                     49                     50                     51
                      A                      A                      A
 Frequencies --   3240.5765              3716.6748              3810.3705
 Red. masses --      1.1087                 1.0649                 1.0662
 Frc consts  --      6.8598                 8.6666                 9.1208
 IR Inten    --     11.1975                91.1637                18.6479

 - Thermochemistry -
 -------------------
 Temperature   298.150 Kelvin.  Pressure   1.00000 Atm.
 Atom     1 has atomic number  8 and mass  15.99491

 Molecular mass:   126.06808 amu.
 Principal axes and moments of inertia in atomic units:
                           1         2         3
     Eigenvalues --   628.373161181.236231402.21840
           X            0.99992  -0.01246   0.00159
           Y            0.01244   0.99981   0.01528
           Z           -0.00178  -0.01526   0.99988
 This molecule is an asymmetric top.
 Rotational symmetry number  1.
 Warning -- assumption of classical behavior for rotation
           may cause significant error
 Rotational temperatures (Kelvin)      0.13784     0.07332     0.06177
 Rotational constants (GHZ):           2.87209     1.52784     1.28706
 Zero-point vibrational energy     420696.8 (Joules/Mol)
                                  100.54894 (Kcal/Mol)
 Warning -- explicit consideration of  11 degrees of freedom as
           vibrations may cause significant error
 Vibrational temperatures:    146.46   258.81   378.37   470.33   512.87
          (Kelvin)            575.31   612.37   699.07   767.73   811.44
                              856.06   962.34  1041.17  1123.69  1189.36
                             1217.06  1305.55  1309.46  1332.40  1364.41
                             1401.72  1445.21  1458.27  1496.87  1574.45
                             1580.26  1618.65  1634.74  1690.80  1728.79
                             1746.79  1789.84  1797.83  1825.98  1915.91
                             1953.62  2012.70  2052.96  2144.25  2153.68
                             2321.14  4395.93  4424.83  4473.07  4478.89
                             4492.60  4536.52  4623.51  4662.46  5347.46
                             5482.27

 Zero-point correction=                           0.160235 (Hartree/Particle)
 Thermal correction to Energy=                    0.168000
 Thermal correction to Enthalpy=                  0.168944
 Thermal correction to Gibbs Free Energy=         0.128375
 Sum of electronic and zero-point Energies=           -422.982252
 Sum of electronic and thermal Energies=              -422.974487
 Sum of electronic and thermal Enthalpies=            -422.973543
 Sum of electronic and thermal Free Energies=         -423.014112

                     E (Thermal)             CV                S
                      KCal/Mol        Cal/Mol-Kelvin    Cal/Mol-Kelvin
 Total                  105.422             31.969             85.385
 Electronic               0.000              0.000              0.000
 Translational            0.889              2.981             40.409
 Rotational               0.889              2.981             28.433
 Vibrational            103.644             26.007             16.543
 Vibration     1          0.604              1.948              3.420
 Vibration     2          0.629              1.867              2.330
 Vibration     3          0.670              1.741              1.642
 Vibration     4          0.711              1.622              1.275
 Vibration     5          0.732              1.562              1.137
 Vibration     6          0.766              1.470              0.963
 Vibration     7          0.787              1.415              0.873
 Vibration     8          0.842              1.281              0.694
 Vibration     9          0.889              1.176              0.579
 Vibration    10          0.920              1.109              0.516
 Vibration    11          0.953              1.042              0.458

 Optimization completed.
    -- Stationary point found.
 Normal termination of Gaussian 09 at Tue Jan 28 09:38:49 2020.
