 Gaussian 09, Revision D.01,
 Gaussian 09:  ES64L-G09RevD.01 24-Apr-2013

 -----------------------------
 # b3lyp 6-31G(2df,p) opt Freq
 -----------------------------

 -----
 titel
 -----
 Symbolic Z-matrix:
 Charge =  0 Multiplicity = 1

 SCF Done:  E(RB3LYP) =  -423.137143931     A.U. after   13 cycles
 Optimization completed.
    -- Stationary point found.
 Normal termination of Gaussian 09 at Tue Jan 28 09:15:43 2020.

 ----------------------------------------------------------------------
 #N Geom=AllCheck Guess=TCheck SCRF=Check GenChk RB3LYP/6-31G(2df,p) Fr
 eq
 ----------------------------------------------------------------------

 Structure from the checkpoint file:  "/scratch/puck/g09_7a66df11-b3aa-425f-9be9-e8e96153caf7/Gau-14483.chk"
 -----
 titel
 -----
 Charge =  0 Multiplicity = 1

                         Standard orientation:
 ---------------------------------------------------------------------
 Center     Atomic      Atomic             Coordinates (Angstroms)
 Number     Number       Type             X           Y           Z
 ---------------------------------------------------------------------
      1          6           0        2.591703    0.483517   -0.171068
      2          8           0        1.789539   -0.685480   -0.091067
      3          6           0        0.446591   -0.432220    0.024019
      4          6           0       -0.643645   -1.289185    0.642939
      5          6           0       -1.522813   -1.127714   -0.597155
      6          6           0       -0.567403    0.011892   -1.086094
      7          6           0       -1.061648    1.361450   -0.568349
      8          8           0       -1.156456    1.185884    0.855256
      9          6           0       -0.308603    0.107815    1.186183
     10          1           0        2.449962    1.127085    0.707601
     11          1           0        3.631417    0.152183   -0.213438
     12          1           0        2.368656    1.067415   -1.074775
     13          1           0       -0.549298   -2.168448    1.269837
     14          1           0       -1.475956   -2.006089   -1.244840
     15          1           0       -2.568598   -0.845585   -0.437390
     16          1           0       -0.250225   -0.008058   -2.127878
     17          1           0       -0.355835    2.172816   -0.808182
     18          1           0       -2.053753    1.638082   -0.939972
     19          1           0        0.133870    0.174036    2.172680
 ---------------------------------------------------------------------

 SCF Done:  E(RB3LYP) =  -423.137143931     A.U. after    1 cycles

 The electronic state is 1-A.
 Alpha  occ. eigenvalues --  -19.15413 -19.13662 -10.23499 -10.22962 -10.22890
 Alpha  occ. eigenvalues --  -10.22663 -10.19392 -10.18864 -10.18660  -1.05270
 Alpha  occ. eigenvalues --   -1.03298  -0.87889  -0.75880  -0.70383  -0.67318
 Alpha  occ. eigenvalues --   -0.62189  -0.57216  -0.53706  -0.52653  -0.47556
 Alpha  occ. eigenvalues --   -0.46910  -0.45622  -0.44514  -0.43344  -0.40927
 Alpha  occ. eigenvalues --   -0.39049  -0.37542  -0.34822  -0.33354  -0.32699
 Alpha  occ. eigenvalues --   -0.31898  -0.27248  -0.25752  -0.21740
 Alpha virt. eigenvalues --    0.08447   0.09768   0.11020   0.12119   0.13679
 Alpha virt. eigenvalues --    0.13773   0.14117   0.14558   0.15960   0.16348
 Alpha virt. eigenvalues --    0.17402   0.18897   0.19074   0.19642   0.20619

 Mulliken charges:
               1
     1  C   -0.261971
     2  O   -0.286236
     3  C    0.393541
     4  C   -0.176396
     5  C   -0.228200
     6  C   -0.148863
     7  C   -0.082858
     8  O   -0.268298
     9  C    0.018821
    10  H    0.117415
    11  H    0.130083
    12  H    0.113524
    13  H    0.090529
    14  H    0.106783
    15  H    0.101010
    16  H    0.079832
    17  H    0.087962
    18  H    0.107886
    19  H    0.105437
 Sum of Mulliken charges =   0.00000

 Dipole moment (field-independent basis, Debye):
    X=              0.7234    Y=              0.2436    Z=             -1.0223  Tot=              1.2758
 Quadrupole moment (field-independent basis, Debye-Ang):
   XX=            -52.4780   YY=            -54.2218   ZZ=            -51.5475
   XY=              4.1593   XZ=              2.5244   YZ=             -2.5935

  Exact polarizability:  80.342   3.903  73.047   2.272  -3.105  69.119
 Approx polarizability: 109.614   1.910 108.379  -0.349  -2.486 105.020

                      1                      2                      3
                      A                      A                      A
 Frequencies --     77.6180               153.6946               171.7355
 Red. masses --      2.6869                 2.9833                 1.0926
 Frc consts  --      0.0095                 0.0415                 0.0190
 IR Inten    --      2.4834                 1.6890                 0.0854

                      4                      5                      6
                      A                      A                      A
 Frequencies --    242.9319               328.5404               379.3623
 Red. masses --      2.9802                 2.8069                 3.8125
 Frc consts  --      0.1036                 0.1785                 0.3233
 IR Inten    --      2.7385                 5.5623                 1.0930

                      7                      8                      9
                      A                      A                      A
 Frequencies --    400.2541               504.3794               583.0630
 Red. masses --      2.4426                 3.0091                 4.2403
 Frc consts  --      0.2306                 0.4510                 0.8493
 IR Inten    --      4.1882                 0.9467                 9.8506

                     10                     11                     12
                      A                      A                      A
 Frequencies --    641.9294               741.8358               770.8036
 Red. masses --      3.7428                 3.9984                 4.7735
 Frc consts  --      0.9087                 1.2964                 1.6710
 IR Inten    --      0.5370                 8.1161                 9.4673

                     13                     14                     15
                      A                      A                      A
 Frequencies --    827.1573               869.2946               892.4191
 Red. masses --      2.1592                 1.9519                 2.3771
 Frc consts  --      0.8704                 0.8691                 1.1154
 IR Inten    --     12.6406                 8.0331                 4.7832

                     16                     17                     18
                      A                      A                      A
 Frequencies --    933.9640               957.1041               994.0274
 Red. masses --      2.5540                 2.3353                 1.4879
 Frc consts  --      1.3126                 1.2604                 0.8662
 IR Inten    --     13.2909                 4.6860                 7.8192

                     19                     20                     21
                      A                      A                      A
 Frequencies --   1007.3924              1029.3313              1044.3383
 Red. masses --      1.8053                 1.6914                 5.2280
 Frc consts  --      1.0794                 1.0559                 3.3594
 IR Inten    --      4.4594                13.9302                62.9658

                     22                     23                     24
                      A                      A                      A
 Frequencies --   1060.3499              1083.3906              1103.2395
 Red. masses --      1.9765                 4.2981                 2.4129
 Frc consts  --      1.3093                 2.9723                 1.7303
 IR Inten    --      0.9601                40.8730                 4.7568

                     25                     26                     27
                      A                      A                      A
 Frequencies --   1149.5690              1158.3880              1170.5865
 Red. masses --      1.5741                 1.6491                 2.0334
 Frc consts  --      1.2256                 1.3038                 1.6416
 IR Inten    --     22.4851                12.7965                22.7870

                     28                     29                     30
                      A                      A                      A
 Frequencies --   1177.3114              1218.7327              1228.4871
 Red. masses --      1.2823                 1.5255                 1.3296
 Frc consts  --      1.0472                 1.3350                 1.1823
 IR Inten    --      2.3478                 7.3130                 0.8011

                     31                     32                     33
                      A                      A                      A
 Frequencies --   1242.0214              1278.1353              1287.8605
 Red. masses --      1.8754                 1.2956                 2.1211
 Frc consts  --      1.7045                 1.2470                 2.0727
 IR Inten    --     31.6049                 1.7787                75.9494

                     34                     35                     36
                      A                      A                      A
 Frequencies --   1309.6549              1370.9624              1437.8652
 Red. masses --      1.6798                 1.4292                 1.8195
 Frc consts  --      1.6975                 1.5827                 2.2164
 IR Inten    --      7.0125                11.6128                53.4482

                     37                     38                     39
                      A                      A                      A
 Frequencies --   1482.6952              1488.4623              1502.8105
 Red. masses --      1.1402                 1.0647                 1.1891
 Frc consts  --      1.4769                 1.3898                 1.5823
 IR Inten    --      3.0542                 5.9365                32.6516

                     40                     41                     42
                      A                      A                      A
 Frequencies --   1506.7048              1516.0017              2974.5123
 Red. masses --      1.3706                 1.1020                 1.0692
 Frc consts  --      1.8332                 1.4922                 5.5737
 IR Inten    --      6.4871                 0.6331                62.7695

                     43                     44                     45
                      A                      A                      A
 Frequencies --   2996.4757              3046.8606              3052.1973
 Red. masses --      1.0351                 1.0593                 1.1039
 Frc consts  --      5.4757                 5.7941                 6.0592
 IR Inten    --     58.5792                43.2741                40.8601

                     46                     47                     48
                      A                      A                      A
 Frequencies --   3070.9851              3106.7518              3124.5205
 Red. masses --      1.0938                 1.1058                 1.0988
 Frc consts  --      6.0780                 6.2885                 6.3205
 IR Inten    --     41.0687                17.7015                28.7616

                     49                     50                     51
                      A                      A                      A
 Frequencies --   3128.0284              3178.8171              3197.8424
 Red. masses --      1.0898                 1.0920                 1.0925
 Frc consts  --      6.2826                 6.5016                 6.5823
 IR Inten    --     23.8757                12.3407                13.1641

 - Thermochemistry -
 -------------------
 Temperature   298.150 Kelvin.  Pressure   1.00000 Atm.
 Atom     1 has atomic number  6 and mass  12.00000

 Molecular mass:   126.06808 amu.
 Principal axes and moments of inertia in atomic units:
                           1         2         3
     Eigenvalues --   656.304591135.746921278.17421
           X            0.99795   0.06152   0.01753
           Y           -0.06004   0.99536  -0.07515
           Z           -0.02207   0.07395   0.99702
 This molecule is an asymmetric top.
 Rotational symmetry number  1.
 Warning -- assumption of classical behavior for rotation
           may cause significant error
 Rotational temperatures (Kelvin)      0.13197     0.07626     0.06776
 Rotational constants (GHZ):           2.74985     1.58903     1.41197
 Zero-point vibrational energy     419897.6 (Joules/Mol)
                                  100.35793 (Kcal/Mol)
 Warning -- explicit consideration of   9 degrees of freedom as
           vibrations may cause significant error
 Vibrational temperatures:    111.67   221.13   247.09   349.52   472.70
          (Kelvin)            545.82   575.88   725.69   838.90   923.59
                             1067.33  1109.01  1190.09  1250.72  1283.99
                             1343.76  1377.06  1430.18  1449.41  1480.98
                             1502.57  1525.61  1558.76  1587.31  1653.97
                             1666.66  1684.21  1693.89  1753.48  1767.52
                             1786.99  1838.95  1852.94  1884.30  1972.51
                             2068.76  2133.26  2141.56  2162.21  2167.81
                             2181.19  4279.65  4311.25  4383.75  4391.43
                             4418.46  4469.92  4495.48  4500.53  4573.60
                             4600.98

 Zero-point correction=                           0.159931 (Hartree/Particle)
 Thermal correction to Energy=                    0.167711
 Thermal correction to Enthalpy=                  0.168655
 Thermal correction to Gibbs Free Energy=         0.127531
 Sum of electronic and zero-point Energies=           -422.977213
 Sum of electronic and thermal Energies=              -422.969433
 Sum of electronic and thermal Enthalpies=            -422.968489
 Sum of electronic and thermal Free Energies=         -423.009613

                     E (Thermal)             CV                S
                      KCal/Mol        Cal/Mol-Kelvin    Cal/Mol-Kelvin
 Total                  105.240             30.164             86.553
 Electronic               0.000              0.000              0.000
 Translational            0.889              2.981             40.409
 Rotational               0.889              2.981             28.346
 Vibrational            103.463             24.202             17.799
 Vibration     1          0.599              1.964              3.950
 Vibration     2          0.619              1.899              2.626
 Vibration     3          0.626              1.877              2.416
 Vibration     4          0.659              1.774              1.781
 Vibration     5          0.712              1.618              1.267
 Vibration     6          0.749              1.514              1.042
 Vibration     7          0.766              1.470              0.962
 Vibration     8          0.860              1.240              0.647
 Vibration     9          0.940              1.068              0.480

 Normal termination of Gaussian 09 at Tue Jan 28 10:04:40 2020.
