 Gaussian 09, Revision D.01,
 Gaussian 09:  ES64L-G09RevD.01 24-Apr-2013

 -----------------------------
 # b3lyp 6-31G(2df,p) opt Freq
 -----------------------------

 -----
 titel
 -----
 Symbolic Z-matrix:
 Charge =  0 Multiplicity = 1

 SCF Done:  E(RB3LYP) =  -423.161847283     A.U. after   14 cycles
 Optimization completed.
    -- Stationary point found.
 Normal termination of Gaussian 09 at Tue Jan 28 08:23:48 2020.

 ----------------------------------------------------------------------
 #N Geom=AllCheck Guess=TCheck SCRF=Check GenChk RB3LYP/6-31G(2df,p) Fr
 eq
 ----------------------------------------------------------------------

 Structure from the checkpoint file:  "/scratch/puck/g09_766d1307-91fc-4fd4-8a1a-52c780d8766c/Gau-81460.chk"
 -----
 titel
 -----
 Charge =  0 Multiplicity = 1

                         Standard orientation:
 ---------------------------------------------------------------------
 Center     Atomic      Atomic             Coordinates (Angstroms)
 Number     Number       Type             X           Y           Z
 ---------------------------------------------------------------------
      1          6           0       -2.728896    0.797898   -0.047665
      2          8           0       -1.892500   -0.228108   -0.554005
      3          6           0       -0.633810   -0.342084    0.049089
      4          6           0       -0.670725   -0.724209    1.513374
      5          6           0        0.356982   -0.838546   -0.937909
      6          6           0        1.749265   -1.038088   -0.325613
      7          6           0        1.736775    0.475632    0.033015
      8          8           0        2.575628    1.219745    0.457477
      9          6           0        0.370401    0.672772   -0.543190
     10          1           0       -2.226423    1.774758   -0.059362
     11          1           0       -3.600717    0.838342   -0.704212
     12          1           0       -3.070207    0.590998    0.974780
     13          1           0        0.329626   -0.895210    1.914155
     14          1           0       -1.128569    0.064632    2.117139
     15          1           0       -1.257841   -1.639529    1.641469
     16          1           0        0.025051   -1.242746   -1.884793
     17          1           0        1.868323   -1.768141    0.478942
     18          1           0        2.516701   -1.220420   -1.084104
     19          1           0       -0.000917    1.543969   -1.068385
 ---------------------------------------------------------------------

 SCF Done:  E(RB3LYP) =  -423.161847283     A.U. after    1 cycles

 The electronic state is 1-A.
 Alpha  occ. eigenvalues --  -19.15688 -19.12753 -10.26806 -10.26337 -10.23377
 Alpha  occ. eigenvalues --  -10.20976 -10.20057 -10.19678 -10.18933  -1.05371
 Alpha  occ. eigenvalues --   -1.03771  -0.90055  -0.75387  -0.71651  -0.68826
 Alpha  occ. eigenvalues --   -0.63527  -0.55800  -0.53719  -0.51478  -0.47456
 Alpha  occ. eigenvalues --   -0.46542  -0.45210  -0.44016  -0.43385  -0.41733
 Alpha  occ. eigenvalues --   -0.40395  -0.39761  -0.37402  -0.36184  -0.34824
 Alpha  occ. eigenvalues --   -0.29906  -0.28629  -0.26630  -0.23759
 Alpha virt. eigenvalues --   -0.01119   0.08159   0.09267   0.10339   0.11431
 Alpha virt. eigenvalues --    0.12718   0.13297   0.14407   0.14760   0.16744
 Alpha virt. eigenvalues --    0.17600   0.18682   0.19331   0.19748   0.21449

 Mulliken charges:
               1
     1  C   -0.252991
     2  O   -0.283247
     3  C    0.427037
     4  C   -0.474396
     5  C   -0.114558
     6  C   -0.382720
     7  C    0.403382
     8  O   -0.317257
     9  C   -0.245081
    10  H    0.113814
    11  H    0.133109
    12  H    0.116753
    13  H    0.136134
    14  H    0.129232
    15  H    0.130311
    16  H    0.111697
    17  H    0.121759
    18  H    0.136293
    19  H    0.110727
 Sum of Mulliken charges =   0.00000

 Dipole moment (field-independent basis, Debye):
    X=             -2.3641    Y=             -1.1577    Z=             -0.2602  Tot=              2.6452
 Quadrupole moment (field-independent basis, Debye-Ang):
   XX=            -58.0758   YY=            -54.0477   ZZ=            -51.8581
   XY=             -8.1937   XZ=             -4.1942   YZ=             -1.7765

  Exact polarizability:  93.557  -1.666  72.165   0.162   0.770  66.183
 Approx polarizability: 128.028   6.685 115.639   5.713   6.286  99.404

                      1                      2                      3
                      A                      A                      A
 Frequencies --    103.3527               111.3293               160.6755
 Red. masses --      2.2138                 4.5652                 2.1124
 Frc consts  --      0.0139                 0.0333                 0.0321
 IR Inten    --      4.6983                 3.0346                 1.5123

                      4                      5                      6
                      A                      A                      A
 Frequencies --    181.5466               213.4903               301.1592
 Red. masses --      1.1328                 1.5335                 2.4714
 Frc consts  --      0.0220                 0.0412                 0.1321
 IR Inten    --      1.1544                 1.0209                 1.0495

                      7                      8                      9
                      A                      A                      A
 Frequencies --    331.8527               377.1871               423.9578
 Red. masses --      2.6065                 4.1546                 3.7999
 Frc consts  --      0.1691                 0.3482                 0.4024
 IR Inten    --      0.9480                 5.6690                 2.7633

                     10                     11                     12
                      A                      A                      A
 Frequencies --    458.4584               532.3981               558.8976
 Red. masses --      3.3574                 2.3157                 3.5825
 Frc consts  --      0.4158                 0.3867                 0.6593
 IR Inten    --      1.6475                 6.5340                 2.8449

                     13                     14                     15
                      A                      A                      A
 Frequencies --    636.6267               679.9219               810.3379
 Red. masses --      3.1263                 3.5799                 3.1256
 Frc consts  --      0.7465                 0.9751                 1.2092
 IR Inten    --     11.3727                18.4394                33.8388

                     16                     17                     18
                      A                      A                      A
 Frequencies --    829.6881               880.6673               925.5126
 Red. masses --      1.6215                 3.4778                 1.9348
 Frc consts  --      0.6577                 1.5892                 0.9765
 IR Inten    --      7.9074                 4.7591                 8.3355

                     19                     20                     21
                      A                      A                      A
 Frequencies --    966.9450               976.5354               991.0984
 Red. masses --      2.4761                 1.3967                 1.7377
 Frc consts  --      1.3640                 0.7848                 1.0057
 IR Inten    --     15.8637                 2.0625                19.4303

                     22                     23                     24
                      A                      A                      A
 Frequencies --   1015.5358              1053.1317              1099.9296
 Red. masses --      2.2473                 1.9869                 1.8094
 Frc consts  --      1.3655                 1.2984                 1.2898
 IR Inten    --     31.1386                22.4870                16.7283

                     25                     26                     27
                      A                      A                      A
 Frequencies --   1118.2367              1131.1448              1176.7924
 Red. masses --      2.4436                 1.9872                 1.4942
 Frc consts  --      1.8003                 1.4981                 1.2191
 IR Inten    --     22.1805                42.6272                13.6103

                     28                     29                     30
                      A                      A                      A
 Frequencies --   1183.8834              1215.4406              1221.9137
 Red. masses --      1.5456                 1.5192                 1.6233
 Frc consts  --      1.2763                 1.3223                 1.4280
 IR Inten    --     17.7277                22.5870                21.3346

                     31                     32                     33
                      A                      A                      A
 Frequencies --   1249.7962              1277.4259              1397.6941
 Red. masses --      2.3736                 2.2922                 2.9206
 Frc consts  --      2.1844                 2.2038                 3.3616
 IR Inten    --     79.7233                32.5962                32.8625

                     34                     35                     36
                      A                      A                      A
 Frequencies --   1420.8437              1459.2989              1475.8501
 Red. masses --      1.4683                 1.1092                 1.1336
 Frc consts  --      1.7464                 1.3917                 1.4548
 IR Inten    --     12.1601                 6.8211                 1.4328

                     37                     38                     39
                      A                      A                      A
 Frequencies --   1482.8531              1490.8603              1509.0941
 Red. masses --      1.0535                 1.0721                 1.0880
 Frc consts  --      1.3648                 1.4039                 1.4598
 IR Inten    --      3.2880                 1.3063                 7.2046

                     40                     41                     42
                      A                      A                      A
 Frequencies --   1510.7908              1875.6289              3001.4841
 Red. masses --      1.0462                12.4388                 1.0349
 Frc consts  --      1.4070                25.7823                 5.4931
 IR Inten    --      5.8169               356.6301                44.4132

                     43                     44                     45
                      A                      A                      A
 Frequencies --   3045.2537              3058.5075              3061.4222
 Red. masses --      1.0408                 1.0987                 1.0596
 Frc consts  --      5.6867                 6.0557                 5.8512
 IR Inten    --      8.7327                48.7290                18.3212

                     46                     47                     48
                      A                      A                      A
 Frequencies --   3109.9203              3112.0984              3123.2230
 Red. masses --      1.1007                 1.1064                 1.0989
 Frc consts  --      6.2720                 6.3133                 6.3157
 IR Inten    --     13.7847                13.1643                26.1362

                     49                     50                     51
                      A                      A                      A
 Frequencies --   3137.0345              3197.9085              3211.9014
 Red. masses --      1.0986                 1.0915                 1.0947
 Frc consts  --      6.3697                 6.5766                 6.6536
 IR Inten    --     13.6768                 4.7917                 2.8404

 - Thermochemistry -
 -------------------
 Temperature   298.150 Kelvin.  Pressure   1.00000 Atm.
 Atom     1 has atomic number  6 and mass  12.00000

 Molecular mass:   126.06808 amu.
 Principal axes and moments of inertia in atomic units:
                           1         2         3
     Eigenvalues --   552.672691603.116471662.92147
           X            0.99877  -0.04817  -0.01162
           Y            0.04530   0.98271  -0.17955
           Z            0.02007   0.17880   0.98368
 This molecule is an asymmetric top.
 Rotational symmetry number  1.
 Warning -- assumption of classical behavior for rotation
           may cause significant error
 Rotational temperatures (Kelvin)      0.15672     0.05403     0.05209
 Rotational constants (GHZ):           3.26548     1.12577     1.08528
 Zero-point vibrational energy     411973.2 (Joules/Mol)
                                   98.46395 (Kcal/Mol)
 Warning -- explicit consideration of  12 degrees of freedom as
           vibrations may cause significant error
 Vibrational temperatures:    148.70   160.18   231.18   261.20   307.16
          (Kelvin)            433.30   477.46   542.69   609.98   659.62
                              766.00   804.13   915.96   978.25  1165.89
                             1193.73  1267.08  1331.60  1391.22  1405.01
                             1425.97  1461.13  1515.22  1582.55  1608.89
                             1627.46  1693.14  1703.34  1748.75  1758.06
                             1798.18  1837.93  2010.97  2044.27  2099.60
                             2123.42  2133.49  2145.01  2171.25  2173.69
                             2698.61  4318.46  4381.44  4400.50  4404.70
                             4474.48  4477.61  4493.62  4513.49  4601.07
                             4621.20

 Zero-point correction=                           0.156912 (Hartree/Particle)
 Thermal correction to Energy=                    0.165912
 Thermal correction to Enthalpy=                  0.166857
 Thermal correction to Gibbs Free Energy=         0.123369
 Sum of electronic and zero-point Energies=           -423.004935
 Sum of electronic and thermal Energies=              -422.995935
 Sum of electronic and thermal Enthalpies=            -422.994991
 Sum of electronic and thermal Free Energies=         -423.038479

                     E (Thermal)             CV                S
                      KCal/Mol        Cal/Mol-Kelvin    Cal/Mol-Kelvin
 Total                  104.112             33.877             91.528
 Electronic               0.000              0.000              0.000
 Translational            0.889              2.981             40.409
 Rotational               0.889              2.981             28.779
 Vibrational            102.334             27.916             22.341
 Vibration     1          0.605              1.947              3.390
 Vibration     2          0.607              1.940              3.246
 Vibration     3          0.622              1.891              2.542
 Vibration     4          0.630              1.865              2.312
 Vibration     5          0.644              1.820              2.014
 Vibration     6          0.693              1.672              1.410
 Vibration     7          0.714              1.612              1.251
 Vibration     8          0.748              1.519              1.050
 Vibration     9          0.786              1.418              0.879
 Vibration    10          0.816              1.342              0.771
 Vibration    11          0.887              1.178              0.582
 Vibration    12          0.914              1.120              0.526

 Optimization completed.
    -- Stationary point found.
 Normal termination of Gaussian 09 at Tue Jan 28 09:10:55 2020.
