 Gaussian 09, Revision D.01,
 Gaussian 09:  ES64L-G09RevD.01 24-Apr-2013

 -----------------------------
 # b3lyp 6-31G(2df,p) opt Freq
 -----------------------------

 -----
 titel
 -----
 Symbolic Z-matrix:
 Charge =  0 Multiplicity = 1

 SCF Done:  E(RB3LYP) =  -423.226541188     A.U. after   14 cycles
 Optimization completed.
    -- Stationary point found.
 Normal termination of Gaussian 09 at Tue Jan 28 03:16:12 2020.

 ----------------------------------------------------------------------
 #N Geom=AllCheck Guess=TCheck SCRF=Check GenChk RB3LYP/6-31G(2df,p) Fr
 eq
 ----------------------------------------------------------------------

 Structure from the checkpoint file:  "/scratch/puck/g09_f801a169-1d4a-45b6-9565-f3bf36a927b3/Gau-7473.chk"
 -----
 titel
 -----
 Charge =  0 Multiplicity = 1

                         Standard orientation:
 ---------------------------------------------------------------------
 Center     Atomic      Atomic             Coordinates (Angstroms)
 Number     Number       Type             X           Y           Z
 ---------------------------------------------------------------------
      1          8           0       -1.991022   -1.206185   -0.151375
      2          6           0       -1.498247    0.122419   -0.125919
      3          6           0       -0.555803    0.489084   -1.321534
      4          6           0        0.771384    0.910148   -0.626268
      5          6           0        0.235284    1.556667    0.672000
      6          6           0       -0.588764    0.321445    1.104931
      7          6           0        0.483392   -0.787350    1.108147
      8          6           0        1.375506   -0.385340   -0.079296
      9          8           0        2.340793   -0.972545   -0.492608
     10          1           0       -2.541685   -1.310032   -0.933132
     11          1           0       -2.337487    0.830824   -0.075949
     12          1           0       -0.426772   -0.365426   -1.992115
     13          1           0       -0.952966    1.322607   -1.908154
     14          1           0        1.458620    1.479489   -1.250538
     15          1           0        1.021082    1.818837    1.386753
     16          1           0       -0.377377    2.443893    0.484325
     17          1           0       -1.140878    0.413251    2.040809
     18          1           0        1.077621   -0.771209    2.028641
     19          1           0        0.085169   -1.794824    0.978866
 ---------------------------------------------------------------------

 SCF Done:  E(RB3LYP) =  -423.226541188     A.U. after    1 cycles

 The electronic state is 1-A.
 Alpha  occ. eigenvalues --  -19.14368 -19.12225 -10.25889 -10.23942 -10.19439
 Alpha  occ. eigenvalues --  -10.19388 -10.19290 -10.19274 -10.18202  -1.03339
 Alpha  occ. eigenvalues --   -1.02642  -0.87442  -0.74576  -0.71510  -0.69308
 Alpha  occ. eigenvalues --   -0.60086  -0.56256  -0.53287  -0.51263  -0.49922
 Alpha  occ. eigenvalues --   -0.46769  -0.43894  -0.41701  -0.40604  -0.39523
 Alpha  occ. eigenvalues --   -0.38110  -0.37295  -0.36169  -0.35477  -0.34197
 Alpha  occ. eigenvalues --   -0.32779  -0.31035  -0.27202  -0.22950
 Alpha virt. eigenvalues --   -0.00607   0.06919   0.08438   0.11290   0.13073
 Alpha virt. eigenvalues --    0.14424   0.15361   0.16297   0.16452   0.16945
 Alpha virt. eigenvalues --    0.18123   0.18579   0.19611   0.21464   0.22040

 Mulliken charges:
               1
     1  O   -0.436953
     2  C    0.140606
     3  C   -0.268988
     4  C   -0.109464
     5  C   -0.245452
     6  C   -0.039698
     7  C   -0.324961
     8  C    0.423044
     9  O   -0.335016
    10  H    0.285739
    11  H    0.067695
    12  H    0.114635
    13  H    0.103327
    14  H    0.079003
    15  H    0.105805
    16  H    0.100646
    17  H    0.071311
    18  H    0.121394
    19  H    0.147327
 Sum of Mulliken charges =   0.00000

 Dipole moment (field-independent basis, Debye):
    X=             -2.8337    Y=              2.1574    Z=             -0.1032  Tot=              3.5630
 Quadrupole moment (field-independent basis, Debye-Ang):
   XX=            -57.7120   YY=            -54.1509   ZZ=            -50.1280
   XY=              3.2065   XZ=              5.9287   YZ=              0.3639

  Exact polarizability:  77.797  -2.290  72.122   0.409  -0.831  71.718
 Approx polarizability: 113.997  -6.526 108.698  -2.249   0.428 105.767

                      1                      2                      3
                      A                      A                      A
 Frequencies --     85.0329               183.7924               275.5417
 Red. masses --      5.7298                 3.3598                 1.0809
 Frc consts  --      0.0244                 0.0669                 0.0483
 IR Inten    --      1.8176                 4.8612               100.0003

                      4                      5                      6
                      A                      A                      A
 Frequencies --    291.7985               399.4832               410.2658
 Red. masses --      2.6739                 2.7331                 2.0493
 Frc consts  --      0.1341                 0.2570                 0.2032
 IR Inten    --      5.9064                 4.3908                 2.5204

                      7                      8                      9
                      A                      A                      A
 Frequencies --    458.5539               492.0216               521.8417
 Red. masses --      3.4923                 3.7797                 4.2781
 Frc consts  --      0.4327                 0.5391                 0.6864
 IR Inten    --      9.2944                 3.5337                 6.6350

                     10                     11                     12
                      A                      A                      A
 Frequencies --    600.0512               698.6299               742.7480
 Red. masses --      2.6348                 4.3783                 3.1105
 Frc consts  --      0.5590                 1.2591                 1.0110
 IR Inten    --      1.6335                 0.9569                 4.4087

                     13                     14                     15
                      A                      A                      A
 Frequencies --    788.2643               817.9726               879.7424
 Red. masses --      3.1553                 2.7688                 2.2683
 Frc consts  --      1.1551                 1.0915                 1.0343
 IR Inten    --      3.7307                 1.4041                 3.6116

                     16                     17                     18
                      A                      A                      A
 Frequencies --    921.7217               931.0350               941.5262
 Red. masses --      3.1208                 2.0514                 2.2807
 Frc consts  --      1.5621                 1.0477                 1.1912
 IR Inten    --      2.3928                 1.2814                13.3262

                     19                     20                     21
                      A                      A                      A
 Frequencies --    955.4974               965.0688              1024.2440
 Red. masses --      1.9069                 1.7385                 2.2304
 Frc consts  --      1.0258                 0.9540                 1.3786
 IR Inten    --      0.2446                 1.8445                29.0173

                     22                     23                     24
                      A                      A                      A
 Frequencies --   1058.0855              1060.8176              1107.5343
 Red. masses --      1.8698                 1.5537                 1.5586
 Frc consts  --      1.2334                 1.0301                 1.1264
 IR Inten    --      3.2489                53.3682                22.6033

                     25                     26                     27
                      A                      A                      A
 Frequencies --   1139.1090              1158.1277              1172.2152
 Red. masses --      1.2642                 1.6175                 2.1809
 Frc consts  --      0.9665                 1.2782                 1.7656
 IR Inten    --      5.8202                14.9676                 7.0456

                     28                     29                     30
                      A                      A                      A
 Frequencies --   1201.4838              1221.7996              1244.7839
 Red. masses --      1.4294                 1.2584                 1.5415
 Frc consts  --      1.2157                 1.1068                 1.4073
 IR Inten    --     14.2763                29.4209                 0.6905

                     31                     32                     33
                      A                      A                      A
 Frequencies --   1272.3754              1291.4941              1308.3438
 Red. masses --      1.6209                 1.3790                 1.6301
 Frc consts  --      1.5461                 1.3552                 1.6440
 IR Inten    --     21.8453                 5.8145                 0.8861

                     34                     35                     36
                      A                      A                      A
 Frequencies --   1329.5513              1345.5482              1362.3815
 Red. masses --      1.5853                 1.5120                 1.4175
 Frc consts  --      1.6511                 1.6129                 1.5501
 IR Inten    --      2.1588                 6.5254                16.6218

                     37                     38                     39
                      A                      A                      A
 Frequencies --   1420.9462              1448.3995              1483.5501
 Red. masses --      1.3570                 1.1308                 1.0872
 Frc consts  --      1.6143                 1.3978                 1.4098
 IR Inten    --      1.2837                14.1033                 2.7801

                     40                     41                     42
                      A                      A                      A
 Frequencies --   1509.6539              1855.7018              2988.7190
 Red. masses --      1.1055                12.3834                 1.0848
 Frc consts  --      1.4845                25.1250                 5.7090
 IR Inten    --      2.2947               238.9030                49.1040

                     43                     44                     45
                      A                      A                      A
 Frequencies --   3050.3794              3052.0733              3055.1135
 Red. masses --      1.0587                 1.0601                 1.0665
 Frc consts  --      5.8043                 5.8183                 5.8652
 IR Inten    --     30.9344                29.9910                 7.2345

                     46                     47                     48
                      A                      A                      A
 Frequencies --   3099.2135              3100.5818              3108.8343
 Red. masses --      1.1065                 1.1069                 1.0884
 Frc consts  --      6.2620                 6.2699                 6.1976
 IR Inten    --     10.4438                31.6860                35.8729

                     49                     50                     51
                      A                      A                      A
 Frequencies --   3129.2037              3129.8893              3827.2086
 Red. masses --      1.0899                 1.0945                 1.0664
 Frc consts  --      6.2879                 6.3175                 9.2030
 IR Inten    --     19.4885                 3.2616                25.1026

 - Thermochemistry -
 -------------------
 Temperature   298.150 Kelvin.  Pressure   1.00000 Atm.
 Atom     1 has atomic number  8 and mass  15.99491

 Molecular mass:   126.06808 amu.
 Principal axes and moments of inertia in atomic units:
                           1         2         3
     Eigenvalues --   703.978741158.941991245.82472
           X            0.99945   0.01562   0.02910
           Y           -0.01421   0.99874  -0.04807
           Z           -0.02982   0.04763   0.99842
 This molecule is an asymmetric top.
 Rotational symmetry number  1.
 Warning -- assumption of classical behavior for rotation
           may cause significant error
 Rotational temperatures (Kelvin)      0.12303     0.07474     0.06952
 Rotational constants (GHZ):           2.56363     1.55723     1.44863
 Zero-point vibrational energy     424183.5 (Joules/Mol)
                                  101.38230 (Kcal/Mol)
 Warning -- explicit consideration of  10 degrees of freedom as
           vibrations may cause significant error
 Vibrational temperatures:    122.34   264.44   396.44   419.83   574.77
          (Kelvin)            590.28   659.76   707.91   750.81   863.34
                             1005.17  1068.65  1134.14  1176.88  1265.75
                             1326.15  1339.55  1354.64  1374.75  1388.52
                             1473.66  1522.35  1526.28  1593.49  1638.92
                             1666.29  1686.55  1728.67  1757.89  1790.96
                             1830.66  1858.17  1882.41  1912.93  1935.94
                             1960.16  2044.42  2083.92  2134.50  2172.05
                             2669.94  4300.09  4388.81  4391.25  4395.62
                             4459.07  4461.04  4472.91  4502.22  4503.21
                             5506.49

 Zero-point correction=                           0.161563 (Hartree/Particle)
 Thermal correction to Energy=                    0.169054
 Thermal correction to Enthalpy=                  0.169999
 Thermal correction to Gibbs Free Energy=         0.129716
 Sum of electronic and zero-point Energies=           -423.064978
 Sum of electronic and thermal Energies=              -423.057487
 Sum of electronic and thermal Enthalpies=            -423.056543
 Sum of electronic and thermal Free Energies=         -423.096825

                     E (Thermal)             CV                S
                      KCal/Mol        Cal/Mol-Kelvin    Cal/Mol-Kelvin
 Total                  106.083             30.314             84.781
 Electronic               0.000              0.000              0.000
 Translational            0.889              2.981             40.409
 Rotational               0.889              2.981             28.410
 Vibrational            104.306             24.352             15.962
 Vibration     1          0.601              1.960              3.771
 Vibration     2          0.631              1.862              2.290
 Vibration     3          0.677              1.719              1.561
 Vibration     4          0.687              1.689              1.464
 Vibration     5          0.766              1.471              0.965
 Vibration     6          0.774              1.448              0.926
 Vibration     7          0.817              1.342              0.770
 Vibration     8          0.848              1.268              0.678
 Vibration     9          0.877              1.202              0.606
 Vibration    10          0.958              1.032              0.450

 Normal termination of Gaussian 09 at Tue Jan 28 04:03:24 2020.
