 Gaussian 09, Revision D.01,
 Gaussian 09:  ES64L-G09RevD.01 24-Apr-2013

 -----------------------------
 # b3lyp 6-31G(2df,p) opt Freq
 -----------------------------

 -----
 titel
 -----
 Symbolic Z-matrix:
 Charge =  0 Multiplicity = 1

 SCF Done:  E(RB3LYP) =  -423.154361077     A.U. after   13 cycles
 Optimization completed.
    -- Stationary point found.
 Normal termination of Gaussian 09 at Mon Jan 27 12:18:51 2020.

 ----------------------------------------------------------------------
 #N Geom=AllCheck Guess=TCheck SCRF=Check GenChk RB3LYP/6-31G(2df,p) Fr
 eq
 ----------------------------------------------------------------------

 Structure from the checkpoint file:  "/scratch/puck/g09_bbda91ed-2d84-4db6-a8e0-ab07420bdf8e/Gau-167164.chk"
 -----
 titel
 -----
 Charge =  0 Multiplicity = 1

                         Standard orientation:
 ---------------------------------------------------------------------
 Center     Atomic      Atomic             Coordinates (Angstroms)
 Number     Number       Type             X           Y           Z
 ---------------------------------------------------------------------
      1          6           0       -2.254621   -0.151672    0.003486
      2          8           0       -1.370673   -1.049672   -0.725250
      3          6           0       -0.234229   -0.484347   -0.078615
      4          6           0        0.926799   -1.366980    0.318135
      5          8           0        1.995505   -0.456036    0.540466
      6          6           0        1.906703    0.566452   -0.461571
      7          6           0        0.415982    0.794890   -0.716884
      8          6           0       -0.380544    1.676173    0.296315
      9          6           0       -1.089202    0.414982    0.847589
     10          1           0       -2.751225    0.564526   -0.663488
     11          1           0       -3.012933   -0.714900    0.557575
     12          1           0        0.770496   -1.932966    1.240189
     13          1           0        1.147408   -2.075447   -0.499240
     14          1           0        2.440333    1.440909   -0.077892
     15          1           0        2.404457    0.233010   -1.385618
     16          1           0        0.181906    0.960902   -1.769346
     17          1           0        0.263415    2.153629    1.040455
     18          1           0       -1.029279    2.439685   -0.142027
     19          1           0       -1.158555    0.279318    1.926926
 ---------------------------------------------------------------------

 SCF Done:  E(RB3LYP) =  -423.154361077     A.U. after    1 cycles

 The electronic state is 1-A.
 Alpha  occ. eigenvalues --  -19.13816 -19.13764 -10.23501 -10.23489 -10.22703
 Alpha  occ. eigenvalues --  -10.22497 -10.19093 -10.18836 -10.18570  -1.04865
 Alpha  occ. eigenvalues --   -1.02948  -0.83016  -0.73654  -0.73054  -0.65646
 Alpha  occ. eigenvalues --   -0.62483  -0.59032  -0.52083  -0.50798  -0.49360
 Alpha  occ. eigenvalues --   -0.47422  -0.45323  -0.44207  -0.41868  -0.41753
 Alpha  occ. eigenvalues --   -0.39411  -0.37573  -0.34618  -0.33207  -0.32000
 Alpha  occ. eigenvalues --   -0.30716  -0.28082  -0.25703  -0.23672
 Alpha virt. eigenvalues --    0.06462   0.08803   0.09767   0.11427   0.12360
 Alpha virt. eigenvalues --    0.13752   0.13873   0.14774   0.15029   0.16190
 Alpha virt. eigenvalues --    0.17267   0.18810   0.19712   0.20304   0.21420

 Mulliken charges:
               1
     1  C   -0.097844
     2  O   -0.337076
     3  C    0.466510
     4  C   -0.184762
     5  O   -0.257546
     6  C   -0.095651
     7  C   -0.097972
     8  C   -0.253578
     9  C   -0.134387
    10  H    0.101557
    11  H    0.110228
    12  H    0.111951
    13  H    0.098112
    14  H    0.108550
    15  H    0.093624
    16  H    0.080548
    17  H    0.108224
    18  H    0.099728
    19  H    0.079784
 Sum of Mulliken charges =   0.00000

 Dipole moment (field-independent basis, Debye):
    X=             -0.8517    Y=              1.3425    Z=              0.2134  Tot=              1.6041
 Quadrupole moment (field-independent basis, Debye-Ang):
   XX=            -54.4529   YY=            -52.8054   ZZ=            -53.2786
   XY=             -0.4949   XZ=             -4.1233   YZ=             -1.8839

  Exact polarizability:  82.410   0.790  74.302  -3.434  -1.514  65.300
 Approx polarizability: 109.575   1.997 107.591  -1.654  -0.229 101.670

                      1                      2                      3
                      A                      A                      A
 Frequencies --    105.4745               185.9186               244.5798
 Red. masses --      2.4667                 3.9781                 2.5678
 Frc consts  --      0.0162                 0.0810                 0.0905
 IR Inten    --      0.5028                 6.4313                 3.1910

                      4                      5                      6
                      A                      A                      A
 Frequencies --    345.5829               351.5600               399.3974
 Red. masses --      2.2640                 2.6557                 1.9457
 Frc consts  --      0.1593                 0.1934                 0.1829
 IR Inten    --      1.7302                 2.8342                 0.4287

                      7                      8                      9
                      A                      A                      A
 Frequencies --    470.3416               619.2650               687.9586
 Red. masses --      4.5550                 3.8316                 3.5798
 Frc consts  --      0.5937                 0.8657                 0.9982
 IR Inten    --      1.4593                 0.3540                 5.0861

                     10                     11                     12
                      A                      A                      A
 Frequencies --    732.9354               809.3742               835.3273
 Red. masses --      3.1281                 2.5766                 2.7192
 Frc consts  --      0.9901                 0.9945                 1.1179
 IR Inten    --      4.2918                 7.1378                 5.5891

                     13                     14                     15
                      A                      A                      A
 Frequencies --    870.3656               884.1987               903.9049
 Red. masses --      2.3601                 1.6567                 2.5153
 Frc consts  --      1.0534                 0.7631                 1.2108
 IR Inten    --      4.0998                 6.2697                 2.0554

                     16                     17                     18
                      A                      A                      A
 Frequencies --    927.0929               969.4665               988.9400
 Red. masses --      3.6600                 1.6683                 4.2402
 Frc consts  --      1.8534                 0.9238                 2.4433
 IR Inten    --     21.9744                 8.6739                50.6857

                     19                     20                     21
                      A                      A                      A
 Frequencies --   1023.8676              1041.2716              1085.4173
 Red. masses --      2.1643                 2.0503                 2.7770
 Frc consts  --      1.3368                 1.3098                 1.9276
 IR Inten    --     39.1412                 9.5900                36.3677

                     22                     23                     24
                      A                      A                      A
 Frequencies --   1105.1373              1116.0538              1127.1870
 Red. masses --      2.6297                 2.6358                 2.3363
 Frc consts  --      1.8923                 1.9344                 1.7489
 IR Inten    --     18.4656                16.0633                 6.6527

                     25                     26                     27
                      A                      A                      A
 Frequencies --   1145.6620              1160.1292              1192.1702
 Red. masses --      1.7946                 1.2162                 1.5961
 Frc consts  --      1.3878                 0.9645                 1.3366
 IR Inten    --      1.3724                 1.5030                57.1781

                     28                     29                     30
                      A                      A                      A
 Frequencies --   1199.0902              1226.3496              1260.0574
 Red. masses --      1.4351                 1.3551                 1.4325
 Frc consts  --      1.2158                 1.2007                 1.3400
 IR Inten    --      2.2266                 6.2523                 3.9100

                     31                     32                     33
                      A                      A                      A
 Frequencies --   1272.9426              1288.8576              1305.5465
 Red. masses --      1.3450                 1.9909                 1.5124
 Frc consts  --      1.2841                 1.9485                 1.5188
 IR Inten    --      0.8660                10.3735                 1.8538

                     34                     35                     36
                      A                      A                      A
 Frequencies --   1332.0027              1354.1612              1359.9596
 Red. masses --      1.4457                 1.7630                 1.6039
 Frc consts  --      1.5112                 1.9048                 1.7477
 IR Inten    --      1.2103                 2.7339                10.3311

                     37                     38                     39
                      A                      A                      A
 Frequencies --   1394.7554              1476.8768              1497.7146
 Red. masses --      1.4292                 1.1064                 1.0878
 Frc consts  --      1.6381                 1.4219                 1.4377
 IR Inten    --      4.0718                 3.1472                 0.6955

                     40                     41                     42
                      A                      A                      A
 Frequencies --   1511.0043              1519.4918              2960.8887
 Red. masses --      1.0991                 1.1103                 1.0701
 Frc consts  --      1.4785                 1.5104                 5.5275
 IR Inten    --      1.4099                 0.8214                52.2621

                     43                     44                     45
                      A                      A                      A
 Frequencies --   2981.5230              3017.9612              3050.9865
 Red. masses --      1.0704                 1.0577                 1.0585
 Frc consts  --      5.6064                 5.6761                 5.8051
 IR Inten    --     76.5340                68.9811                34.2593

                     46                     47                     48
                      A                      A                      A
 Frequencies --   3070.0879              3083.4047              3093.3037
 Red. masses --      1.1084                 1.0933                 1.0926
 Frc consts  --      6.1553                 6.1244                 6.1594
 IR Inten    --     30.0952                32.2823                24.2936

                     49                     50                     51
                      A                      A                      A
 Frequencies --   3094.9321              3107.3924              3112.2240
 Red. masses --      1.0976                 1.0930                 1.0949
 Frc consts  --      6.1942                 6.2179                 6.2481
 IR Inten    --     10.9118                 9.2070                54.8529

 - Thermochemistry -
 -------------------
 Temperature   298.150 Kelvin.  Pressure   1.00000 Atm.
 Atom     1 has atomic number  6 and mass  12.00000

 Molecular mass:   126.06808 amu.
 Principal axes and moments of inertia in atomic units:
                           1         2         3
     Eigenvalues --   576.767401091.614021346.16165
           X            0.99968  -0.00984  -0.02342
           Y            0.00926   0.99964  -0.02502
           Z            0.02366   0.02480   0.99941
 This molecule is an asymmetric top.
 Rotational symmetry number  1.
 Warning -- assumption of classical behavior for rotation
           may cause significant error
 Rotational temperatures (Kelvin)      0.15017     0.07934     0.06434
 Rotational constants (GHZ):           3.12906     1.65328     1.34066
 Zero-point vibrational energy     424076.7 (Joules/Mol)
                                  101.35677 (Kcal/Mol)
 Warning -- explicit consideration of   8 degrees of freedom as
           vibrations may cause significant error
 Vibrational temperatures:    151.75   267.50   351.90   497.22   505.82
          (Kelvin)            574.64   676.72   890.98   989.82  1054.53
                             1164.51  1201.85  1252.26  1272.16  1300.52
                             1333.88  1394.84  1422.86  1473.12  1498.16
                             1561.67  1590.04  1605.75  1621.77  1648.35
                             1669.17  1715.26  1725.22  1764.44  1812.94
                             1831.48  1854.38  1878.39  1916.45  1948.33
                             1956.68  2006.74  2124.89  2154.87  2174.00
                             2186.21  4260.05  4289.74  4342.17  4389.68
                             4417.17  4436.33  4450.57  4452.91  4470.84
                             4477.79

 Zero-point correction=                           0.161522 (Hartree/Particle)
 Thermal correction to Energy=                    0.168605
 Thermal correction to Enthalpy=                  0.169549
 Thermal correction to Gibbs Free Energy=         0.130060
 Sum of electronic and zero-point Energies=           -422.992839
 Sum of electronic and thermal Energies=              -422.985756
 Sum of electronic and thermal Enthalpies=            -422.984812
 Sum of electronic and thermal Free Energies=         -423.024301

                     E (Thermal)             CV                S
                      KCal/Mol        Cal/Mol-Kelvin    Cal/Mol-Kelvin
 Total                  105.801             28.419             83.111
 Electronic               0.000              0.000              0.000
 Translational            0.889              2.981             40.409
 Rotational               0.889              2.981             28.229
 Vibrational            104.024             22.457             14.473
 Vibration     1          0.605              1.945              3.351
 Vibration     2          0.632              1.859              2.268
 Vibration     3          0.660              1.772              1.769
 Vibration     4          0.724              1.584              1.186
 Vibration     5          0.728              1.572              1.159
 Vibration     6          0.765              1.471              0.965
 Vibration     7          0.827              1.316              0.737
 Vibration     8          0.979              0.991              0.418

 Optimization completed.
    -- Stationary point found.
 Normal termination of Gaussian 09 at Mon Jan 27 13:06:57 2020.
