 Gaussian 09, Revision D.01,
 Gaussian 09:  ES64L-G09RevD.01 24-Apr-2013

 -----------------------------
 # b3lyp 6-31G(2df,p) opt Freq
 -----------------------------

 -----
 titel
 -----
 Symbolic Z-matrix:
 Charge =  0 Multiplicity = 1

 SCF Done:  E(RB3LYP) =  -423.186862000     A.U. after   14 cycles
 SCF Done:  E(RB3LYP) =  -423.186862136     A.U. after    6 cycles
 SCF Done:  E(RB3LYP) =  -423.186862218     A.U. after    6 cycles
 SCF Done:  E(RB3LYP) =  -423.186862272     A.U. after    6 cycles
 Optimization completed.
    -- Stationary point found.
 Normal termination of Gaussian 09 at Tue Jan 28 03:29:35 2020.

 ----------------------------------------------------------------------
 #N Geom=AllCheck Guess=TCheck SCRF=Check GenChk RB3LYP/6-31G(2df,p) Fr
 eq
 ----------------------------------------------------------------------

 Structure from the checkpoint file:  "/scratch/puck/g09_3943d2ce-a235-4b89-ab31-eff9faed9ab7/Gau-79113.chk"
 -----
 titel
 -----
 Charge =  0 Multiplicity = 1

                         Standard orientation:
 ---------------------------------------------------------------------
 Center     Atomic      Atomic             Coordinates (Angstroms)
 Number     Number       Type             X           Y           Z
 ---------------------------------------------------------------------
      1          6           0       -2.585567   -0.785510    0.300514
      2          6           0       -1.309877   -0.176562   -0.171900
      3          6           0       -0.482952   -0.532208   -1.158248
      4          6           0        0.712729    0.400959   -1.049278
      5          8           0        0.122803    1.602273   -0.538549
      6          6           0       -0.593700    0.974185    0.534931
      7          6           0        0.583788    0.348596    1.350975
      8          6           0        1.548938   -0.051255    0.191491
      9          8           0        1.853265   -1.429918    0.089539
     10          1           0       -2.489700   -1.156606    1.329631
     11          1           0       -3.400819   -0.051069    0.309315
     12          1           0       -2.887972   -1.625178   -0.330829
     13          1           0       -0.566680   -1.371888   -1.833687
     14          1           0        1.289797    0.599942   -1.951120
     15          1           0       -1.211579    1.699815    1.064866
     16          1           0        1.032765    1.094217    2.011703
     17          1           0        0.285077   -0.519590    1.944158
     18          1           0        2.468006    0.546639    0.236636
     19          1           0        2.432410   -1.664361    0.820505
 ---------------------------------------------------------------------

 SCF Done:  E(RB3LYP) =  -423.186862272     A.U. after    1 cycles

 The electronic state is 1-A.
 Alpha  occ. eigenvalues --  -19.13569 -19.13069 -10.23021 -10.23016 -10.22597
 Alpha  occ. eigenvalues --  -10.18530 -10.18300 -10.17933 -10.16993  -1.04592
 Alpha  occ. eigenvalues --   -1.01507  -0.80428  -0.74944  -0.73516  -0.68882
 Alpha  occ. eigenvalues --   -0.59094  -0.56751  -0.53549  -0.51290  -0.49944
 Alpha  occ. eigenvalues --   -0.46203  -0.42901  -0.41513  -0.40741  -0.39990
 Alpha  occ. eigenvalues --   -0.38217  -0.37372  -0.36368  -0.34853  -0.33144
 Alpha  occ. eigenvalues --   -0.30467  -0.27115  -0.24781  -0.23047
 Alpha virt. eigenvalues --    0.02149   0.07931   0.09779   0.10715   0.12827
 Alpha virt. eigenvalues --    0.14090   0.14830   0.15967   0.16432   0.17039
 Alpha virt. eigenvalues --    0.18752   0.19826   0.20694   0.21290   0.23225

 Mulliken charges:
               1
     1  C   -0.509136
     2  C    0.352519
     3  C   -0.182568
     4  C   -0.001172
     5  O   -0.252196
     6  C   -0.029051
     7  C   -0.268413
     8  C    0.128972
     9  O   -0.436426
    10  H    0.127765
    11  H    0.128592
    12  H    0.129505
    13  H    0.103611
    14  H    0.077732
    15  H    0.073692
    16  H    0.099668
    17  H    0.098860
    18  H    0.073125
    19  H    0.284922
 Sum of Mulliken charges =   0.00000

 Dipole moment (field-independent basis, Debye):
    X=              0.1735    Y=             -0.9608    Z=              1.7365  Tot=              1.9922
 Quadrupole moment (field-independent basis, Debye-Ang):
   XX=            -47.6913   YY=            -56.7610   ZZ=            -50.4575
   XY=              0.1142   XZ=              1.3356   YZ=              0.5876

  Exact polarizability:  85.078   1.729  67.160  -5.428   4.642  73.582
 Approx polarizability: 116.595  -1.506 103.695 -14.306   8.439 116.383

                      1                      2                      3
                      A                      A                      A
 Frequencies --    115.8590               170.1019               194.8826
 Red. masses --      3.7436                 1.0540                 2.6779
 Frc consts  --      0.0296                 0.0180                 0.0599
 IR Inten    --      1.5943                 0.0108                 3.6617

                      4                      5                      6
                      A                      A                      A
 Frequencies --    256.8036               289.3549               312.5716
 Red. masses --      1.0670                 3.2554                 2.9852
 Frc consts  --      0.0415                 0.1606                 0.1718
 IR Inten    --     96.9747                 2.4553                 2.4479

                      7                      8                      9
                      A                      A                      A
 Frequencies --    430.9635               509.9811               528.3734
 Red. masses --      2.4339                 3.9508                 4.8600
 Frc consts  --      0.2663                 0.6054                 0.7994
 IR Inten    --      4.6569                 0.9807                 3.8213

                     10                     11                     12
                      A                      A                      A
 Frequencies --    588.7880               595.9493               751.6060
 Red. masses --      5.2546                 3.5577                 3.9202
 Frc consts  --      1.0733                 0.7445                 1.3048
 IR Inten    --     15.5135                 0.7107                 1.0106

                     13                     14                     15
                      A                      A                      A
 Frequencies --    799.1186               813.1508               845.0293
 Red. masses --      2.2956                 1.7783                 3.3184
 Frc consts  --      0.8637                 0.6928                 1.3961
 IR Inten    --     10.7600                 1.8127                21.7330

                     16                     17                     18
                      A                      A                      A
 Frequencies --    862.5711               900.2566               932.4219
 Red. masses --      2.8696                 2.9596                 2.6962
 Frc consts  --      1.2579                 1.4132                 1.3811
 IR Inten    --      2.1484                12.0966                25.6914

                     19                     20                     21
                      A                      A                      A
 Frequencies --    957.3443               991.4119              1012.3882
 Red. masses --      2.0179                 1.7774                 3.4947
 Frc consts  --      1.0897                 1.0293                 2.1103
 IR Inten    --      2.8363                 4.9694                43.5708

                     22                     23                     24
                      A                      A                      A
 Frequencies --   1037.8050              1056.2080              1063.3448
 Red. masses --      2.9953                 2.6606                 1.6977
 Frc consts  --      1.9008                 1.7488                 1.1310
 IR Inten    --      5.3039                 8.1198                 9.1438

                     25                     26                     27
                      A                      A                      A
 Frequencies --   1098.0900              1151.2281              1186.1857
 Red. masses --      1.8975                 1.4109                 1.6163
 Frc consts  --      1.3481                 1.1017                 1.3399
 IR Inten    --     47.3175                 7.1271                20.9141

                     28                     29                     30
                      A                      A                      A
 Frequencies --   1210.2374              1221.6084              1253.2540
 Red. masses --      1.7235                 1.2835                 1.2849
 Frc consts  --      1.4873                 1.1285                 1.1890
 IR Inten    --      2.6945                69.9849                 5.4776

                     31                     32                     33
                      A                      A                      A
 Frequencies --   1255.9301              1309.0404              1331.3319
 Red. masses --      1.3409                 1.4064                 1.8305
 Frc consts  --      1.2461                 1.4199                 1.9116
 IR Inten    --      0.3556                 9.9844                 9.1170

                     34                     35                     36
                      A                      A                      A
 Frequencies --   1340.1701              1348.7839              1413.8250
 Red. masses --      1.5841                 1.5353                 1.2847
 Frc consts  --      1.6763                 1.6456                 1.5131
 IR Inten    --     12.7873                 3.1599                 1.6459

                     37                     38                     39
                      A                      A                      A
 Frequencies --   1417.0223              1478.5950              1480.4349
 Red. masses --      1.3818                 1.0567                 1.0831
 Frc consts  --      1.6348                 1.3612                 1.3986
 IR Inten    --     10.1170                 4.1837                 2.9312

                     40                     41                     42
                      A                      A                      A
 Frequencies --   1487.0830              1701.8626              3014.3788
 Red. masses --      1.0598                 7.1547                 1.0389
 Frc consts  --      1.3809                12.2092                 5.5618
 IR Inten    --      7.3169                 7.0812                27.8885

                     43                     44                     45
                      A                      A                      A
 Frequencies --   3016.2083              3059.5027              3061.0154
 Red. masses --      1.0850                 1.0978                 1.0587
 Frc consts  --      5.8159                 6.0542                 5.8447
 IR Inten    --     49.5554                18.0044                28.5106

                     46                     47                     48
                      A                      A                      A
 Frequencies --   3110.7410              3111.4085              3116.3563
 Red. masses --      1.0986                 1.1000                 1.0967
 Frc consts  --      6.2637                 6.2742                 6.2751
 IR Inten    --     21.9093                13.1090                50.1028

                     49                     50                     51
                      A                      A                      A
 Frequencies --   3132.7579              3231.9810              3828.4289
 Red. masses --      1.0909                 1.0972                 1.0664
 Frc consts  --      6.3079                 6.7524                 9.2091
 IR Inten    --     31.7596                 5.7092                23.5871

 - Thermochemistry -
 -------------------
 Temperature   298.150 Kelvin.  Pressure   1.00000 Atm.
 Atom     1 has atomic number  6 and mass  12.00000

 Molecular mass:   126.06808 amu.
 Principal axes and moments of inertia in atomic units:
                           1         2         3
     Eigenvalues --   690.615741161.502151280.41528
           X            0.99909   0.04232  -0.00431
           Y           -0.04199   0.99737   0.05915
           Z            0.00681  -0.05891   0.99824
 This molecule is an asymmetric top.
 Rotational symmetry number  1.
 Warning -- assumption of classical behavior for rotation
           may cause significant error
 Rotational temperatures (Kelvin)      0.12542     0.07457     0.06765
 Rotational constants (GHZ):           2.61323     1.55380     1.40950
 Zero-point vibrational energy     420988.3 (Joules/Mol)
                                  100.61862 (Kcal/Mol)
 Warning -- explicit consideration of  11 degrees of freedom as
           vibrations may cause significant error
 Vibrational temperatures:    166.70   244.74   280.39   369.48   416.32
          (Kelvin)            449.72   620.06   733.75   760.21   847.13
                              857.44  1081.39  1149.75  1169.94  1215.81
                             1241.05  1295.27  1341.55  1377.40  1426.42
                             1456.60  1493.17  1519.65  1529.91  1579.90
                             1656.36  1706.65  1741.26  1757.62  1803.15
                             1807.00  1883.41  1915.49  1928.20  1940.60
                             2034.18  2038.78  2127.37  2130.01  2139.58
                             2448.60  4337.01  4339.65  4401.94  4404.11
                             4475.66  4476.62  4483.74  4507.33  4650.09
                             5508.25

 Zero-point correction=                           0.160346 (Hartree/Particle)
 Thermal correction to Energy=                    0.168283
 Thermal correction to Enthalpy=                  0.169227
 Thermal correction to Gibbs Free Energy=         0.128186
 Sum of electronic and zero-point Energies=           -423.026516
 Sum of electronic and thermal Energies=              -423.018579
 Sum of electronic and thermal Enthalpies=            -423.017635
 Sum of electronic and thermal Free Energies=         -423.058676

                     E (Thermal)             CV                S
                      KCal/Mol        Cal/Mol-Kelvin    Cal/Mol-Kelvin
 Total                  105.599             31.362             86.378
 Electronic               0.000              0.000              0.000
 Translational            0.889              2.981             40.409
 Rotational               0.889              2.981             28.420
 Vibrational            103.822             25.401             17.550
 Vibration     1          0.608              1.936              3.168
 Vibration     2          0.625              1.879              2.434
 Vibration     3          0.636              1.847              2.181
 Vibration     4          0.666              1.751              1.683
 Vibration     5          0.686              1.694              1.478
 Vibration     6          0.701              1.650              1.349
 Vibration     7          0.792              1.403              0.856
 Vibration     8          0.865              1.228              0.634
 Vibration     9          0.883              1.187              0.591
 Vibration    10          0.946              1.056              0.469
 Vibration    11          0.954              1.040              0.457

 Optimization completed.
    -- Stationary point found.
 Normal termination of Gaussian 09 at Tue Jan 28 04:13:35 2020.
