 Gaussian 09, Revision D.01,
 Gaussian 09:  ES64L-G09RevD.01 24-Apr-2013

 -----------------------------
 # b3lyp 6-31G(2df,p) opt Freq
 -----------------------------

 -----
 titel
 -----
 Symbolic Z-matrix:
 Charge =  0 Multiplicity = 1

 SCF Done:  E(RB3LYP) =  -423.182789065     A.U. after   14 cycles
 Optimization completed.
    -- Stationary point found.
 Normal termination of Gaussian 09 at Mon Jan 27 16:11:36 2020.

 ----------------------------------------------------------------------
 #N Geom=AllCheck Guess=TCheck SCRF=Check GenChk RB3LYP/6-31G(2df,p) Fr
 eq
 ----------------------------------------------------------------------

 Structure from the checkpoint file:  "/scratch/puck/g09_a7f0e612-1c7d-4415-9042-83c49df1d9d0/Gau-83385.chk"
 -----
 titel
 -----
 Charge =  0 Multiplicity = 1

                         Standard orientation:
 ---------------------------------------------------------------------
 Center     Atomic      Atomic             Coordinates (Angstroms)
 Number     Number       Type             X           Y           Z
 ---------------------------------------------------------------------
      1          6           0       -2.104040    1.280596   -0.497917
      2          6           0       -1.430038    0.000001   -0.057725
      3          6           0       -2.104048   -1.280591   -0.497916
      4          8           0       -0.972570   -0.000003    1.316557
      5          6           0       -0.001301   -0.000003    0.285793
      6          6           0        1.051974   -1.113710    0.130226
      7          6           0        2.083701    0.000000   -0.139902
      8          8           0        3.233404    0.000001   -0.466749
      9          6           0        1.051972    1.113707    0.130233
     10          1           0       -1.577836    2.155948   -0.111594
     11          1           0       -2.138322    1.345400   -1.590970
     12          1           0       -3.135189    1.312581   -0.129848
     13          1           0       -1.577838   -2.155947   -0.111610
     14          1           0       -3.135192   -1.312578   -0.129832
     15          1           0       -2.138348   -1.345385   -1.590970
     16          1           0        1.247246   -1.662926    1.057510
     17          1           0        0.916126   -1.832892   -0.682720
     18          1           0        1.247244    1.662913    1.057523
     19          1           0        0.916124    1.832897   -0.682706
 ---------------------------------------------------------------------

 SCF Done:  E(RB3LYP) =  -423.182789065     A.U. after    1 cycles

 The electronic state is 1-A.
 Alpha  occ. eigenvalues --  -19.15076 -19.14183 -10.27723 -10.24947 -10.24903
 Alpha  occ. eigenvalues --  -10.19718 -10.19717 -10.18813 -10.18813  -1.07454
 Alpha  occ. eigenvalues --   -1.05077  -0.84088  -0.77584  -0.71154  -0.68814
 Alpha  occ. eigenvalues --   -0.61623  -0.55253  -0.53542  -0.48405  -0.47637
 Alpha  occ. eigenvalues --   -0.47614  -0.45186  -0.42462  -0.42408  -0.41464
 Alpha  occ. eigenvalues --   -0.40445  -0.39690  -0.38089  -0.37092  -0.35094
 Alpha  occ. eigenvalues --   -0.34326  -0.28883  -0.27113  -0.24388
 Alpha virt. eigenvalues --   -0.02768   0.07802   0.08961   0.10848   0.11468
 Alpha virt. eigenvalues --    0.12369   0.14080   0.14896   0.15824   0.16413
 Alpha virt. eigenvalues --    0.17546   0.18104   0.18201   0.20014   0.20324

 Mulliken charges:
               1
     1  C   -0.455692
     2  C    0.284578
     3  C   -0.455691
     4  O   -0.323222
     5  C    0.384713
     6  C   -0.438207
     7  C    0.403099
     8  O   -0.287495
     9  C   -0.438206
    10  H    0.130604
    11  H    0.122031
    12  H    0.129272
    13  H    0.130604
    14  H    0.129272
    15  H    0.122030
    16  H    0.146232
    17  H    0.134922
    18  H    0.146232
    19  H    0.134922
 Sum of Mulliken charges =   0.00000

 Dipole moment (field-independent basis, Debye):
    X=             -2.4998    Y=              0.0000    Z=             -1.0017  Tot=              2.6930
 Quadrupole moment (field-independent basis, Debye-Ang):
   XX=            -63.0827   YY=            -50.1577   ZZ=            -54.5910
   XY=              0.0000   XZ=              5.3256   YZ=              0.0000

  Exact polarizability:  93.487   0.000  74.842   1.609   0.000  61.347
 Approx polarizability: 126.721   0.000 104.171  -2.790   0.000 100.491

                      1                      2                      3
                      A                      A                      A
 Frequencies --     47.4458               149.6507               176.1619
 Red. masses --      4.2736                 1.6944                 2.1091
 Frc consts  --      0.0057                 0.0224                 0.0386
 IR Inten    --      5.1266                 0.1449                 0.0063

                      4                      5                      6
                      A                      A                      A
 Frequencies --    180.6851               187.7968               263.8471
 Red. masses --      1.4861                 1.1791                 2.0164
 Frc consts  --      0.0286                 0.0245                 0.0827
 IR Inten    --      0.5607                 1.7341                 3.2090

                      7                      8                      9
                      A                      A                      A
 Frequencies --    349.1644               389.4310               415.2189
 Red. masses --      2.3209                 5.5099                 2.4877
 Frc consts  --      0.1667                 0.4923                 0.2527
 IR Inten    --      1.6055                 4.7834                 0.4254

                     10                     11                     12
                      A                      A                      A
 Frequencies --    442.6916               460.4609               520.7370
 Red. masses --      2.3452                 3.2246                 3.7584
 Frc consts  --      0.2708                 0.4028                 0.6005
 IR Inten    --      2.9704                 6.7579                 0.1389

                     13                     14                     15
                      A                      A                      A
 Frequencies --    529.5406               650.6799               686.1905
 Red. masses --      3.1085                 1.5040                 3.8884
 Frc consts  --      0.5136                 0.3752                 1.0787
 IR Inten    --      0.0848                 0.5125                 8.9559

                     16                     17                     18
                      A                      A                      A
 Frequencies --    719.9400               837.4734               914.7259
 Red. masses --      3.2988                 3.4964                 3.5316
 Frc consts  --      1.0074                 1.4448                 1.7410
 IR Inten    --      4.6353                15.7348                18.1470

                     19                     20                     21
                      A                      A                      A
 Frequencies --    946.5639               955.4462               965.6009
 Red. masses --      1.4551                 2.8163                 1.6868
 Frc consts  --      0.7681                 1.5147                 0.9266
 IR Inten    --      0.6031                 5.8555                 5.4287

                     22                     23                     24
                      A                      A                      A
 Frequencies --    987.8195              1020.8008              1075.7415
 Red. masses --      1.2233                 2.1849                 2.8648
 Frc consts  --      0.7033                 1.3414                 1.9533
 IR Inten    --      4.6413                18.4082                 4.8013

                     25                     26                     27
                      A                      A                      A
 Frequencies --   1124.0247              1150.7189              1162.0010
 Red. masses --      1.8066                 1.7803                 4.2457
 Frc consts  --      1.3448                 1.3889                 3.3776
 IR Inten    --     15.3693                20.9646                54.3305

                     28                     29                     30
                      A                      A                      A
 Frequencies --   1180.2001              1204.1577              1233.3528
 Red. masses --      1.6770                 1.6064                 1.8535
 Frc consts  --      1.3762                 1.3724                 1.6612
 IR Inten    --     15.9008                 7.4901                30.7076

                     31                     32                     33
                      A                      A                      A
 Frequencies --   1252.1216              1407.4152              1412.9429
 Red. masses --      3.3771                 1.3474                 1.0969
 Frc consts  --      3.1195                 1.5725                 1.2903
 IR Inten    --      4.7332                16.1075                15.5343

                     34                     35                     36
                      A                      A                      A
 Frequencies --   1417.1398              1426.3092              1469.1645
 Red. masses --      1.2300                 1.1443                 1.5291
 Frc consts  --      1.4553                 1.3716                 1.9446
 IR Inten    --      1.5812                 2.9429                 7.3937

                     37                     38                     39
                      A                      A                      A
 Frequencies --   1473.3222              1484.8239              1499.3420
 Red. masses --      1.0469                 1.0462                 1.0609
 Frc consts  --      1.3389                 1.3590                 1.4052
 IR Inten    --      0.0405                 2.4171                12.6616

                     40                     41                     42
                      A                      A                      A
 Frequencies --   1530.2416              1901.7368              3033.9951
 Red. masses --      2.1767                12.8233                 1.0368
 Frc consts  --      3.0032                27.3244                 5.6230
 IR Inten    --      8.3868               286.1623                11.3163

                     43                     44                     45
                      A                      A                      A
 Frequencies --   3039.0756              3050.8747              3055.8260
 Red. masses --      1.0370                 1.0580                 1.0600
 Frc consts  --      5.6432                 5.8020                 5.8317
 IR Inten    --     25.3295                 4.1238                 4.2961

                     46                     47                     48
                      A                      A                      A
 Frequencies --   3095.2397              3100.2921              3106.8306
 Red. masses --      1.1008                 1.1003                 1.1057
 Frc consts  --      6.2134                 6.2311                 6.2881
 IR Inten    --      0.0120                33.0782                 7.0820

                     49                     50                     51
                      A                      A                      A
 Frequencies --   3108.3807              3129.7816              3131.5338
 Red. masses --      1.1036                 1.1001                 1.1003
 Frc consts  --      6.2823                 6.3492                 6.3576
 IR Inten    --      1.4402                11.0694                23.1149

 - Thermochemistry -
 -------------------
 Temperature   298.150 Kelvin.  Pressure   1.00000 Atm.
 Atom     1 has atomic number  6 and mass  12.00000

 Molecular mass:   126.06808 amu.
 Principal axes and moments of inertia in atomic units:
                           1         2         3
     Eigenvalues --   517.221841703.767581886.20302
           X            0.99969   0.00000   0.02474
           Y            0.00000   1.00000   0.00000
           Z           -0.02474   0.00000   0.99969
 This molecule is an asymmetric top.
 Rotational symmetry number  1.
 Warning -- assumption of classical behavior for rotation
           may cause significant error
 Rotational temperatures (Kelvin)      0.16746     0.05084     0.04592
 Rotational constants (GHZ):           3.48930     1.05926     0.95681
 Zero-point vibrational energy     407057.3 (Joules/Mol)
                                   97.28902 (Kcal/Mol)
 Warning -- explicit consideration of  13 degrees of freedom as
           vibrations may cause significant error
 Vibrational temperatures:     68.26   215.31   253.46   259.97   270.20
          (Kelvin)            379.62   502.37   560.30   597.41   636.93
                              662.50   749.22   761.89   936.18   987.27
                             1035.83  1204.94  1316.08  1361.89  1374.67
                             1389.28  1421.25  1468.70  1547.75  1617.22
                             1655.63  1671.86  1698.04  1732.51  1774.52
                             1801.52  2024.95  2032.91  2038.95  2052.14
                             2113.80  2119.78  2136.33  2157.22  2201.67
                             2736.17  4365.24  4372.55  4389.52  4396.65
                             4453.35  4460.62  4470.03  4472.26  4503.05
                             4505.57

 Zero-point correction=                           0.155040 (Hartree/Particle)
 Thermal correction to Energy=                    0.164397
 Thermal correction to Enthalpy=                  0.165341
 Thermal correction to Gibbs Free Energy=         0.120841
 Sum of electronic and zero-point Energies=           -423.027749
 Sum of electronic and thermal Energies=              -423.018392
 Sum of electronic and thermal Enthalpies=            -423.017448
 Sum of electronic and thermal Free Energies=         -423.061948

                     E (Thermal)             CV                S
                      KCal/Mol        Cal/Mol-Kelvin    Cal/Mol-Kelvin
 Total                  103.160             35.079             93.657
 Electronic               0.000              0.000              0.000
 Translational            0.889              2.981             40.409
 Rotational               0.889              2.981             28.898
 Vibrational            101.383             29.117             24.350
 Vibration     1          0.595              1.979              4.921
 Vibration     2          0.618              1.903              2.677
 Vibration     3          0.628              1.872              2.369
 Vibration     4          0.630              1.866              2.321
 Vibration     5          0.632              1.857              2.249
 Vibration     6          0.670              1.739              1.636
 Vibration     7          0.726              1.577              1.170
 Vibration     8          0.757              1.493              1.002
 Vibration     9          0.779              1.437              0.908
 Vibration    10          0.802              1.377              0.818
 Vibration    11          0.818              1.338              0.765
 Vibration    12          0.876              1.204              0.608
 Vibration    13          0.884              1.185              0.588

 Optimization completed.
    -- Stationary point found.
 Normal termination of Gaussian 09 at Mon Jan 27 16:52:30 2020.
