 Gaussian 09, Revision D.01,
 Gaussian 09:  ES64L-G09RevD.01 24-Apr-2013

 -----------------------------
 # b3lyp 6-31G(2df,p) opt Freq
 -----------------------------

 -----
 titel
 -----
 Symbolic Z-matrix:
 Charge =  0 Multiplicity = 1

 SCF Done:  E(RB3LYP) =  -423.151440648     A.U. after   14 cycles
 Optimization completed.
    -- Stationary point found.
 Normal termination of Gaussian 09 at Mon Jan 27 16:24:35 2020.

 ----------------------------------------------------------------------
 #N Geom=AllCheck Guess=TCheck SCRF=Check GenChk RB3LYP/6-31G(2df,p) Fr
 eq
 ----------------------------------------------------------------------

 Structure from the checkpoint file:  "/scratch/puck/g09_2e9755c9-99e4-435f-8f0a-7bd525211206/Gau-47346.chk"
 -----
 titel
 -----
 Charge =  0 Multiplicity = 1

                         Standard orientation:
 ---------------------------------------------------------------------
 Center     Atomic      Atomic             Coordinates (Angstroms)
 Number     Number       Type             X           Y           Z
 ---------------------------------------------------------------------
      1          6           0       -0.046804    1.186299    1.374543
      2          6           0       -0.412961    0.735914   -0.038908
      3          8           0       -0.309818    1.801688   -0.966839
      4          6           0       -1.834683    0.144098   -0.115352
      5          6           0       -1.628739   -1.377806    0.066775
      6          8           0       -0.216580   -1.605701    0.152619
      7          6           0        0.413394   -0.510442   -0.494002
      8          6           0        1.834746   -0.467897   -0.188267
      9          6           0        3.013218   -0.376857    0.029924
     10          1           0       -0.125720    0.353648    2.079272
     11          1           0        0.983295    1.555005    1.413284
     12          1           0       -0.719721    1.987093    1.693528
     13          1           0        0.566265    2.191627   -0.869037
     14          1           0       -2.495086    0.572168    0.641649
     15          1           0       -2.251425    0.378208   -1.097579
     16          1           0       -2.074672   -1.767851    0.985770
     17          1           0       -2.047314   -1.939674   -0.779483
     18          1           0        0.291203   -0.578721   -1.589262
     19          1           0        4.055327   -0.319251    0.227331
 ---------------------------------------------------------------------

 SCF Done:  E(RB3LYP) =  -423.151440648     A.U. after    1 cycles

 The electronic state is 1-A.
 Alpha  occ. eigenvalues --  -19.14329 -19.14177 -10.24998 -10.24599 -10.23096
 Alpha  occ. eigenvalues --  -10.18734 -10.18569 -10.18250 -10.17664  -1.04573
 Alpha  occ. eigenvalues --   -1.02310  -0.79193  -0.77765  -0.72513  -0.69510
 Alpha  occ. eigenvalues --   -0.61963  -0.58166  -0.53775  -0.51983  -0.50028
 Alpha  occ. eigenvalues --   -0.46316  -0.44973  -0.44637  -0.42096  -0.40508
 Alpha  occ. eigenvalues --   -0.37872  -0.36707  -0.35608  -0.33783  -0.31846
 Alpha  occ. eigenvalues --   -0.28820  -0.27876  -0.27414  -0.24607
 Alpha virt. eigenvalues --    0.02762   0.04661   0.07925   0.09581   0.11494
 Alpha virt. eigenvalues --    0.12246   0.13746   0.14549   0.15464   0.16490
 Alpha virt. eigenvalues --    0.16687   0.18029   0.20038   0.21590   0.23238

 Mulliken charges:
               1
     1  C   -0.441655
     2  C    0.368082
     3  O   -0.475797
     4  C   -0.284525
     5  C   -0.077035
     6  O   -0.261128
     7  C   -0.084241
     8  C    0.285779
     9  C   -0.427722
    10  H    0.133668
    11  H    0.119189
    12  H    0.119949
    13  H    0.281878
    14  H    0.110201
    15  H    0.121625
    16  H    0.112600
    17  H    0.101660
    18  H    0.098054
    19  H    0.199419
 Sum of Mulliken charges =   0.00000

 Dipole moment (field-independent basis, Debye):
    X=              0.0235    Y=              0.9420    Z=              0.4418  Tot=              1.0407
 Quadrupole moment (field-independent basis, Debye-Ang):
   XX=            -45.4677   YY=            -56.4559   ZZ=            -53.9593
   XY=              4.6275   XZ=             -0.7943   YZ=              2.0823

  Exact polarizability:  99.915   3.602  67.044   2.082   1.208  63.123
 Approx polarizability: 145.458   5.234  95.067   6.857  -1.684  94.271

                      1                      2                      3
                      A                      A                      A
 Frequencies --     44.2220               108.1053               138.9039
 Red. masses --      1.9546                 3.8303                 3.9720
 Frc consts  --      0.0023                 0.0264                 0.0452
 IR Inten    --      0.7103                 2.9495                 0.1605

                      4                      5                      6
                      A                      A                      A
 Frequencies --    219.5712               257.0890               291.5484
 Red. masses --      2.7348                 1.2603                 1.6861
 Frc consts  --      0.0777                 0.0491                 0.0844
 IR Inten    --      1.3416                 0.7376                32.3072

                      7                      8                      9
                      A                      A                      A
 Frequencies --    324.7069               340.5988               383.8125
 Red. masses --      1.8654                 2.0684                 3.7962
 Frc consts  --      0.1159                 0.1414                 0.3295
 IR Inten    --     44.9202                31.6127                 5.0812

                     10                     11                     12
                      A                      A                      A
 Frequencies --    431.1349               505.8962               555.2625
 Red. masses --      3.9036                 5.3184                 4.5127
 Frc consts  --      0.4275                 0.8020                 0.8198
 IR Inten    --     13.9588                 1.2108                 3.6592

                     13                     14                     15
                      A                      A                      A
 Frequencies --    605.8249               618.6511               675.5409
 Red. masses --      4.6458                 1.2908                 1.3374
 Frc consts  --      1.0046                 0.2911                 0.3596
 IR Inten    --      0.9311                44.5410                33.1802

                     16                     17                     18
                      A                      A                      A
 Frequencies --    686.6702               777.0516               813.7591
 Red. masses --      4.0390                 3.4911                 1.2844
 Frc consts  --      1.1221                 1.2420                 0.5011
 IR Inten    --      6.3475                 2.0679                 1.6801

                     19                     20                     21
                      A                      A                      A
 Frequencies --    931.8800               960.6318               972.3880
 Red. masses --      2.8819                 1.9932                 2.6359
 Frc consts  --      1.4745                 1.0837                 1.4685
 IR Inten    --      6.1384                12.0028                 1.7509

                     22                     23                     24
                      A                      A                      A
 Frequencies --    998.8967              1014.8396              1040.9915
 Red. masses --      1.7215                 3.5298                 3.1064
 Frc consts  --      1.0120                 2.1419                 1.9834
 IR Inten    --     12.0987                21.7142                33.0526

                     25                     26                     27
                      A                      A                      A
 Frequencies --   1106.3799              1115.9557              1175.9206
 Red. masses --      3.6537                 1.9147                 2.4230
 Frc consts  --      2.6351                 1.4049                 1.9741
 IR Inten    --     78.2164                73.5558                71.4205

                     28                     29                     30
                      A                      A                      A
 Frequencies --   1189.0610              1238.4210              1257.4162
 Red. masses --      2.0141                 1.2464                 1.2602
 Frc consts  --      1.6778                 1.1263                 1.1740
 IR Inten    --     14.2783                 2.5065                 5.8489

                     31                     32                     33
                      A                      A                      A
 Frequencies --   1293.8412              1325.3903              1354.4213
 Red. masses --      1.4584                 1.5517                 1.3787
 Frc consts  --      1.4384                 1.6060                 1.4901
 IR Inten    --     10.7836                20.6356                37.4330

                     34                     35                     36
                      A                      A                      A
 Frequencies --   1377.4495              1403.4711              1409.8111
 Red. masses --      1.3267                 1.3864                 1.4803
 Frc consts  --      1.4831                 1.6090                 1.7335
 IR Inten    --     15.8693                 7.5276                22.8986

                     37                     38                     39
                      A                      A                      A
 Frequencies --   1484.9676              1496.4971              1499.4451
 Red. masses --      1.0625                 1.0563                 1.0894
 Frc consts  --      1.3804                 1.3938                 1.4432
 IR Inten    --      2.7873                 5.6076                 2.7436

                     40                     41                     42
                      A                      A                      A
 Frequencies --   1527.1351              2238.2065              2949.6026
 Red. masses --      1.0942                 5.9319                 1.0806
 Frc consts  --      1.5034                17.5084                 5.5391
 IR Inten    --      0.1582                 0.9151                32.4071

                     43                     44                     45
                      A                      A                      A
 Frequencies --   3007.3920              3039.4908              3073.7881
 Red. masses --      1.0697                 1.0349                 1.0603
 Frc consts  --      5.7001                 5.6332                 5.9025
 IR Inten    --     72.2069                12.4238                17.6770

                     46                     47                     48
                      A                      A                      A
 Frequencies --   3081.5845              3110.5585              3123.0494
 Red. masses --      1.0952                 1.1011                 1.1051
 Frc consts  --      6.1275                 6.2771                 6.3505
 IR Inten    --     23.3189                16.5238                20.5395

                     49                     50                     51
                      A                      A                      A
 Frequencies --   3123.5606              3501.9025              3798.8961
 Red. masses --      1.1033                 1.1625                 1.0658
 Frc consts  --      6.3423                 8.3996                 9.0623
 IR Inten    --     19.6156                67.0282                15.2205

 - Thermochemistry -
 -------------------
 Temperature   298.150 Kelvin.  Pressure   1.00000 Atm.
 Atom     1 has atomic number  6 and mass  12.00000

 Molecular mass:   126.06808 amu.
 Principal axes and moments of inertia in atomic units:
                           1         2         3
     Eigenvalues --   797.581781156.013811545.43121
           X            0.99872   0.05050   0.00214
           Y           -0.05055   0.99768   0.04556
           Z            0.00017  -0.04561   0.99896
 This molecule is an asymmetric top.
 Rotational symmetry number  1.
 Warning -- assumption of classical behavior for rotation
           may cause significant error
 Rotational temperatures (Kelvin)      0.10860     0.07492     0.05605
 Rotational constants (GHZ):           2.26277     1.56118     1.16779
 Zero-point vibrational energy     412721.2 (Joules/Mol)
                                   98.64273 (Kcal/Mol)
 Warning -- explicit consideration of  14 degrees of freedom as
           vibrations may cause significant error
 Vibrational temperatures:     63.63   155.54   199.85   315.91   369.89
          (Kelvin)            419.47   467.18   490.05   552.22   620.31
                              727.87   798.90   871.65   890.10   971.95
                              987.96  1118.00  1170.82  1340.77  1382.13
                             1399.05  1437.19  1460.13  1497.75  1591.83
                             1605.61  1691.89  1710.79  1781.81  1809.14
                             1861.55  1906.94  1948.71  1981.84  2019.28
                             2028.40  2136.53  2153.12  2157.36  2197.20
                             3220.28  4243.81  4326.96  4373.14  4422.49
                             4433.71  4475.39  4493.37  4494.10  5038.45
                             5465.76

 Zero-point correction=                           0.157197 (Hartree/Particle)
 Thermal correction to Energy=                    0.166598
 Thermal correction to Enthalpy=                  0.167542
 Thermal correction to Gibbs Free Energy=         0.122885
 Sum of electronic and zero-point Energies=           -422.994243
 Sum of electronic and thermal Energies=              -422.984843
 Sum of electronic and thermal Enthalpies=            -422.983899
 Sum of electronic and thermal Free Energies=         -423.028556

                     E (Thermal)             CV                S
                      KCal/Mol        Cal/Mol-Kelvin    Cal/Mol-Kelvin
 Total                  104.542             35.328             93.988
 Electronic               0.000              0.000              0.000
 Translational            0.889              2.981             40.409
 Rotational               0.889              2.981             28.745
 Vibrational            102.764             29.367             24.834
 Vibration     1          0.595              1.980              5.060
 Vibration     2          0.606              1.943              3.303
 Vibration     3          0.615              1.914              2.819
 Vibration     4          0.647              1.811              1.963
 Vibration     5          0.667              1.751              1.681
 Vibration     6          0.687              1.689              1.465
 Vibration     7          0.709              1.626              1.286
 Vibration     8          0.720              1.594              1.209
 Vibration     9          0.753              1.505              1.024
 Vibration    10          0.792              1.402              0.855
 Vibration    11          0.861              1.237              0.644
 Vibration    12          0.911              1.128              0.533
 Vibration    13          0.964              1.019              0.440
 Vibration    14          0.979              0.993              0.419

 Optimization completed.
    -- Stationary point found.
 Normal termination of Gaussian 09 at Mon Jan 27 17:07:31 2020.
