 Gaussian 09, Revision D.01,
 Gaussian 09:  ES64L-G09RevD.01 24-Apr-2013

 -----------------------------
 # b3lyp 6-31G(2df,p) opt Freq
 -----------------------------

 -----
 titel
 -----
 Symbolic Z-matrix:
 Charge =  0 Multiplicity = 1

 SCF Done:  E(RB3LYP) =  -423.146956831     A.U. after   12 cycles
 Optimization completed.
    -- Stationary point found.
 Normal termination of Gaussian 09 at Mon Jan 27 22:06:30 2020.

 ----------------------------------------------------------------------
 #N Geom=AllCheck Guess=TCheck SCRF=Check GenChk RB3LYP/6-31G(2df,p) Fr
 eq
 ----------------------------------------------------------------------

 Structure from the checkpoint file:  "/scratch/puck/g09_9f015c47-d016-475d-85b5-3f2ad8e186e8/Gau-85635.chk"
 -----
 titel
 -----
 Charge =  0 Multiplicity = 1

                         Standard orientation:
 ---------------------------------------------------------------------
 Center     Atomic      Atomic             Coordinates (Angstroms)
 Number     Number       Type             X           Y           Z
 ---------------------------------------------------------------------
      1          6           0        1.660039    1.573770    0.248571
      2          6           0        0.577407    0.578040   -0.053783
      3          8           0       -0.562894    1.140948   -0.683053
      4          6           0       -1.749140    0.648030   -0.105873
      5          6           0       -2.182025   -0.757262   -0.431500
      6          6           0       -1.412550   -0.471567    0.846293
      7          6           0        0.096828   -0.535554    0.858073
      8          6           0        0.868994   -0.870188   -0.396551
      9          8           0        2.151992   -1.377193   -0.159099
     10          1           0        1.957435    2.106609   -0.661477
     11          1           0        1.318609    2.316354    0.976650
     12          1           0        2.536864    1.062676    0.652693
     13          1           0       -2.481876    1.423887    0.089368
     14          1           0       -3.238176   -0.980294   -0.318009
     15          1           0       -1.703687   -1.282741   -1.248948
     16          1           0       -1.919389   -0.587149    1.796439
     17          1           0        0.599679   -0.735660    1.796893
     18          1           0        0.345086   -1.311428   -1.242744
     19          1           0        2.715355   -1.113916   -0.895027
 ---------------------------------------------------------------------

 SCF Done:  E(RB3LYP) =  -423.146956831     A.U. after    1 cycles

 The electronic state is 1-A.
 Alpha  occ. eigenvalues --  -19.14722 -19.14399 -10.23236 -10.23137 -10.23085
 Alpha  occ. eigenvalues --  -10.19521 -10.18939 -10.18457 -10.17645  -1.04935
 Alpha  occ. eigenvalues --   -1.02754  -0.85093  -0.83192  -0.71718  -0.64150
 Alpha  occ. eigenvalues --   -0.61309  -0.56336  -0.55767  -0.53041  -0.49823
 Alpha  occ. eigenvalues --   -0.46526  -0.44279  -0.43453  -0.41213  -0.39735
 Alpha  occ. eigenvalues --   -0.38704  -0.37490  -0.36843  -0.35063  -0.31380
 Alpha  occ. eigenvalues --   -0.30136  -0.27364  -0.24870  -0.22364
 Alpha virt. eigenvalues --    0.07250   0.08384   0.09975   0.12179   0.13413
 Alpha virt. eigenvalues --    0.13921   0.15101   0.15975   0.16901   0.17538
 Alpha virt. eigenvalues --    0.18719   0.19586   0.20231   0.21598   0.22452

 Mulliken charges:
               1
     1  C   -0.476404
     2  C    0.374181
     3  O   -0.296679
     4  C    0.089854
     5  C   -0.328777
     6  C   -0.072920
     7  C   -0.148439
     8  C    0.005563
     9  O   -0.424441
    10  H    0.123416
    11  H    0.122742
    12  H    0.129229
    13  H    0.097165
    14  H    0.111236
    15  H    0.121445
    16  H    0.093445
    17  H    0.101477
    18  H    0.088339
    19  H    0.289568
 Sum of Mulliken charges =   0.00000

 Dipole moment (field-independent basis, Debye):
    X=             -0.0724    Y=              0.0675    Z=              0.0309  Tot=              0.1037
 Quadrupole moment (field-independent basis, Debye-Ang):
   XX=            -47.8158   YY=            -56.8093   ZZ=            -51.3472
   XY=              2.0510   XZ=             -4.3785   YZ=              3.0203

  Exact polarizability:  88.331   2.778  70.379  -1.001   1.437  64.400
 Approx polarizability: 115.451   0.114 105.575  -1.346  -2.187 102.625

                      1                      2                      3
                      A                      A                      A
 Frequencies --    171.0185               195.7712               200.3040
 Red. masses --      3.3045                 1.5861                 1.6671
 Frc consts  --      0.0569                 0.0358                 0.0394
 IR Inten    --      3.7912                 2.2836                 0.4969

                      4                      5                      6
                      A                      A                      A
 Frequencies --    249.7197               304.8646               311.2702
 Red. masses --      2.6396                 2.9454                 1.5020
 Frc consts  --      0.0970                 0.1613                 0.0857
 IR Inten    --      2.8813                 6.5784                75.7716

                      7                      8                      9
                      A                      A                      A
 Frequencies --    356.7994               396.7111               459.7968
 Red. masses --      2.1849                 2.7441                 3.7538
 Frc consts  --      0.1639                 0.2544                 0.4676
 IR Inten    --     19.2665                26.5395                 1.3201

                     10                     11                     12
                      A                      A                      A
 Frequencies --    520.5985               658.9353               709.9057
 Red. masses --      2.9762                 3.3978                 2.8599
 Frc consts  --      0.4753                 0.8692                 0.8492
 IR Inten    --      0.7239                 0.6696                 5.0839

                     13                     14                     15
                      A                      A                      A
 Frequencies --    731.2723               788.5940               795.8748
 Red. masses --      5.5829                 1.6224                 2.5299
 Frc consts  --      1.7590                 0.5944                 0.9441
 IR Inten    --      8.7888                 8.9870                 6.5870

                     16                     17                     18
                      A                      A                      A
 Frequencies --    864.7080               901.8552               948.8290
 Red. masses --      3.2859                 2.6789                 2.0163
 Frc consts  --      1.4476                 1.2838                 1.0695
 IR Inten    --      4.7619                 5.4755                11.1886

                     19                     20                     21
                      A                      A                      A
 Frequencies --    961.6109               984.4873               988.1481
 Red. masses --      1.7192                 2.2997                 1.7683
 Frc consts  --      0.9366                 1.3133                 1.0173
 IR Inten    --     24.8779                 1.4075                 9.7243

                     22                     23                     24
                      A                      A                      A
 Frequencies --   1018.2888              1032.0478              1081.2000
 Red. masses --      1.4258                 1.2791                 1.5620
 Frc consts  --      0.8710                 0.8027                 1.0758
 IR Inten    --     18.2764                 4.5919                12.9626

                     25                     26                     27
                      A                      A                      A
 Frequencies --   1092.5214              1096.1616              1121.3318
 Red. masses --      1.6048                 1.4389                 1.9217
 Frc consts  --      1.1285                 1.0186                 1.4236
 IR Inten    --     16.7981                 2.0890                50.7977

                     28                     29                     30
                      A                      A                      A
 Frequencies --   1146.7558              1153.8268              1199.1152
 Red. masses --      2.5092                 3.4564                 1.7722
 Frc consts  --      1.9441                 2.7112                 1.5013
 IR Inten    --     17.9945               113.9347                20.6468

                     31                     32                     33
                      A                      A                      A
 Frequencies --   1212.0976              1259.6844              1288.4091
 Red. masses --      2.2161                 1.6591                 1.3092
 Frc consts  --      1.9183                 1.5511                 1.2804
 IR Inten    --     10.4650                 3.1193                32.9158

                     34                     35                     36
                      A                      A                      A
 Frequencies --   1336.7447              1349.8538              1375.3607
 Red. masses --      1.5706                 1.9261                 1.6394
 Frc consts  --      1.6536                 2.0678                 1.8272
 IR Inten    --      2.3269                26.4994                 9.3017

                     37                     38                     39
                      A                      A                      A
 Frequencies --   1411.2515              1451.7031              1476.2527
 Red. masses --      1.4138                 2.4918                 1.2374
 Frc consts  --      1.6590                 3.0940                 1.5889
 IR Inten    --      8.1456                 5.0429                 7.9038

                     40                     41                     42
                      A                      A                      A
 Frequencies --   1487.1305              1500.9149              3035.2802
 Red. masses --      1.0475                 1.0965                 1.0367
 Frc consts  --      1.3649                 1.4554                 5.6272
 IR Inten    --      2.9855                 2.8081                29.7979

                     43                     44                     45
                      A                      A                      A
 Frequencies --   3095.7703              3111.7250              3129.7150
 Red. masses --      1.1009                 1.0862                 1.0994
 Frc consts  --      6.2164                 6.1965                 6.3446
 IR Inten    --     18.5056                19.3369                10.5581

                     46                     47                     48
                      A                      A                      A
 Frequencies --   3135.7841              3162.8332              3179.5153
 Red. masses --      1.0564                 1.0907                 1.0899
 Frc consts  --      6.1204                 6.4283                 6.4916
 IR Inten    --     19.4964                24.4488                 7.1128

                     49                     50                     51
                      A                      A                      A
 Frequencies --   3191.1686              3223.5886              3798.9046
 Red. masses --      1.0931                 1.1140                 1.0661
 Frc consts  --      6.5583                 6.8206                 9.0653
 IR Inten    --      9.6031                10.6632                23.5953

 - Thermochemistry -
 -------------------
 Temperature   298.150 Kelvin.  Pressure   1.00000 Atm.
 Atom     1 has atomic number  6 and mass  12.00000

 Molecular mass:   126.06808 amu.
 Principal axes and moments of inertia in atomic units:
                           1         2         3
     Eigenvalues --   620.539771177.200361493.90089
           X            0.99838   0.05680  -0.00107
           Y           -0.05671   0.99747   0.04284
           Z            0.00350  -0.04272   0.99908
 This molecule is an asymmetric top.
 Rotational symmetry number  1.
 Warning -- assumption of classical behavior for rotation
           may cause significant error
 Rotational temperatures (Kelvin)      0.13958     0.07358     0.05798
 Rotational constants (GHZ):           2.90834     1.53308     1.20807
 Zero-point vibrational energy     416635.5 (Joules/Mol)
                                   99.57827 (Kcal/Mol)
 Warning -- explicit consideration of  10 degrees of freedom as
           vibrations may cause significant error
 Vibrational temperatures:    246.06   281.67   288.19   359.29   438.63
          (Kelvin)            447.85   513.35   570.78   661.54   749.02
                              948.06  1021.39  1052.14  1134.61  1145.08
                             1244.12  1297.57  1365.15  1383.54  1416.46
                             1421.72  1465.09  1484.88  1555.60  1571.89
                             1577.13  1613.34  1649.92  1660.10  1725.26
                             1743.94  1812.40  1853.73  1923.28  1942.14
                             1978.83  2030.47  2088.67  2124.00  2139.65
                             2159.48  4367.09  4454.12  4477.07  4502.96
                             4511.69  4550.61  4574.61  4591.37  4638.02
                             5465.77

 Zero-point correction=                           0.158688 (Hartree/Particle)
 Thermal correction to Energy=                    0.166798
 Thermal correction to Enthalpy=                  0.167742
 Thermal correction to Gibbs Free Energy=         0.126666
 Sum of electronic and zero-point Energies=           -422.988269
 Sum of electronic and thermal Energies=              -422.980159
 Sum of electronic and thermal Enthalpies=            -422.979215
 Sum of electronic and thermal Free Energies=         -423.020291

                     E (Thermal)             CV                S
                      KCal/Mol        Cal/Mol-Kelvin    Cal/Mol-Kelvin
 Total                  104.667             32.527             86.452
 Electronic               0.000              0.000              0.000
 Translational            0.889              2.981             40.409
 Rotational               0.889              2.981             28.480
 Vibrational            102.890             26.565             17.563
 Vibration     1          0.626              1.878              2.424
 Vibration     2          0.636              1.846              2.172
 Vibration     3          0.638              1.839              2.130
 Vibration     4          0.663              1.763              1.733
 Vibration     5          0.696              1.664              1.390
 Vibration     6          0.700              1.652              1.356
 Vibration     7          0.732              1.561              1.136
 Vibration     8          0.763              1.477              0.975
 Vibration     9          0.818              1.339              0.767
 Vibration    10          0.876              1.204              0.609

 Normal termination of Gaussian 09 at Mon Jan 27 23:06:26 2020.
