 Gaussian 09, Revision D.01,
 Gaussian 09:  ES64L-G09RevD.01 24-Apr-2013

 -----------------------------
 # b3lyp 6-31G(2df,p) opt Freq
 -----------------------------

 -----
 titel
 -----
 Symbolic Z-matrix:
 Charge =  0 Multiplicity = 1

 SCF Done:  E(RB3LYP) =  -423.211882191     A.U. after   14 cycles
 Optimization completed.
    -- Stationary point found.
 Normal termination of Gaussian 09 at Mon Jan 27 22:03:26 2020.

 ----------------------------------------------------------------------
 #N Geom=AllCheck Guess=TCheck SCRF=Check GenChk RB3LYP/6-31G(2df,p) Fr
 eq
 ----------------------------------------------------------------------

 Structure from the checkpoint file:  "/scratch/puck/g09_2f632424-1c3b-4061-987d-473a0a9b1a0e/Gau-53254.chk"
 -----
 titel
 -----
 Charge =  0 Multiplicity = 1

                         Standard orientation:
 ---------------------------------------------------------------------
 Center     Atomic      Atomic             Coordinates (Angstroms)
 Number     Number       Type             X           Y           Z
 ---------------------------------------------------------------------
      1          6           0        2.644985   -1.036137    0.084465
      2          6           0        1.273019   -0.414747   -0.009314
      3          6           0        0.183251   -1.201746   -0.021597
      4          6           0       -1.267925   -0.905674   -0.041455
      5          8           0       -2.045637   -1.843357   -0.011626
      6          6           0       -1.823586    0.511824   -0.100674
      7          6           0       -0.929579    1.626166    0.425428
      8          8           0        0.196362    1.811925   -0.415478
      9          6           0        1.340391    1.094342   -0.046110
     10          1           0        3.211117   -0.613237    0.923993
     11          1           0        2.590386   -2.117745    0.218090
     12          1           0        3.229323   -0.827641   -0.820628
     13          1           0        0.341555   -2.277071    0.021935
     14          1           0       -2.043969    0.726891   -1.154420
     15          1           0       -2.784118    0.496929    0.424129
     16          1           0       -1.482307    2.571589    0.417866
     17          1           0       -0.613965    1.435598    1.462316
     18          1           0        2.115813    1.385544   -0.765865
     19          1           0        1.707025    1.426432    0.944958
 ---------------------------------------------------------------------

 SCF Done:  E(RB3LYP) =  -423.211882191     A.U. after    1 cycles

 The electronic state is 1-A.
 Alpha  occ. eigenvalues --  -19.15087 -19.11579 -10.26217 -10.24789 -10.23853
 Alpha  occ. eigenvalues --  -10.21991 -10.19806 -10.18753 -10.18752  -1.04788
 Alpha  occ. eigenvalues --   -1.02614  -0.82612  -0.78437  -0.71373  -0.69862
 Alpha  occ. eigenvalues --   -0.63921  -0.57725  -0.53245  -0.50995  -0.48426
 Alpha  occ. eigenvalues --   -0.46978  -0.43716  -0.43276  -0.42460  -0.41867
 Alpha  occ. eigenvalues --   -0.40773  -0.38929  -0.38187  -0.35834  -0.35005
 Alpha  occ. eigenvalues --   -0.32442  -0.26843  -0.26144  -0.23781
 Alpha virt. eigenvalues --   -0.04908   0.06740   0.07935   0.09817   0.11187
 Alpha virt. eigenvalues --    0.12666   0.14218   0.14972   0.15538   0.15974
 Alpha virt. eigenvalues --    0.16677   0.18382   0.19099   0.21233   0.22713

 Mulliken charges:
               1
     1  C   -0.463415
     2  C    0.262685
     3  C   -0.231346
     4  C    0.353494
     5  O   -0.329376
     6  C   -0.297344
     7  C   -0.111209
     8  O   -0.237130
     9  C   -0.156209
    10  H    0.133598
    11  H    0.138147
    12  H    0.137849
    13  H    0.097280
    14  H    0.137844
    15  H    0.122689
    16  H    0.114199
    17  H    0.097900
    18  H    0.124443
    19  H    0.105901
 Sum of Mulliken charges =   0.00000

 Dipole moment (field-independent basis, Debye):
    X=              2.7403    Y=              1.7419    Z=              0.8017  Tot=              3.3446
 Quadrupole moment (field-independent basis, Debye-Ang):
   XX=            -52.0445   YY=            -58.8826   ZZ=            -52.8368
   XY=             -7.6329   XZ=             -0.0987   YZ=              1.7050

  Exact polarizability: 106.971   5.723  82.374   0.177   0.835  54.946
 Approx polarizability: 158.208  26.814 123.633  -0.049  -1.078  87.627

                      1                      2                      3
                      A                      A                      A
 Frequencies --     54.5473               131.5127               152.4129
 Red. masses --      3.3691                 1.3619                 2.0620
 Frc consts  --      0.0059                 0.0139                 0.0282
 IR Inten    --      3.9708                 0.0078                 3.4429

                      4                      5                      6
                      A                      A                      A
 Frequencies --    197.9928               278.7015               304.0005
 Red. masses --      2.0769                 4.3800                 3.1486
 Frc consts  --      0.0480                 0.2004                 0.1714
 IR Inten    --      0.0971                 1.5889                 1.8628

                      7                      8                      9
                      A                      A                      A
 Frequencies --    349.6022               422.6698               450.5965
 Red. masses --      3.5168                 2.6691                 2.3008
 Frc consts  --      0.2532                 0.2809                 0.2752
 IR Inten    --      0.8279                 4.6113                 3.3859

                     10                     11                     12
                      A                      A                      A
 Frequencies --    493.1039               513.9376               581.7713
 Red. masses --      4.3701                 2.3162                 4.2338
 Frc consts  --      0.6261                 0.3604                 0.8443
 IR Inten    --     11.5570                 6.2010                 2.4733

                     13                     14                     15
                      A                      A                      A
 Frequencies --    660.8973               775.9801               854.9499
 Red. masses --      3.2078                 3.0420                 2.3972
 Frc consts  --      0.8255                 1.0792                 1.0324
 IR Inten    --      6.8614                 1.0420                 5.3857

                     16                     17                     18
                      A                      A                      A
 Frequencies --    877.0258               916.2281               954.6851
 Red. masses --      2.2466                 1.8793                 2.1339
 Frc consts  --      1.0181                 0.9295                 1.1459
 IR Inten    --      1.0853                 4.4615                21.9394

                     19                     20                     21
                      A                      A                      A
 Frequencies --    994.6984              1032.0768              1036.9403
 Red. masses --      1.4949                 2.1922                 1.9885
 Frc consts  --      0.8715                 1.3758                 1.2598
 IR Inten    --      2.9933                20.2201                18.7636

                     22                     23                     24
                      A                      A                      A
 Frequencies --   1071.8319              1096.9584              1125.5357
 Red. masses --      1.9735                 1.9202                 3.1206
 Frc consts  --      1.3358                 1.3614                 2.3292
 IR Inten    --      4.4542                 2.5266                 3.3195

                     25                     26                     27
                      A                      A                      A
 Frequencies --   1196.0394              1227.5603              1281.7357
 Red. masses --      3.1791                 1.3833                 1.9142
 Frc consts  --      2.6795                 1.2282                 1.8529
 IR Inten    --     66.0343                 6.6620               146.1640

                     28                     29                     30
                      A                      A                      A
 Frequencies --   1286.8285              1324.3290              1359.7162
 Red. masses --      1.6374                 1.2385                 1.4460
 Frc consts  --      1.5975                 1.2798                 1.5751
 IR Inten    --     32.3043                 1.1712                 4.9234

                     31                     32                     33
                      A                      A                      A
 Frequencies --   1370.7144              1403.4731              1410.4258
 Red. masses --      1.4337                 1.3357                 1.2522
 Frc consts  --      1.5871                 1.5501                 1.4677
 IR Inten    --      1.3643                11.2004                11.8851

                     34                     35                     36
                      A                      A                      A
 Frequencies --   1422.8861              1441.3031              1467.9393
 Red. masses --      1.3388                 1.0831                 1.0955
 Frc consts  --      1.5970                 1.3256                 1.3909
 IR Inten    --      5.6572                 4.4774                 3.2518

                     37                     38                     39
                      A                      A                      A
 Frequencies --   1478.7173              1486.6146              1504.2859
 Red. masses --      1.0460                 1.0724                 1.0945
 Frc consts  --      1.3476                 1.3963                 1.4592
 IR Inten    --      7.7501                12.2313                 4.0362

                     40                     41                     42
                      A                      A                      A
 Frequencies --   1697.2623              1744.7241              2918.6955
 Red. masses --      7.2788                11.2547                 1.0720
 Frc consts  --     12.3541                20.1855                 5.3806
 IR Inten    --     73.0805               191.8904                46.9080

                     43                     44                     45
                      A                      A                      A
 Frequencies --   2994.7898              3021.8103              3034.8663
 Red. masses --      1.0666                 1.0400                 1.0636
 Frc consts  --      5.6363                 5.5950                 5.7717
 IR Inten    --     41.4390                18.7216                 6.4916

                     46                     47                     48
                      A                      A                      A
 Frequencies --   3045.6717              3069.5789              3070.5519
 Red. masses --      1.0851                 1.0981                 1.0975
 Frc consts  --      5.9303                 6.0960                 6.0964
 IR Inten    --     28.1404                16.3898                36.7410

                     49                     50                     51
                      A                      A                      A
 Frequencies --   3091.0831              3132.7941              3153.8288
 Red. masses --      1.0973                 1.0986                 1.0878
 Frc consts  --      6.1775                 6.3523                 6.3748
 IR Inten    --     13.3642                 9.8260                11.1676

 - Thermochemistry -
 -------------------
 Temperature   298.150 Kelvin.  Pressure   1.00000 Atm.
 Atom     1 has atomic number  6 and mass  12.00000

 Molecular mass:   126.06808 amu.
 Principal axes and moments of inertia in atomic units:
                           1         2         3
     Eigenvalues --   831.367701163.859641908.96151
           X            0.99020  -0.13966   0.00158
           Y            0.13964   0.99014   0.01149
           Z           -0.00317  -0.01116   0.99993
 This molecule is an asymmetric top.
 Rotational symmetry number  1.
 Warning -- assumption of classical behavior for rotation
           may cause significant error
 Rotational temperatures (Kelvin)      0.10418     0.07442     0.04537
 Rotational constants (GHZ):           2.17081     1.55065     0.94540
 Zero-point vibrational energy     418494.9 (Joules/Mol)
                                  100.02268 (Kcal/Mol)
 Warning -- explicit consideration of  12 degrees of freedom as
           vibrations may cause significant error
 Vibrational temperatures:     78.48   189.22   219.29   284.87   400.99
          (Kelvin)            437.39   503.00   608.13   648.31   709.47
                              739.44   837.04   950.88  1116.46  1230.08
                             1261.84  1318.25  1373.58  1431.15  1484.93
                             1491.92  1542.13  1578.28  1619.39  1720.83
                             1766.18  1844.13  1851.46  1905.41  1956.33
                             1972.15  2019.28  2029.29  2047.21  2073.71
                             2112.03  2127.54  2138.90  2164.33  2441.98
                             2510.27  4199.35  4308.83  4347.71  4366.49
                             4382.04  4416.43  4417.83  4447.37  4507.39
                             4537.65

 Zero-point correction=                           0.159396 (Hartree/Particle)
 Thermal correction to Energy=                    0.168068
 Thermal correction to Enthalpy=                  0.169012
 Thermal correction to Gibbs Free Energy=         0.125651
 Sum of electronic and zero-point Energies=           -423.052486
 Sum of electronic and thermal Energies=              -423.043814
 Sum of electronic and thermal Enthalpies=            -423.042870
 Sum of electronic and thermal Free Energies=         -423.086231

                     E (Thermal)             CV                S
                      KCal/Mol        Cal/Mol-Kelvin    Cal/Mol-Kelvin
 Total                  105.464             32.270             91.262
 Electronic               0.000              0.000              0.000
 Translational            0.889              2.981             40.409
 Rotational               0.889              2.981             29.003
 Vibrational            103.687             26.308             21.850
 Vibration     1          0.596              1.976              4.645
 Vibration     2          0.612              1.922              2.924
 Vibration     3          0.619              1.900              2.642
 Vibration     4          0.637              1.843              2.152
 Vibration     5          0.679              1.713              1.542
 Vibration     6          0.695              1.666              1.395
 Vibration     7          0.727              1.576              1.168
 Vibration     8          0.785              1.421              0.883
 Vibration     9          0.809              1.360              0.794
 Vibration    10          0.849              1.265              0.676
 Vibration    11          0.869              1.219              0.624
 Vibration    12          0.939              1.071              0.482

 Normal termination of Gaussian 09 at Mon Jan 27 22:49:40 2020.
