 Gaussian 09, Revision D.01,
 Gaussian 09:  ES64L-G09RevD.01 24-Apr-2013

 -----------------------------
 # b3lyp 6-31G(2df,p) opt Freq
 -----------------------------

 -----
 titel
 -----
 Symbolic Z-matrix:
 Charge =  0 Multiplicity = 1

 SCF Done:  E(RB3LYP) =  -423.154870197     A.U. after   13 cycles
 SCF Done:  E(RB3LYP) =  -423.154870373     A.U. after    6 cycles
 Optimization completed.
    -- Stationary point found.
 Normal termination of Gaussian 09 at Tue Jan 28 03:45:32 2020.

 ----------------------------------------------------------------------
 #N Geom=AllCheck Guess=TCheck SCRF=Check GenChk RB3LYP/6-31G(2df,p) Fr
 eq
 ----------------------------------------------------------------------

 Structure from the checkpoint file:  "/scratch/puck/g09_6a70f9f0-878c-4fc3-98ec-d7441c200263/Gau-90382.chk"
 -----
 titel
 -----
 Charge =  0 Multiplicity = 1

                         Standard orientation:
 ---------------------------------------------------------------------
 Center     Atomic      Atomic             Coordinates (Angstroms)
 Number     Number       Type             X           Y           Z
 ---------------------------------------------------------------------
      1          6           0       -2.347850    0.023580    0.461249
      2          6           0       -1.183612    0.459636   -0.436202
      3          6           0       -0.519598   -0.711892   -1.226895
      4          6           0        0.742835   -1.131230   -0.480133
      5          8           0        0.407160   -1.274153    0.940716
      6          6           0        0.819827    0.080216    1.138401
      7          6           0        1.631816    0.131963   -0.148309
      8          8           0        1.053357    1.361800   -0.585257
      9          6           0       -0.054888    1.132317    0.348287
     10          1           0       -3.160782   -0.393975   -0.141892
     11          1           0       -2.028682   -0.738669    1.175109
     12          1           0       -2.754969    0.875435    1.017987
     13          1           0       -1.554766    1.199464   -1.154390
     14          1           0       -1.202761   -1.562459   -1.313674
     15          1           0       -0.252419   -0.394050   -2.239274
     16          1           0        1.231910   -2.027693   -0.867949
     17          1           0        1.140642    0.310918    2.154513
     18          1           0        2.713069    0.069513   -0.272970
     19          1           0       -0.346555    2.052811    0.860479
 ---------------------------------------------------------------------

 SCF Done:  E(RB3LYP) =  -423.154870373     A.U. after    1 cycles

 The electronic state is 1-A.
 Alpha  occ. eigenvalues --  -19.13893 -19.13780 -10.23747 -10.23715 -10.23663
 Alpha  occ. eigenvalues --  -10.23445 -10.19101 -10.18361 -10.17187  -1.07240
 Alpha  occ. eigenvalues --   -1.01735  -0.80242  -0.74329  -0.71615  -0.68095
 Alpha  occ. eigenvalues --   -0.61659  -0.58970  -0.54243  -0.50189  -0.48519
 Alpha  occ. eigenvalues --   -0.47924  -0.43850  -0.42213  -0.40804  -0.40043
 Alpha  occ. eigenvalues --   -0.38492  -0.36592  -0.36012  -0.34623  -0.33410
 Alpha  occ. eigenvalues --   -0.32954  -0.29418  -0.24490  -0.23867
 Alpha virt. eigenvalues --    0.06065   0.09097   0.11297   0.11875   0.13085
 Alpha virt. eigenvalues --    0.13795   0.14723   0.15577   0.15820   0.16433
 Alpha virt. eigenvalues --    0.17447   0.17853   0.19395   0.19945   0.21694

 Mulliken charges:
               1
     1  C   -0.414403
     2  C    0.029277
     3  C   -0.232626
     4  C    0.053893
     5  O   -0.303556
     6  C    0.066194
     7  C    0.067749
     8  O   -0.307303
     9  C    0.045708
    10  H    0.113454
    11  H    0.141806
    12  H    0.107623
    13  H    0.080857
    14  H    0.103970
    15  H    0.111406
    16  H    0.079809
    17  H    0.089912
    18  H    0.089046
    19  H    0.077184
 Sum of Mulliken charges =   0.00000

 Dipole moment (field-independent basis, Debye):
    X=             -0.1444    Y=             -0.0498    Z=             -0.1197  Tot=              0.1941
 Quadrupole moment (field-independent basis, Debye-Ang):
   XX=            -50.9792   YY=            -56.0649   ZZ=            -52.7293
   XY=             -2.4978   XZ=              1.0584   YZ=              5.0009

  Exact polarizability:  78.638  -2.412  69.838  -0.322   4.958  68.986
 Approx polarizability: 105.705  -1.822 108.927  -2.402   1.983 105.620

                      1                      2                      3
                      A                      A                      A
 Frequencies --    171.7158               232.3952               258.0539
 Red. masses --      3.0117                 1.1454                 2.0994
 Frc consts  --      0.0523                 0.0364                 0.0824
 IR Inten    --      0.5174                 0.0882                 0.3259

                      4                      5                      6
                      A                      A                      A
 Frequencies --    350.4904               417.8356               422.2221
 Red. masses --      2.4882                 3.1550                 5.3248
 Frc consts  --      0.1801                 0.3245                 0.5593
 IR Inten    --      2.4740                 4.4130                 6.1872

                      7                      8                      9
                      A                      A                      A
 Frequencies --    482.7051               612.2654               705.3556
 Red. masses --      4.1972                 5.3671                 3.4280
 Frc consts  --      0.5762                 1.1854                 1.0049
 IR Inten    --     11.6528                 0.8958                 7.6342

                     10                     11                     12
                      A                      A                      A
 Frequencies --    745.2030               762.1054               803.3558
 Red. masses --      5.7154                 2.6849                 3.4142
 Frc consts  --      1.8700                 0.9188                 1.2983
 IR Inten    --      0.8954                 3.3896                 3.7159

                     13                     14                     15
                      A                      A                      A
 Frequencies --    824.1563               848.9883               879.5288
 Red. masses --      2.4225                 1.8056                 2.6378
 Frc consts  --      0.9695                 0.7668                 1.2022
 IR Inten    --      4.4823                 7.4709                28.5791

                     16                     17                     18
                      A                      A                      A
 Frequencies --    917.6594               961.4372               981.1828
 Red. masses --      1.7429                 3.2164                 2.7916
 Frc consts  --      0.8648                 1.7517                 1.5834
 IR Inten    --     12.5365                11.8284                41.0981

                     19                     20                     21
                      A                      A                      A
 Frequencies --    996.0988              1007.9412              1040.1135
 Red. masses --      2.3040                 2.3604                 2.9901
 Frc consts  --      1.3469                 1.4129                 1.9059
 IR Inten    --      9.0048                17.9821                67.5785

                     22                     23                     24
                      A                      A                      A
 Frequencies --   1042.1880              1092.1404              1101.2963
 Red. masses --      2.5412                 2.0184                 2.1146
 Frc consts  --      1.6262                 1.4185                 1.5111
 IR Inten    --      9.4205                 1.9681                 2.6012

                     25                     26                     27
                      A                      A                      A
 Frequencies --   1134.0505              1148.7562              1191.6182
 Red. masses --      1.3343                 2.4902                 1.3803
 Frc consts  --      1.0110                 1.9361                 1.1548
 IR Inten    --      1.3172                 1.0507                 0.3218

                     28                     29                     30
                      A                      A                      A
 Frequencies --   1218.6968              1241.9422              1256.5247
 Red. masses --      1.4135                 1.3035                 1.6288
 Frc consts  --      1.2369                 1.1846                 1.5151
 IR Inten    --      2.0372                 0.4041                 1.5664

                     31                     32                     33
                      A                      A                      A
 Frequencies --   1286.3088              1304.9444              1318.8749
 Red. masses --      1.6004                 1.4915                 1.3971
 Frc consts  --      1.5602                 1.4964                 1.4318
 IR Inten    --      3.5006                 1.5818                12.9854

                     34                     35                     36
                      A                      A                      A
 Frequencies --   1342.7693              1357.3756              1367.1129
 Red. masses --      1.4517                 1.4915                 1.6855
 Frc consts  --      1.5421                 1.6191                 1.8560
 IR Inten    --      6.3449                 0.6281                 0.2128

                     37                     38                     39
                      A                      A                      A
 Frequencies --   1371.2411              1409.9207              1472.9013
 Red. masses --      1.5290                 1.2369                 1.0942
 Frc consts  --      1.6939                 1.4487                 1.3986
 IR Inten    --      0.9580                 4.8685                 3.1669

                     40                     41                     42
                      A                      A                      A
 Frequencies --   1496.5435              1515.3443              3032.0793
 Red. masses --      1.0444                 1.0527                 1.0489
 Frc consts  --      1.3781                 1.4242                 5.6817
 IR Inten    --      3.6523                 1.9242                22.5674

                     43                     44                     45
                      A                      A                      A
 Frequencies --   3036.3565              3052.3730              3077.4723
 Red. masses --      1.0707                 1.0624                 1.0893
 Frc consts  --      5.8160                 5.8322                 6.0782
 IR Inten    --     19.1923                23.3562                49.2693

                     46                     47                     48
                      A                      A                      A
 Frequencies --   3085.9056              3092.3486              3097.2967
 Red. masses --      1.0889                 1.1009                 1.1038
 Frc consts  --      6.1097                 6.2026                 6.2391
 IR Inten    --     31.8010                22.9218                24.1178

                     49                     50                     51
                      A                      A                      A
 Frequencies --   3107.5707              3120.7854              3133.9440
 Red. masses --      1.0877                 1.0960                 1.0992
 Frc consts  --      6.1886                 6.2890                 6.3609
 IR Inten    --     52.4880                48.7552                12.6909

 - Thermochemistry -
 -------------------
 Temperature   298.150 Kelvin.  Pressure   1.00000 Atm.
 Atom     1 has atomic number  6 and mass  12.00000

 Molecular mass:   126.06808 amu.
 Principal axes and moments of inertia in atomic units:
                           1         2         3
     Eigenvalues --   673.76699 955.545651069.78794
           X            0.99963  -0.02608  -0.00722
           Y            0.02696   0.98272   0.18314
           Z            0.00232  -0.18327   0.98306
 This molecule is an asymmetric top.
 Rotational symmetry number  1.
 Warning -- assumption of classical behavior for rotation
           may cause significant error
 Rotational temperatures (Kelvin)      0.12855     0.09064     0.08096
 Rotational constants (GHZ):           2.67858     1.88870     1.68701
 Zero-point vibrational energy     424240.6 (Joules/Mol)
                                  101.39594 (Kcal/Mol)
 Warning -- explicit consideration of   8 degrees of freedom as
           vibrations may cause significant error
 Vibrational temperatures:    247.06   334.36   371.28   504.28   601.17
          (Kelvin)            607.48   694.50   880.91  1014.85  1072.18
                             1096.50  1155.85  1185.78  1221.50  1265.44
                             1320.31  1383.29  1411.70  1433.16  1450.20
                             1496.49  1499.47  1571.34  1584.52  1631.64
                             1652.80  1714.47  1753.43  1786.88  1807.86
                             1850.71  1877.52  1897.56  1931.94  1952.96
                             1966.97  1972.91  2028.56  2119.17  2153.19
                             2180.24  4362.48  4368.63  4391.68  4427.79
                             4439.92  4449.19  4456.31  4471.10  4490.11
                             4509.04

 Zero-point correction=                           0.161585 (Hartree/Particle)
 Thermal correction to Energy=                    0.168425
 Thermal correction to Enthalpy=                  0.169369
 Thermal correction to Gibbs Free Energy=         0.130759
 Sum of electronic and zero-point Energies=           -422.993286
 Sum of electronic and thermal Energies=              -422.986446
 Sum of electronic and thermal Enthalpies=            -422.985502
 Sum of electronic and thermal Free Energies=         -423.024111

                     E (Thermal)             CV                S
                      KCal/Mol        Cal/Mol-Kelvin    Cal/Mol-Kelvin
 Total                  105.688             28.524             81.260
 Electronic               0.000              0.000              0.000
 Translational            0.889              2.981             40.409
 Rotational               0.889              2.981             28.023
 Vibrational            103.911             22.563             12.828
 Vibration     1          0.626              1.877              2.417
 Vibration     2          0.653              1.791              1.860
 Vibration     3          0.667              1.749              1.675
 Vibration     4          0.727              1.574              1.164
 Vibration     5          0.781              1.431              0.899
 Vibration     6          0.785              1.422              0.884
 Vibration     7          0.839              1.288              0.703
 Vibration     8          0.971              1.006              0.429

 Optimization completed.
    -- Stationary point found.
 Normal termination of Gaussian 09 at Tue Jan 28 04:31:08 2020.
