 Gaussian 09, Revision D.01,
 Gaussian 09:  ES64L-G09RevD.01 24-Apr-2013

 -----------------------------
 # b3lyp 6-31G(2df,p) opt Freq
 -----------------------------

 -----
 titel
 -----
 Symbolic Z-matrix:
 Charge =  0 Multiplicity = 1

 SCF Done:  E(RB3LYP) =  -423.161919090     A.U. after   13 cycles
 Optimization completed.
    -- Stationary point found.
 Normal termination of Gaussian 09 at Tue Jan 28 11:37:21 2020.

 ----------------------------------------------------------------------
 #N Geom=AllCheck Guess=TCheck SCRF=Check GenChk RB3LYP/6-31G(2df,p) Fr
 eq
 ----------------------------------------------------------------------

 Structure from the checkpoint file:  "/scratch/puck/g09_8b3b3055-e289-496a-9928-57c27b3734b2/Gau-24578.chk"
 -----
 titel
 -----
 Charge =  0 Multiplicity = 1

                         Standard orientation:
 ---------------------------------------------------------------------
 Center     Atomic      Atomic             Coordinates (Angstroms)
 Number     Number       Type             X           Y           Z
 ---------------------------------------------------------------------
      1          6           0       -1.865099   -0.485835   -1.183679
      2          8           0       -2.047969   -0.085404    0.163277
      3          6           0       -0.891391    0.336512    0.885315
      4          6           0        0.072799   -0.822623    1.248612
      5          6           0        1.340729   -0.935972    0.431443
      6          8           0        1.242229   -0.905511   -0.988450
      7          6           0        1.826375    0.237264   -0.312344
      8          6           0        1.016676    1.480353   -0.290078
      9          6           0       -0.206737    1.518714    0.239589
     10          1           0       -1.202043   -1.352962   -1.279453
     11          1           0       -2.859956   -0.747610   -1.553254
     12          1           0       -1.452054    0.319855   -1.803737
     13          1           0       -1.333447    0.688488    1.825197
     14          1           0        0.386130   -0.695094    2.292446
     15          1           0       -0.492449   -1.760543    1.209983
     16          1           0        2.072119   -1.652969      15          1           0       -0.492449   -1.760543    1.209983
     16          1           0        2.072119   -1.652969    0.808581
     17          1           0        2.892598    0.346494   -0.498471
     18          1           0        1.458294    2.371523   -0.727120
     19          1           0       -0.783391    2.439656    0.214062
 ---------------------------------------------------------------------

 SCF Done:  E(RB3LYP) =  -423.161919090     A.U. after    1 cycles

 The electronic state is 1-A.
 Alpha  occ. eigenvalues --  -19.15093 -19.13168 -10.23991 -10.23947 -10.23795
 Alpha  occ. eigenvalues --  -10.20701 -10.19343 -10.19005 -10.18923  -1.06972
 Alpha  occ. eigenvalues --   -1.01929  -0.81119  -0.75779  -0.70833  -0.66883
 Alpha  occ. eigenvalues --   -0.61326  -0.60283  -0.53060  -0.51213  -0.47864
 Alpha  occ. eigenvalues --   -0.47200  -0.45521  -0.43700  -0.42688  -0.41038
 Alpha  occ. eigenvalues --   -0.39035  -0.38397  -0.35892  -0.34677  -0.31324
 Alpha  occ. eigenvalues --   -0.29874  -0.27387  -0.25545  -0.24380
 Alpha virt. eigenvalues --   -0.01144   0.08479   0.11161   0.12082   0.13078
 Alpha virt. eigenvalues --    0.13309   0.14415   0.15587   0.16290   0.16913
 Alpha virt. eigenvalues --    0.17530   0.18015   0.19385   0.20828   0.21795

 Mulliken charges:
               1
     1  C   -0.235865
     2  O   -0.257200
     3  C    0.075417
     4  C   -0.289074
     5  C    0.060577
     6  O   -0.250493
     7  C   -0.012778
     8  C   -0.036356
     9  C   -0.111410
    10  H    0.121541
    11  H    0.116067
    12  H    0.108305
    13  H    0.090767
    14  H    0.111355
    15  H    0.123737
    16  H    0.090882
    17  H    0.094469
    18  H    0.097275
    19  H    0.102782
 Sum of Mulliken charges =   0.00000

 Dipole moment (field-independent basis, Debye):
    X=              1.4020    Y=              0.7827    Z=              1.1178  Tot=              1.9565
 Quadrupole moment (field-independent basis, Debye-Ang):
   XX=            -53.7862   YY=            -51.0480   ZZ=            -52.8761
   XY=              0.9774   XZ=              2.3769   YZ=             -2.2260

  Exact polarizability:  85.204   0.354  74.715  -3.412  -3.676  67.051
 Approx polarizability: 126.008   0.558 109.839 -11.586  -1.472 104.539

                      1                      2                      3
                      A                      A                      A
 Frequencies --     86.3342               114.4551               186.8330
 Red. masses --      2.1956                 3.7314                 2.0574
 Frc consts  --      0.0096                 0.0288                 0.0423
 IR Inten    --      3.4030                 2.0961                 0.9451

                      4                      5                      6
                      A                      A                      A
 Frequencies --    210.3908               291.0385               332.2421
 Red. masses --      1.6029                 3.0171                 2.7406
 Frc consts  --      0.0418                 0.1506                 0.1782
 IR Inten    --      1.4317                 0.3244                 3.1833

                      7                      8                      9
                      A                      A                      A
 Frequencies --    389.2879               429.5561               499.1358
 Red. masses --      2.9481                 3.6055                 5.8916
 Frc consts  --      0.2632                 0.3920                 0.8648
 IR Inten    --      8.6557                 7.3405                 1.9176

                     10                     11                     12
                      A                      A                      A
 Frequencies --    612.3096               640.6399               724.4480
 Red. masses --      3.1458                 4.0412                 3.0366
 Frc consts  --      0.6949                 0.9772                 0.9390
 IR Inten    --      5.8298                10.0106                 5.8808

                     13                     14                     15
                      A                      A                      A
 Frequencies --    742.1482               825.8638               837.6696
 Red. masses --      3.0998                 2.8732                 2.3062
 Frc consts  --      1.0059                 1.1546                 0.9535
 IR Inten    --      2.5220                15.7518                23.7464

                     16                     17                     18
                      A                      A                      A
 Frequencies --    903.8079               930.5059               951.6287
 Red. masses --      3.1411                 3.0695                 2.8848
 Frc consts  --      1.5118                 1.5659                 1.5392
 IR Inten    --      4.9144                 8.8240                 9.8052

                     19                     20                     21
                      A                      A                      A
 Frequencies --    975.9908              1001.9125              1023.9226
 Red. masses --      3.8835                 1.3099                 3.0499
 Frc consts  --      2.1795                 0.7747                 1.8839
 IR Inten    --     13.7520                 0.6900                 7.4259

                     22                     23                     24
                      A                      A                      A
 Frequencies --   1059.1647              1096.7022              1129.3653
 Red. masses --      1.4030                 1.7590                 3.0439
 Frc consts  --      0.9273                 1.2465                 2.2875
 IR Inten    --      4.7721                37.3342               106.1445

                     25                     26                     27
                      A                      A                      A
 Frequencies --   1155.5995              1180.3064              1196.6407
 Red. masses --      1.4482                 1.2910                 1.1335
 Frc consts  --      1.1394                 1.0597                 0.9563
 IR Inten    --     20.5316                 3.1156                 1.2251

                     28                     29                     30
                      A                      A                      A
 Frequencies --   1224.6700              1257.2987              1282.0442
 Red. masses --      1.4584                 1.2460                 1.3012
 Frc consts  --      1.2887                 1.1605                 1.2601
 IR Inten    --      7.5659                11.5786                 5.7407

                     31                     32                     33
                      A                      A                      A
 Frequencies --   1324.9757              1362.5249              1388.9891
 Red. masses --      1.7018                 1.3129                 1.5080
 Frc consts  --      1.7602                 1.4361                 1.7142
 IR Inten    --      1.9937                 1.3709                 7.1015

                     34                     35                     36
                      A                      A                      A
 Frequencies --   1396.0716              1423.2720              1457.5190
 Red. masses --      1.1870                 1.5708                 1.5522
 Frc consts  --      1.3631                 1.8748                 1.9428
 IR Inten    --      3.4063                 5.4656                13.2134

                     37                     38                     39
                      A                      A                      A
 Frequencies --   1475.0932              1482.7429              1487.7343
 Red. masses --      1.5772                 1.1481                 1.0697
 Frc consts  --      2.0219                 1.4871                 1.3950
 IR Inten    --      3.4516                 1.1724                 4.9691

                     40                     41                     42
                      A                      A                      A
 Frequencies --   1506.1825              1710.8979              3013.7414
 Red. masses --      1.0664                 6.6809                 1.0337
 Frc consts  --      1.4254                11.5221                 5.5319
 IR Inten    --     13.3337                 0.5550                44.6069

                     43                     44                     45
                      A                      A                      A
 Frequencies --   3021.7036              3037.8739              3074.7683
 Red. masses --      1.0754                 1.0702                 1.1000
 Frc consts  --      5.7852                 5.8193                 6.1271
 IR Inten    --      7.0074                31.1043                 9.4910

                     46                     47                     48
                      A                      A                      A
 Frequencies --   3076.3960              3092.5788              3114.3920
 Red. masses --      1.1010                 1.0873                 1.1029
 Frc consts  --      6.1395                 6.1272                 6.3026
 IR Inten    --     36.1899                41.8066                33.3101

                     49                     50                     51
                      A                      A                      A
 Frequencies --   3134.1217              3155.9776              3178.3790
 Red. masses --      1.0885                 1.0849                 1.0976
 Frc consts  --      6.2998                 6.3665                 6.5328
 IR Inten    --     31.5467                10.7795                23.9282

 - Thermochemistry -
 -------------------
 Temperature   298.150 Kelvin.  Pressure   1.00000 Atm.
 Atom     1 has atomic number  6 and mass  12.00000

 Molecular mass:   126.06808 amu.
 Principal axes and moments of inertia in atomic units:
                           1         2         3
     Eigenvalues --   702.402531185.441871283.62747
           X            0.99931   0.01937   0.03177
           Y           -0.01607   0.99475  -0.10108
           Z           -0.03356   0.10050   0.99437
 This molecule is an asymmetric top.
 Rotational symmetry number  1.
 Warning -- assumption of classical behavior for rotation
           may cause significant error
 Rotational temperatures (Kelvin)      0.12331     0.07306     0.06748
 Rotational constants (GHZ):           2.56938     1.52242     1.40597
 Zero-point vibrational energy     419936.2 (Joules/Mol)
                                  100.36716 (Kcal/Mol)
 Warning -- explicit consideration of  10 degrees of freedom as
           vibrations may cause significant error
 Vibrational temperatures:    124.22   164.68   268.81   302.70   418.74
          (Kelvin)            478.02   560.10   618.03   718.14   880.98
                              921.74  1042.32  1067.78  1188.23  1205.22
                             1300.38  1338.79  1369.18  1404.23  1441.53
                             1473.19  1523.90  1577.91  1624.90  1662.65
                             1698.20  1721.70  1762.02  1808.97  1844.57
                             1906.34  1960.37  1998.44  2008.63  2047.77
                             2097.04  2122.33  2133.33  2140.52  2167.06
                             2461.60  4336.10  4347.55  4370.82  4423.90
                             4426.24  4449.53  4480.91  4509.30  4540.74
                             4572.97

 Zero-point correction=                           0.159945 (Hartree/Particle)
 Thermal correction to Energy=                    0.168142
 Thermal correction to Enthalpy=                  0.169086
 Thermal correction to Gibbs Free Energy=         0.127127
 Sum of electronic and zero-point Energies=           -423.001974
 Sum of electronic and thermal Energies=              -422.993777
 Sum of electronic and thermal Enthalpies=            -422.992833
 Sum of electronic and thermal Free Energies=         -423.034792

                     E (Thermal)             CV                S
                      KCal/Mol        Cal/Mol-Kelvin    Cal/Mol-Kelvin
 Total                  105.510             31.239             88.311
 Electronic               0.000              0.000              0.000
 Translational            0.889              2.981             40.409
 Rotational               0.889              2.981             28.460
 Vibrational            103.733             25.277             19.442
 Vibration     1          0.601              1.959              3.741
 Vibration     2          0.607              1.937              3.192
 Vibration     3          0.632              1.858              2.259
 Vibration     4          0.643              1.825              2.040
 Vibration     5          0.687              1.690              1.468
 Vibration     6          0.714              1.611              1.249
 Vibration     7          0.757              1.493              1.003
 Vibration     8          0.791              1.406              0.860
 Vibration     9          0.855              1.252              0.660
 Vibration    10          0.972              1.006              0.429

 Optimization completed.
    -- Stationary point found.
 Normal termination of Gaussian 09 at Tue Jan 28 12:21:30 2020.
