 Gaussian 09, Revision D.01,
 Gaussian 09:  ES64L-G09RevD.01 24-Apr-2013

 -----------------------------
 # b3lyp 6-31G(2df,p) opt Freq
 -----------------------------

 -----
 titel
 -----
 Symbolic Z-matrix:
 Charge =  0 Multiplicity = 1

 SCF Done:  E(RB3LYP) =  -423.159093401     A.U. after   13 cycles
 Optimization completed.
    -- Stationary point found.
 Normal termination of Gaussian 09 at Mon Jan 27 17:32:20 2020.

 ----------------------------------------------------------------------
 #N Geom=AllCheck Guess=TCheck SCRF=Check GenChk RB3LYP/6-31G(2df,p) Fr
 eq
 ----------------------------------------------------------------------

 Structure from the checkpoint file:  "/scratch/puck/g09_80256317-1cac-479d-886d-32e23b6dfdab/Gau-169241.chk"
 -----
 titel
 -----
 Charge =  0 Multiplicity = 1

                         Standard orientation:
 ---------------------------------------------------------------------
 Center     Atomic      Atomic             Coordinates (Angstroms)
 Number     Number       Type             X           Y           Z
 ---------------------------------------------------------------------
      1          6           0       -2.128305   -1.054590   -0.714135
      2          6           0       -1.178673   -0.168970    0.039498
      3          6           0       -1.542494    1.211068    0.529651
      4          6           0       -0.451872    1.022684   -0.513793
      5          6           0        0.961290    0.954711    0.013891
      6          8           0        1.890321    0.356917   -0.918410
      7          6           0        1.966438   -0.860441   -0.141550
      8          6           0        0.972832   -0.310042    0.906189
      9          8           0       -0.316671   -0.894852    0.907215
     10          1           0       -2.750956   -1.629115   -0.020577
     11          1           0       -2.789187   -0.457986   -1.349120
     12          1           0       -1.582850   -1.761713   -1.347209
     13          1           0       -2.475975    1.651800    0.195468
     14          1           0       -1.252827    1.477877    1.541433
     15          1           0       -0.603951    1.377359   -1.526860
     16          1           0        1.346115    1.898923    0.415023
     17          1           0        1.601318   -1.736966   -0.688416
     18          1           0        2.985242   -1.045420    0.219479
     19          1           0        1.338580   -0.237800    1.931839
 ---------------------------------------------------------------------

 SCF Done:  E(RB3LYP) =  -423.159093401     A.U. after    1 cycles

 The electronic state is 1-A.
 Alpha  occ. eigenvalues --  -19.14408 -19.13302 -10.24178 -10.23745 -10.23724
 Alpha  occ. eigenvalues --  -10.22711 -10.19127 -10.18744 -10.18127  -1.05932
 Alpha  occ. eigenvalues --   -1.02248  -0.85487  -0.75195  -0.70966  -0.69217
 Alpha  occ. eigenvalues --   -0.61066  -0.57624  -0.55276  -0.51286  -0.49860
 Alpha  occ. eigenvalues --   -0.46336  -0.44173  -0.42910  -0.42339  -0.40888
 Alpha  occ. eigenvalues --   -0.39294  -0.38704  -0.36869  -0.35976  -0.31021
 Alpha  occ. eigenvalues --   -0.30067  -0.28559  -0.25307  -0.23227
 Alpha virt. eigenvalues --    0.07127   0.09759   0.10395   0.10851   0.11995
 Alpha virt. eigenvalues --    0.13104   0.14028   0.15561   0.16399   0.17517
 Alpha virt. eigenvalues --    0.18015   0.18438   0.20011   0.20813   0.21558

 Mulliken charges:
               1
     1  C   -0.465436
     2  C    0.442263
     3  C   -0.353317
     4  C   -0.139574
     5  C    0.093112
     6  O   -0.297542
     7  C   -0.097350
     8  C    0.042271
     9  O   -0.311057
    10  H    0.129939
    11  H    0.118717
    12  H    0.125245
    13  H    0.114300
    14  H    0.114300
    15  H    0.101983
    16  H    0.081236
    17  H    0.108414
    18  H    0.102315
    19  H    0.090180
 Sum of Mulliken charges =   0.00000

 Dipole moment (field-independent basis, Debye):
    X=             -0.6855    Y=              0.3930    Z=              0.4922  Tot=              0.9310
 Quadrupole moment (field-independent basis, Debye-Ang):
   XX=            -52.0581   YY=            -52.7304   ZZ=            -54.1262
   XY=             -2.5446   XZ=              5.0273   YZ=              2.1257

  Exact polarizability:  84.870  -3.875  72.981   2.152   2.823  64.965
 Approx polarizability: 111.328  -3.630 108.116  -1.331  -0.051 100.539

                      1                      2                      3
                      A                      A                      A
 Frequencies --     79.7370               134.6213               218.4424
 Red. masses --      2.9853                 4.0722                 1.0376
 Frc consts  --      0.0112                 0.0435                 0.0292
 IR Inten    --      3.8179                 1.5609                 0.1108

                      4                      5                      6
                      A                      A                      A
 Frequencies --    314.7285               329.3864               382.4178
 Red. masses --      2.6110                 2.4965                 2.5210
 Frc consts  --      0.1524                 0.1596                 0.2172
 IR Inten    --      2.0043                 4.2338                 1.1708

                      7                      8                      9
                      A                      A                      A
 Frequencies --    406.4974               457.0921               611.7344
 Red. masses --      3.9194                 3.2379                 3.2169
 Frc consts  --      0.3816                 0.3986                 0.7093
 IR Inten    --      2.4433                 2.2050                 1.4842

                     10                     11                     12
                      A                      A                      A
 Frequencies --    657.1405               753.8906               804.9934
 Red. masses --      4.6371                 4.5358                 2.1525
 Frc consts  --      1.1798                 1.5189                 0.8218
 IR Inten    --      5.2856                 9.4556                 3.5736

                     13                     14                     15
                      A                      A                      A
 Frequencies --    821.0605               840.6892               878.1282
 Red. masses --      1.9916                 2.0749                 1.9692
 Frc consts  --      0.7911                 0.8640                 0.8946
 IR Inten    --      1.8634                 5.1538                 9.9965

                     16                     17                     18
                      A                      A                      A
 Frequencies --    917.8577               938.5700               951.2988
 Red. masses --      2.3848                 2.0838                 1.5954
 Frc consts  --      1.1837                 1.0815                 0.8506
 IR Inten    --      4.8575                21.0772                 6.8701

                     19                     20                     21
                      A                      A                      A
 Frequencies --    991.7929              1018.2701              1037.4438
 Red. masses --      3.3187                 5.8382                 1.7082
 Frc consts  --      1.9233                 3.5666                 1.0832
 IR Inten    --     10.3914                98.2918                 0.4015

                     22                     23                     24
                      A                      A                      A
 Frequencies --   1049.6898              1071.4997              1077.5615
 Red. masses --      1.4372                 2.8065                 1.5995
 Frc consts  --      0.9330                 1.8985                 1.0943
 IR Inten    --      5.0950                19.8516                 4.3315

                     25                     26                     27
                      A                      A                      A
 Frequencies --   1098.7207              1123.9230              1135.6631
 Red. masses --      2.0418                 2.0416                 2.1698
 Frc consts  --      1.4523                 1.5195                 1.6488
 IR Inten    --     38.2503                 7.2296                62.4831

                     28                     29                     30
                      A                      A                      A
 Frequencies --   1169.2582              1224.4158              1228.4836
 Red. masses --      1.2894                 2.1882                 1.9533
 Frc consts  --      1.0386                 1.9329                 1.7368
 IR Inten    --     30.2127                37.8726                 5.1127

                     31                     32                     33
                      A                      A                      A
 Frequencies --   1269.6682              1280.5685              1323.9875
 Red. masses --      1.4572                 1.7563                 1.4697
 Frc consts  --      1.3840                 1.6969                 1.5179
 IR Inten    --      5.2287                 1.3881                28.2370

                     34                     35                     36
                      A                      A                      A
 Frequencies --   1342.2510              1374.1826              1392.4035
 Red. masses --      1.4029                 1.4476                 1.5926
 Frc consts  --      1.4892                 1.6106                 1.8192
 IR Inten    --      0.9649                 4.3480                 9.5677

                     37                     38                     39
                      A                      A                      A
 Frequencies --   1428.7968              1479.1060              1484.0281
 Red. masses --      1.6321                 1.0530                 1.3625
 Frc consts  --      1.9630                 1.3573                 1.7680
 IR Inten    --      9.8910                 1.9166                11.2428

                     40                     41                     42
                      A                      A                      A
 Frequencies --   1503.4029              1511.5410              3020.9558
 Red. masses --      1.1453                 1.0997                 1.0557
 Frc consts  --      1.5252                 1.4804                 5.6764
 IR Inten    --      2.9106                 1.0274                66.9557

                     43                     44                     45
                      A                      A                      A
 Frequencies --   3037.1802              3045.0405              3073.7224
 Red. masses --      1.0353                 1.0868                 1.1091
 Frc consts  --      5.6267                 5.9371                 6.1735
 IR Inten    --     25.0779                41.9540                19.6284

                     46                     47                     48
                      A                      A                      A
 Frequencies --   3097.9712              3102.7483              3117.3500
 Red. masses --      1.0907                 1.1015                 1.1001
 Frc consts  --      6.1675                 6.2480                 6.2987
 IR Inten    --     55.1522                19.4138                15.2349

                     49                     50                     51
                      A                      A                      A
 Frequencies --   3123.5298              3177.8755              3212.7607
 Red. masses --      1.0548                 1.0920                 1.1163
 Frc consts  --      6.0635                 6.4974                 6.7888
 IR Inten    --     12.8675                 4.7909                 8.6514

 - Thermochemistry -
 -------------------
 Temperature   298.150 Kelvin.  Pressure   1.00000 Atm.
 Atom     1 has atomic number  6 and mass  12.00000

 Molecular mass:   126.06808 amu.
 Principal axes and moments of inertia in atomic units:
                           1         2         3
     Eigenvalues --   580.058671187.737751328.43923
           X            0.99934  -0.01586   0.03264
           Y            0.01182   0.99265   0.12042
           Z           -0.03431  -0.11995   0.99219
 This molecule is an asymmetric top.
 Rotational symmetry number  1.
 Warning -- assumption of classical behavior for rotation
           may cause significant error
 Rotational temperatures (Kelvin)      0.14932     0.07292     0.06520
 Rotational constants (GHZ):           3.11131     1.51948     1.35854
 Zero-point vibrational energy     419435.1 (Joules/Mol)
                                  100.24740 (Kcal/Mol)
 Warning -- explicit consideration of   9 degrees of freedom as
           vibrations may cause significant error
 Vibrational temperatures:    114.72   193.69   314.29   452.82   473.91
          (Kelvin)            550.21   584.86   657.65   880.15   945.48
                             1084.68  1158.20  1181.32  1209.56  1263.43
                             1320.59  1350.39  1368.71  1426.97  1465.06
                             1492.65  1510.27  1541.65  1550.37  1580.81
                             1617.07  1633.96  1682.30  1761.66  1767.51
                             1826.77  1842.45  1904.92  1931.20  1977.14
                             2003.36  2055.72  2128.10  2135.18  2163.06
                             2174.77  4346.48  4369.82  4381.13  4422.40
                             4457.28  4464.16  4485.17  4494.06  4572.25
                             4622.44

 Zero-point correction=                           0.159754 (Hartree/Particle)
 Thermal correction to Energy=                    0.167428
 Thermal correction to Enthalpy=                  0.168373
 Thermal correction to Gibbs Free Energy=         0.127551
 Sum of electronic and zero-point Energies=           -422.999339
 Sum of electronic and thermal Energies=              -422.991665
 Sum of electronic and thermal Enthalpies=            -422.990721
 Sum of electronic and thermal Free Energies=         -423.031542

                     E (Thermal)             CV                S
                      KCal/Mol        Cal/Mol-Kelvin    Cal/Mol-Kelvin
 Total                  105.063             30.234             85.916
 Electronic               0.000              0.000              0.000
 Translational            0.889              2.981             40.409
 Rotational               0.889              2.981             28.306
 Vibrational            103.285             24.272             17.202
 Vibration     1          0.600              1.963              3.897
 Vibration     2          0.613              1.919              2.879
 Vibration     3          0.646              1.813              1.972
 Vibration     4          0.702              1.646              1.337
 Vibration     5          0.712              1.617              1.263
 Vibration     6          0.752              1.508              1.030
 Vibration     7          0.771              1.456              0.939
 Vibration     8          0.815              1.345              0.775
 Vibration     9          0.971              1.007              0.430

 Normal termination of Gaussian 09 at Mon Jan 27 18:19:31 2020.
