 Gaussian 09, Revision D.01,
 Gaussian 09:  ES64L-G09RevD.01 24-Apr-2013

 -----------------------------
 # b3lyp 6-31G(2df,p) opt Freq
 -----------------------------

 -----
 titel
 -----
 Symbolic Z-matrix:
 Charge =  0 Multiplicity = 1

 SCF Done:  E(RB3LYP) =  -423.097861604     A.U. after   14 cycles
 Optimization completed.
    -- Stationary point found.
 Normal termination of Gaussian 09 at Mon Jan 27 19:04:35 2020.

 ----------------------------------------------------------------------
 #N Geom=AllCheck Guess=TCheck SCRF=Check GenChk RB3LYP/6-31G(2df,p) Fr
 eq
 ----------------------------------------------------------------------

 Structure from the checkpoint file:  "/scratch/puck/g09_f640e550-d031-47e5-be70-46a146c09e8c/Gau-65168.chk"
 -----
 titel
 -----
 Charge =  0 Multiplicity = 1

                         Standard orientation:
 ---------------------------------------------------------------------
 Center     Atomic      Atomic             Coordinates (Angstroms)
 Number     Number       Type             X           Y           Z
 ---------------------------------------------------------------------
      1          6           0        0.180788    2.061716   -0.481977
      2          6           0        0.121669    0.736757    0.263693
      3          6           0       -1.241182    0.476793    0.915890
      4          8           0       -1.971394   -0.291846   -0.078370
      5          6           0       -1.086889   -1.066514   -0.905345
      6          6           0        0.273851   -0.634459   -0.444851
      7          6           0        1.770350   -0.382764   -0.730241
      8          6           0        1.431271    0.019684    0.748081
      9          8           0        0.685449   -1.236576    0.864446
     10          1           0        1.073413    2.177285   -1.100376
     11          1           0       -0.697358    2.178716   -1.125960
     12          1           0        0.172335    2.891459    0.233942
     13          1           0       -1.165899   -0.087266    1.848487
     14          1           0       -1.819725    1.389225    1.080683
     15          1           0       -1.254166   -2.138259   -0.745222
     16          1           0       -1.270707   -0.827331   -1.959896
     17          1           0        2.381100   -1.281697   -0.810404
     18          1           0        2.048024    0.382389   -1.455452
     19          1           0        2.121386    0.275568    1.554090
 ---------------------------------------------------------------------

 SCF Done:  E(RB3LYP) =  -423.097861604     A.U. after    1 cycles

 The electronic state is 1-A.
 Alpha  occ. eigenvalues --  -19.13356 -19.13174 -10.25569 -10.25064 -10.23301
 Alpha  occ. eigenvalues --  -10.22123 -10.20385 -10.20087 -10.18466  -1.06733
 Alpha  occ. eigenvalues --   -1.01336  -0.81044  -0.74971  -0.72174  -0.68334
 Alpha  occ. eigenvalues --   -0.63671  -0.59609  -0.51647  -0.50512  -0.48920
 Alpha  occ. eigenvalues --   -0.46724  -0.45330  -0.41879  -0.41342  -0.40233
 Alpha  occ. eigenvalues --   -0.38850  -0.38416  -0.37455  -0.34623  -0.32501
 Alpha  occ. eigenvalues --   -0.30138  -0.28491  -0.25040  -0.23884
 Alpha virt. eigenvalues --    0.08381   0.09108   0.09841   0.10885   0.12101
 Alpha virt. eigenvalues --    0.12393   0.13253   0.14402   0.15014   0.16107
 Alpha virt. eigenvalues --    0.16719   0.17789   0.18130   0.19711   0.20773

 Mulliken charges:
               1
     1  C   -0.492993
     2  C    0.297171
     3  C   -0.136055
     4  O   -0.288418
     5  C   -0.187662
     6  C    0.361678
     7  C   -0.323395
     8  C   -0.025575
     9  O   -0.338174
    10  H    0.117533
    11  H    0.135023
    12  H    0.124843
    13  H    0.114273
    14  H    0.099189
    15  H    0.116985
    16  H    0.109016
    17  H    0.116132
    18  H    0.106238
    19  H    0.094192
 Sum of Mulliken charges =   0.00000

 Dipole moment (field-independent basis, Debye):
    X=              1.6608    Y=              1.5603    Z=             -1.0117  Tot=              2.4932
 Quadrupole moment (field-independent basis, Debye-Ang):
   XX=            -55.8235   YY=            -53.3020   ZZ=            -51.5774
   XY=              0.6156   XZ=             -0.2851   YZ=              3.1121

  Exact polarizability:  78.836  -0.933  75.387  -0.219   2.691  70.149
 Approx polarizability: 113.816  -0.280 111.578   1.652   1.898 109.151

                      1                      2                      3
                      A                      A                      A
 Frequencies --    128.4205               196.2677               200.5521
 Red. masses --      3.9175                 2.0329                 1.1325
 Frc consts  --      0.0381                 0.0461                 0.0268
 IR Inten    --      6.1621                 0.0979                 0.0312

                      4                      5                      6
                      A                      A                      A
 Frequencies --    320.8819               344.1107               391.9948
 Red. masses --      2.8296                 3.1517                 2.0896
 Frc consts  --      0.1717                 0.2199                 0.1892
 IR Inten    --      1.9064                 1.8456                 1.3310

                      7                      8                      9
                      A                      A                      A
 Frequencies --    454.6217               515.7924               588.1987
 Red. masses --      3.1423                 2.7567                 3.8527
 Frc consts  --      0.3826                 0.4321                 0.7853
 IR Inten    --      1.0231                 1.5830                 1.4639

                     10                     11                     12
                      A                      A                      A
 Frequencies --    622.2896               703.3655               753.2098
 Red. masses --      4.1663                 4.5881                 3.7381
 Frc consts  --      0.9506                 1.3373                 1.2495
 IR Inten    --      5.6783                16.4741                 2.5129

                     13                     14                     15
                      A                      A                      A
 Frequencies --    780.9759               810.3875               879.6285
 Red. masses --      3.6555                 2.9018                 3.8832
 Frc consts  --      1.3136                 1.1228                 1.7703
 IR Inten    --     17.9695                 6.9232                25.9440

                     16                     17                     18
                      A                      A                      A
 Frequencies --    880.6558               923.3226               964.1969
 Red. masses --      3.2652                 2.5376                 1.7928
 Frc consts  --      1.4920                 1.2746                 0.9820
 IR Inten    --     17.5808                 0.5252                12.5424

                     19                     20                     21
                      A                      A                      A
 Frequencies --    972.9157               978.7004              1020.0560
 Red. masses --      1.7153                 2.6847                 2.6292
 Frc consts  --      0.9566                 1.5151                 1.6118
 IR Inten    --      7.9667                13.8015                49.3412

                     22                     23                     24
                      A                      A                      A
 Frequencies --   1027.7472              1080.5391              1106.5828
 Red. masses --      1.5576                 3.0095                 1.5727
 Frc consts  --      0.9694                 2.0702                 1.1346
 IR Inten    --      8.4550                26.9525                 1.8395

                     25                     26                     27
                      A                      A                      A
 Frequencies --   1124.3505              1170.9450              1186.6187
 Red. masses --      1.8597                 1.6878                 1.5082
 Frc consts  --      1.3852                 1.3635                 1.2512
 IR Inten    --      1.3182                 4.6532                 8.9062

                     28                     29                     30
                      A                      A                      A
 Frequencies --   1190.8061              1210.1329              1235.4876
 Red. masses --      1.4054                 1.3108                 1.3538
 Frc consts  --      1.1742                 1.1310                 1.2176
 IR Inten    --      1.2336                 2.3283                 8.2320

                     31                     32                     33
                      A                      A                      A
 Frequencies --   1245.8639              1269.6860              1325.6719
 Red. masses --      2.3364                 2.2198                 2.0088
 Frc consts  --      2.1366                 2.1085                 2.0800
 IR Inten    --      2.2942                 7.2830                 1.3825

                     34                     35                     36
                      A                      A                      A
 Frequencies --   1359.0131              1381.1068              1413.2101
 Red. masses --      1.7697                 1.5452                 1.2858
 Frc consts  --      1.9258                 1.7366                 1.5130
 IR Inten    --      2.9334                 1.0197                 5.4959

                     37                     38                     39
                      A                      A                      A
 Frequencies --   1485.8664              1492.9128              1500.3376
 Red. masses --      1.1383                 1.0599                 1.0867
 Frc consts  --      1.4806                 1.3918                 1.4413
 IR Inten    --      2.1037                 3.8872                 0.7600

                     40                     41                     42
                      A                      A                      A
 Frequencies --   1506.3994              1512.0164              3022.2597
 Red. masses --      1.0985                 1.0835                 1.0558
 Frc consts  --      1.4687                 1.4594                 5.6819
 IR Inten    --      5.3165                 1.1839                55.2708

                     43                     44                     45
                      A                      A                      A
 Frequencies --   3035.0413              3060.7163              3063.8686
 Red. masses --      1.0383                 1.0564                 1.1087
 Frc consts  --      5.6353                 5.8307                 6.1321
 IR Inten    --     18.0506                42.6847                23.7030

                     46                     47                     48
                      A                      A                      A
 Frequencies --   3085.2439              3092.4640              3102.0540
 Red. masses --      1.0602                 1.0984                 1.0905
 Frc consts  --      5.9459                 6.1891                 6.1829
 IR Inten    --     19.9733                23.9185                51.5387

                     49                     50                     51
                      A                      A                      A
 Frequencies --   3109.5548              3123.7893              3163.6660
 Red. masses --      1.1100                 1.0968                 1.1113
 Frc consts  --      6.3239                 6.3060                 6.5531
 IR Inten    --     20.9085                34.9900                22.0712

 - Thermochemistry -
 -------------------
 Temperature   298.150 Kelvin.  Pressure   1.00000 Atm.
 Atom     1 has atomic number  6 and mass  12.00000

 Molecular mass:   126.06808 amu.
 Principal axes and moments of inertia in atomic units:
                           1         2         3
     Eigenvalues --   717.83491 921.011601154.80371
           X            0.99960   0.01825  -0.02170
           Y           -0.01787   0.99968   0.01771
           Z            0.02201  -0.01732   0.99961
 This molecule is an asymmetric top.
 Rotational symmetry number  1.
 Warning -- assumption of classical behavior for rotation
           may cause significant error
 Rotational temperatures (Kelvin)      0.12066     0.09404     0.07500
 Rotational constants (GHZ):           2.51415     1.95952     1.56281
 Zero-point vibrational energy     419377.8 (Joules/Mol)
                                  100.23370 (Kcal/Mol)
 Warning -- explicit consideration of   9 degrees of freedom as
           vibrations may cause significant error
 Vibrational temperatures:    184.77   282.39   288.55   461.68   495.10
          (Kelvin)            563.99   654.10   742.11   846.29   895.33
                             1011.98  1083.70  1123.65  1165.97  1265.59
                             1267.07  1328.45  1387.26  1399.81  1408.13
                             1467.63  1478.70  1554.65  1592.12  1617.69
                             1684.73  1707.28  1713.30  1741.11  1777.59
                             1792.52  1826.79  1907.34  1955.31  1987.10
                             2033.29  2137.83  2147.97  2158.65  2167.37
                             2175.45  4348.35  4366.74  4403.68  4408.22
                             4438.97  4449.36  4463.16  4473.95  4494.43
                             4551.80

 Zero-point correction=                           0.159733 (Hartree/Particle)
 Thermal correction to Energy=                    0.167204
 Thermal correction to Enthalpy=                  0.168148
 Thermal correction to Gibbs Free Energy=         0.128207
 Sum of electronic and zero-point Energies=           -422.938129
 Sum of electronic and thermal Energies=              -422.930658
 Sum of electronic and thermal Enthalpies=            -422.929714
 Sum of electronic and thermal Free Energies=         -422.969654

                     E (Thermal)             CV                S
                      KCal/Mol        Cal/Mol-Kelvin    Cal/Mol-Kelvin
 Total                  104.922             30.262             84.063
 Electronic               0.000              0.000              0.000
 Translational            0.889              2.981             40.409
 Rotational               0.889              2.981             28.125
 Vibrational            103.145             24.300             15.528
 Vibration     1          0.611              1.925              2.970
 Vibration     2          0.636              1.845              2.168
 Vibration     3          0.638              1.839              2.128
 Vibration     4          0.706              1.634              1.306
 Vibration     5          0.723              1.587              1.193
 Vibration     6          0.759              1.487              0.993
 Vibration     7          0.813              1.351              0.782
 Vibration     8          0.871              1.215              0.620
 Vibration     9          0.945              1.057              0.470

 Normal termination of Gaussian 09 at Mon Jan 27 19:49:25 2020.
