 Gaussian 09, Revision D.01,
 Gaussian 09:  ES64L-G09RevD.01 24-Apr-2013

 -----------------------------
 # b3lyp 6-31G(2df,p) opt Freq
 -----------------------------

 -----
 titel
 -----
 Symbolic Z-matrix:
 Charge =  0 Multiplicity = 1

 SCF Done:  E(RB3LYP) =  -423.156430856     A.U. after   13 cycles
 Optimization completed.
    -- Stationary point found.
 Normal termination of Gaussian 09 at Tue Jan 28 08:11:09 2020.

 ----------------------------------------------------------------------
 #N Geom=AllCheck Guess=TCheck SCRF=Check GenChk RB3LYP/6-31G(2df,p) Fr
 eq
 ----------------------------------------------------------------------

 Structure from the checkpoint file:  "/scratch/puck/g09_ac46b206-0309-4df7-b7c7-100a23544a60/Gau-54995.chk"
 -----
 titel
 -----
 Charge =  0 Multiplicity = 1

                         Standard orientation:
 ---------------------------------------------------------------------
 Center     Atomic      Atomic             Coordinates (Angstroms)
 Number     Number       Type             X           Y           Z
 ---------------------------------------------------------------------
      1          8           0        1.953600   -1.440694   -0.269350
      2          6           0        1.399923   -0.304657    0.380314
      3          6           0        1.437514    0.902467   -0.565620
      4          6           0        0.388206    1.861497    0.021369
      5          6           0       -0.742973    0.957987    0.545362
      6          6           0       -1.600075    0.309855   -0.551985
      7          8           0       -2.332720   -0.764592    0.043258
      8          6           0       -0.975538   -1.006702   -0.344589
      9          6           0       -0.079261   -0.463684    0.778036
     10          1           0        1.986977   -2.163173    0.365585
     11          1           0        1.980622   -0.065625    1.285765
     12          1           0        2.434680    1.343209   -0.637940
     13          1           0        1.153419    0.568056   -1.568927
     14          1           0        0.818851    2.421824    0.859071
     15          1           0        0.033413    2.600603   -0.704471
     16          1           0       -1.315912    1.400932    1.362776
     17          1           0       -2.019138    0.764310   -1.443676
     18          1           0       -0.784983   -1.819460   -1.033983
     19          1           0       -0.221739   -0.948962    1.747216
 ---------------------------------------------------------------------

 SCF Done:  E(RB3LYP) =  -423.156430856     A.U. after    1 cycles

 The electronic state is 1-A.
 Alpha  occ. eigenvalues --  -19.14594 -19.13923 -10.23348 -10.23120 -10.23031
 Alpha  occ. eigenvalues --  -10.19233 -10.18782 -10.18639 -10.17947  -1.07271
 Alpha  occ. eigenvalues --   -1.02053  -0.84421  -0.74282  -0.71246  -0.63560
 Alpha  occ. eigenvalues --   -0.62755  -0.57264  -0.54141  -0.50633  -0.50438
 Alpha  occ. eigenvalues --   -0.49231  -0.44869  -0.42733  -0.41498  -0.37867
 Alpha  occ. eigenvalues --   -0.37028  -0.36116  -0.35238  -0.33527  -0.32611
 Alpha  occ. eigenvalues --   -0.30833  -0.28502  -0.26885  -0.24713
 Alpha virt. eigenvalues --    0.06589   0.08357   0.09494   0.11658   0.12106
 Alpha virt. eigenvalues --    0.13982   0.15099   0.15762   0.16283   0.16861
 Alpha virt. eigenvalues --    0.17291   0.18458   0.20001   0.20435   0.21343

 Mulliken charges:
               1
     1  O   -0.437549
     2  C    0.129783
     3  C   -0.228776
     4  C   -0.233380
     5  C   -0.057763
     6  C    0.030701
     7  O   -0.256923
     8  C    0.040116
     9  C   -0.110105
    10  H    0.283043
    11  H    0.067324
    12  H    0.102036
    13  H    0.114686
    14  H    0.102833
    15  H    0.099919
    16  H    0.076736
    17  H    0.098483
    18  H    0.108541
    19  H    0.070294
 Sum of Mulliken charges =   0.00000

 Dipole moment (field-independent basis, Debye):
    X=              1.3481    Y=              0.6645    Z=              0.6463  Tot=              1.6361
 Quadrupole moment (field-independent basis, Debye-Ang):
   XX=            -60.0181   YY=            -49.3120   ZZ=            -51.4605
   XY=             -2.8287   XZ=              4.5805   YZ=             -2.1971

  Exact polarizability:  76.018  -1.191  78.076   2.447  -0.891  65.467
 Approx polarizability: 108.151  -2.767 114.673   1.783  -1.675 101.429

                      1                      2                      3
                      A                      A                      A
 Frequencies --    129.3992               194.5704               216.4195
 Red. masses --      3.7668                 2.5422                 3.7754
 Frc consts  --      0.0372                 0.0567                 0.1042
 IR Inten    --      2.3591                 2.0781                 1.8376

                      4                      5                      6
                      A                      A                      A
 Frequencies --    287.7288               313.4123               397.4111
 Red. masses --      1.3197                 1.9873                 2.8371
 Frc consts  --      0.0644                 0.1150                 0.2640
 IR Inten    --     83.7599                31.4236                 3.8187

                      7                      8                      9
                      A                      A                      A
 Frequencies --    458.2246               517.6762               594.3286
 Red. masses --      4.9510                 5.7260                 4.1588
 Frc consts  --      0.6125                 0.9041                 0.8655
 IR Inten    --      7.6535                 5.6717                 4.3982

                     10                     11                     12
                      A                      A                      A
 Frequencies --    611.9266               810.3511               825.7972
 Red. masses --      2.3883                 2.1790                 2.0873
 Frc consts  --      0.5269                 0.8431                 0.8386
 IR Inten    --      2.6276                 3.8500                13.5374

                     13                     14                     15
                      A                      A                      A
 Frequencies --    846.5407               868.4913               876.6403
 Red. masses --      4.4356                 3.4270                 2.1956
 Frc consts  --      1.8728                 1.5230                 0.9941
 IR Inten    --      2.5456                 7.7691                17.5730

                     16                     17                     18
                      A                      A                      A
 Frequencies --    896.9982               905.4408               945.4985
 Red. masses --      3.1461                 1.9828                 1.8259
 Frc consts  --      1.4915                 0.9577                 0.9617
 IR Inten    --      4.5277                 0.7572                 0.3751

                     19                     20                     21
                      A                      A                      A
 Frequencies --    958.9999               987.5706              1039.1253
 Red. masses --      1.9981                 1.9955                 2.1884
 Frc consts  --      1.0827                 1.1467                 1.3922
 IR Inten    --      0.3369                22.7149                17.6177

                     22                     23                     24
                      A                      A                      A
 Frequencies --   1060.4602              1068.0776              1096.8390
 Red. masses --      1.3084                 1.7610                 1.9828
 Frc consts  --      0.8669                 1.1836                 1.4054
 IR Inten    --      3.0499                48.1059                 6.7694

                     25                     26                     27
                      A                      A                      A
 Frequencies --   1119.8011              1146.8026              1168.5810
 Red. masses --      3.0500                 1.3119                 1.6542
 Frc consts  --      2.2534                 1.0166                 1.3309
 IR Inten    --     26.5338                 0.2012                16.6065

                     28                     29                     30
                      A                      A                      A
 Frequencies --   1208.9798              1217.1873              1228.5441
 Red. masses --      1.4317                 1.4165                 1.3153
 Frc consts  --      1.2329                 1.2364                 1.1696
 IR Inten    --      9.2232                 3.2758                 1.9291

                     31                     32                     33
                      A                      A                      A
 Frequencies --   1260.5879              1282.7349              1289.2556
 Red. masses --      1.4489                 1.3130                 1.7097
 Frc consts  --      1.3566                 1.2729                 1.6744
 IR Inten    --      4.7657                24.0893                 8.3813

                     34                     35                     36
                      A                      A                      A
 Frequencies --   1309.2739              1333.0012              1350.7307
 Red. masses --      1.3694                 1.5641                 1.4201
 Frc consts  --      1.3831                 1.6375                 1.5266
 IR Inten    --     10.5082                 9.1488                 0.3433

                     37                     38                     39
                      A                      A                      A
 Frequencies --   1375.8255              1378.9862              1431.1398
 Red. masses --      1.6343                 2.8411                 1.5109
 Frc consts  --      1.8227                 3.1831                 1.8232
 IR Inten    --     26.3982                13.6724                 2.5395

                     40                     41                     42
                      A                      A                      A
 Frequencies --   1489.8295              1501.6853              2967.2149
 Red. masses --      1.0818                 1.1089                 1.0835
 Frc consts  --      1.4147                 1.4734                 5.6207
 IR Inten    --      2.6220                 4.0130                48.5749

                     43                     44                     45
                      A                      A                      A
 Frequencies --   3038.0262              3055.9835              3071.7471
 Red. masses --      1.0617                 1.0648                 1.0864
 Frc consts  --      5.7734                 5.8592                 6.0396
 IR Inten    --     29.6864                14.6330                39.3885

                     46                     47                     48
                      A                      A                      A
 Frequencies --   3078.7587              3089.9084              3107.9044
 Red. masses --      1.0981                 1.0879                 1.1038
 Frc consts  --      6.1324                 6.1199                 6.2818
 IR Inten    --     15.2430                46.5702                36.9026

                     49                     50                     51
                      A                      A                      A
 Frequencies --   3170.8648              3203.1234              3818.3720
 Red. masses --      1.0903                 1.0971                 1.0663
 Frc consts  --      6.4586                 6.6318                 9.1595
 IR Inten    --     19.8375                12.2175                21.4441

 - Thermochemistry -
 -------------------
 Temperature   298.150 Kelvin.  Pressure   1.00000 Atm.
 Atom     1 has atomic number  8 and mass  15.99491

 Molecular mass:   126.06808 amu.
 Principal axes and moments of inertia in atomic units:
                           1         2         3
     Eigenvalues --   660.373511093.100771491.27716
           X            0.99996  -0.00024   0.00913
           Y            0.00035   0.99993  -0.01190
           Z           -0.00913   0.01190   0.99989
 This molecule is an asymmetric top.
 Rotational symmetry number  1.
 Warning -- assumption of classical behavior for rotation
           may cause significant error
 Rotational temperatures (Kelvin)      0.13116     0.07924     0.05808
 Rotational constants (GHZ):           2.73291     1.65103     1.21020
 Zero-point vibrational energy     422298.4 (Joules/Mol)
                                  100.93174 (Kcal/Mol)
 Warning -- explicit consideration of  10 degrees of freedom as
           vibrations may cause significant error
 Vibrational temperatures:    186.18   279.94   311.38   413.98   450.93
          (Kelvin)            571.79   659.28   744.82   855.11   880.42
                             1165.91  1188.14  1217.98  1249.56  1261.29
                             1290.58  1302.73  1360.36  1379.79  1420.89
                             1495.07  1525.76  1536.72  1578.10  1611.14
                             1649.99  1681.33  1739.45  1751.26  1767.60
                             1813.70  1845.57  1854.95  1883.75  1917.89
                             1943.40  1979.50  1984.05  2059.09  2143.53
                             2160.59  4269.16  4371.04  4396.87  4419.55
                             4429.64  4445.68  4471.58  4562.16  4608.57
                             5493.78

 Zero-point correction=                           0.160845 (Hartree/Particle)
 Thermal correction to Energy=                    0.168289
 Thermal correction to Enthalpy=                  0.169233
 Thermal correction to Gibbs Free Energy=         0.129153
 Sum of electronic and zero-point Energies=           -422.995586
 Sum of electronic and thermal Energies=              -422.988142
 Sum of electronic and thermal Enthalpies=            -422.987198
 Sum of electronic and thermal Free Energies=         -423.027278

                     E (Thermal)             CV                S
                      KCal/Mol        Cal/Mol-Kelvin    Cal/Mol-Kelvin
 Total                  105.603             30.035             84.356
 Electronic               0.000              0.000              0.000
 Translational            0.889              2.981             40.409
 Rotational               0.889              2.981             28.467
 Vibrational            103.825             24.074             15.481
 Vibration     1          0.612              1.924              2.955
 Vibration     2          0.635              1.847              2.184
 Vibration     3          0.645              1.816              1.989
 Vibration     4          0.685              1.697              1.487
 Vibration     5          0.701              1.648              1.344
 Vibration     6          0.764              1.476              0.972
 Vibration     7          0.816              1.343              0.771
 Vibration     8          0.873              1.211              0.615
 Vibration     9          0.952              1.044              0.460
 Vibration    10          0.971              1.007              0.430

 Normal termination of Gaussian 09 at Tue Jan 28 09:00:17 2020.
