 Gaussian 09, Revision D.01,
 Gaussian 09:  ES64L-G09RevD.01 24-Apr-2013

 -----------------------------
 # b3lyp 6-31G(2df,p) opt Freq
 -----------------------------

 -----
 titel
 -----
 Symbolic Z-matrix:
 Charge =  0 Multiplicity = 1

 SCF Done:  E(RB3LYP) =  -423.101449214     A.U. after   13 cycles
 Optimization completed.
    -- Stationary point found.
 Normal termination of Gaussian 09 at Tue Jan 28 09:24:26 2020.

 ----------------------------------------------------------------------
 #N Geom=AllCheck Guess=TCheck SCRF=Check GenChk RB3LYP/6-31G(2df,p) Fr
 eq
 ----------------------------------------------------------------------

 Structure from the checkpoint file:  "/scratch/puck/g09_c25432d1-0f67-497d-9688-a3fffba5d848/Gau-188999.chk"
 -----
 titel
 -----
 Charge =  0 Multiplicity = 1

                         Standard orientation:
 ---------------------------------------------------------------------
 Center     Atomic      Atomic             Coordinates (Angstroms)
 Number     Number       Type             X           Y           Z
 ---------------------------------------------------------------------
      1          6           0        3.038004   -0.563794   -0.024419
      2          6           0        1.996415    0.279490   -0.773867
      3          6           0        0.650656    0.226492   -0.125315
      4          8           0        0.418078    0.934520    1.094902
      5          6           0       -0.464413    1.167265   -0.005050
      6          6           0       -1.502353   -0.033254   -0.082425
      7          6           0       -2.874670    0.009549   -0.664506
      8          8           0       -1.205704   -0.921724    0.995478
      9          6           0       -0.386778   -0.977403   -0.174980
     10          1           0        4.012012   -0.509204   -0.518970
     11          1           0        3.153582   -0.207602    1.003069
     12          1           0        2.740839   -1.616801    0.017960
     13          1           0        2.319599    1.325337   -0.819234
     14          1           0        1.903691   -0.071200   -1.809937
     15          1           0       -0.593500    2.183729   -0.359629
     16          1           0       -2.866326    0.504194   -1.641677
     17          1           0       -3.268937   -1.002501   -0.788206
     18          1           0       -3.556236    0.566966   -0.011953
     19          1           0       -0.284879   -1.925358   -0.691093
 ---------------------------------------------------------------------

 SCF Done:  E(RB3LYP) =  -423.101449214     A.U. after    1 cycles

 The electronic state is 1-A.
 Alpha  occ. eigenvalues --  -19.15137 -19.15123 -10.24463 -10.24149 -10.23491
 Alpha  occ. eigenvalues --  -10.23476 -10.19543 -10.19200 -10.17924  -1.10259
 Alpha  occ. eigenvalues --   -1.04685  -0.78501  -0.76184  -0.72370  -0.65212
 Alpha  occ. eigenvalues --   -0.63129  -0.56018  -0.55870  -0.50154  -0.48710
 Alpha  occ. eigenvalues --   -0.45736  -0.44947  -0.42938  -0.40982  -0.40335
 Alpha  occ. eigenvalues --   -0.39722  -0.37368  -0.36266  -0.35235  -0.34759
 Alpha  occ. eigenvalues --   -0.32763  -0.28705  -0.24305  -0.24274
 Alpha virt. eigenvalues --    0.05090   0.09207   0.09851   0.10916   0.12323
 Alpha virt. eigenvalues --    0.13195   0.13937   0.14633   0.14759   0.14993
 Alpha virt. eigenvalues --    0.17000   0.17600   0.19025   0.19182   0.21445

 Mulliken charges:
               1
     1  C   -0.378696
     2  C   -0.314023
     3  C    0.436951
     4  O   -0.261187
     5  C   -0.176573
     6  C    0.411695
     7  C   -0.510060
     8  O   -0.255249
     9  C   -0.160197
    10  H    0.114852
    11  H    0.139514
    12  H    0.121186
    13  H    0.114644
    14  H    0.103799
    15  H    0.106733
    16  H    0.126307
    17  H    0.138056
    18  H    0.136239
    19  H    0.106008
 Sum of Mulliken charges =   0.00000

 Dipole moment (field-independent basis, Debye):
    X=             -0.0124    Y=              0.2466    Z=             -3.2613  Tot=              3.2706
 Quadrupole moment (field-independent basis, Debye-Ang):
   XX=            -48.8215   YY=            -51.5019   ZZ=            -56.5368
   XY=             -2.2107   XZ=              1.1324   YZ=              0.2926

  Exact polarizability:  93.477  -3.519  71.959   0.241   0.281  61.176
 Approx polarizability: 116.983  -6.934 111.093  -1.114   0.942 101.449

                      1                      2                      3
                      A                      A                      A
 Frequencies --     73.8098               116.8751               179.2418
 Red. masses --      2.5570                 3.0706                 1.3202
 Frc consts  --      0.0082                 0.0247                 0.0250
 IR Inten    --      0.6844                 0.9727                 0.1671

                      4                      5                      6
                      A                      A                      A
 Frequencies --    193.1171               225.2051               277.8525
 Red. masses --      1.1238                 1.8550                 2.7333
 Frc consts  --      0.0247                 0.0554                 0.1243
 IR Inten    --      0.3005                 0.7160                 0.3853

                      7                      8                      9
                      A                      A                      A
 Frequencies --    325.8478               382.4463               441.9434
 Red. masses --      2.3595                 3.4162                 7.2770
 Frc consts  --      0.1476                 0.2944                 0.8374
 IR Inten    --      0.6098                 0.7315                 0.0977

                     10                     11                     12
                      A                      A                      A
 Frequencies --    496.8715               576.4718               615.9844
 Red. masses --      3.5692                 4.4421                 3.3306
 Frc consts  --      0.5192                 0.8697                 0.7446
 IR Inten    --      1.4028                17.6205                 2.4460

                     13                     14                     15
                      A                      A                      A
 Frequencies --    716.2497               748.3198               781.6337
 Red. masses --      4.8145                 2.1797                 3.1978
 Frc consts  --      1.4552                 0.7191                 1.1511
 IR Inten    --     19.0540                 2.4700                 3.6185

                     16                     17                     18
                      A                      A                      A
 Frequencies --    810.8774               856.3704               886.5294
 Red. masses --      2.4989                 2.2291                 2.3581
 Frc consts  --      0.9681                 0.9632                 1.0920
 IR Inten    --      1.5779                 6.9369                 2.7624

                     19                     20                     21
                      A                      A                      A
 Frequencies --    927.2989               945.6095               984.3427
 Red. masses --      2.2529                 1.9889                 1.7978
 Frc consts  --      1.1414                 1.0478                 1.0263
 IR Inten    --     26.9454                14.3832                 2.7764

                     22                     23                     24
                      A                      A                      A
 Frequencies --   1000.2292              1018.2881              1063.5140
 Red. masses --      2.1423                 2.6007                 2.6407
 Frc consts  --      1.2628                 1.5889                 1.7598
 IR Inten    --     10.9771                 3.2362                 5.9995

                     25                     26                     27
                      A                      A                      A
 Frequencies --   1095.7613              1105.7230              1158.2014
 Red. masses --      1.6716                 1.9495                 1.6437
 Frc consts  --      1.1826                 1.4043                 1.2991
 IR Inten    --     12.0691                 1.5398                 5.9688

                     28                     29                     30
                      A                      A                      A
 Frequencies --   1171.2479              1215.1665              1255.7539
 Red. masses --      1.7813                 1.6429                 1.7726
 Frc consts  --      1.4397                 1.4293                 1.6469
 IR Inten    --     28.8039                 0.6218                 3.9616

                     31                     32                     33
                      A                      A                      A
 Frequencies --   1309.1654              1344.6446              1404.3488
 Red. masses --      1.3017                 1.4989                 1.2694
 Frc consts  --      1.3145                 1.5968                 1.4751
 IR Inten    --      2.7120                 7.3972                 1.9266

                     34                     35                     36
                      A                      A                      A
 Frequencies --   1409.3018              1460.6624              1467.5175
 Red. masses --      1.2334                 2.0667                 1.6977
 Frc consts  --      1.4434                 2.5979                 2.1542
 IR Inten    --      1.7023                 3.8520                11.2558

                     37                     38                     39
                      A                      A                      A
 Frequencies --   1476.0734              1485.3516              1495.1579
 Red. masses --      1.6411                 1.2043                 1.3259
 Frc consts  --      2.1066                 1.5655                 1.7463
 IR Inten    --      4.5498                 9.8480                 0.6661

                     40                     41                     42
                      A                      A                      A
 Frequencies --   1496.8040              1509.3058              3025.9500
 Red. masses --      1.0695                 1.1847                 1.0623
 Frc consts  --      1.4118                 1.5901                 5.7308
 IR Inten    --      6.3550                 5.6389                21.4133

                     43                     44                     45
                      A                      A                      A
 Frequencies --   3032.5824              3040.4691              3070.1373
 Red. masses --      1.0361                 1.0354                 1.0987
 Frc consts  --      5.6141                 5.6395                 6.1017
 IR Inten    --     24.0206                21.8109                 8.9743

                     46                     47                     48
                      A                      A                      A
 Frequencies --   3093.9800              3109.3995              3120.5245
 Red. masses --      1.1002                 1.1013                 1.1007
 Frc consts  --      6.2052                 6.2735                 6.3150
 IR Inten    --     15.5204                33.8606                11.2312

                     49                     50                     51
                      A                      A                      A
 Frequencies --   3120.9911              3181.2901              3182.3771
 Red. masses --      1.1025                 1.0931                 1.0954
 Frc consts  --      6.3273                 6.5183                 6.5364
 IR Inten    --     22.4901                18.0235                 5.3905

 - Thermochemistry -
 -------------------
 Temperature   298.150 Kelvin.  Pressure   1.00000 Atm.
 Atom     1 has atomic number  6 and mass  12.00000

 Molecular mass:   126.06808 amu.
 Principal axes and moments of inertia in atomic units:
                           1         2         3
     Eigenvalues --   473.567281616.140571682.00454
           X            0.99983  -0.01567   0.01021
           Y            0.01591   0.99959  -0.02398
           Z           -0.00983   0.02414   0.99966
 This molecule is an asymmetric top.
 Rotational symmetry number  1.
 Warning -- assumption of classical behavior for rotation
           may cause significant error
 Rotational temperatures (Kelvin)      0.18290     0.05359     0.05149
 Rotational constants (GHZ):           3.81095     1.11670     1.07297
 Zero-point vibrational energy     409618.2 (Joules/Mol)
                                   97.90110 (Kcal/Mol)
 Warning -- explicit consideration of  12 degrees of freedom as
           vibrations may cause significant error
 Vibrational temperatures:    106.20   168.16   257.89   277.85   324.02
          (Kelvin)            399.77   468.82   550.25   635.86   714.89
                              829.41   886.26  1030.52  1076.66  1124.60
                             1166.67  1232.12  1275.52  1334.17  1360.52
                             1416.25  1439.10  1465.09  1530.16  1576.55
                             1590.89  1666.39  1685.16  1748.35  1806.75
                             1883.59  1934.64  2020.54  2027.67  2101.56
                             2111.43  2123.74  2137.09  2151.20  2153.56
                             2171.55  4353.66  4363.20  4374.55  4417.24
                             4451.54  4473.73  4489.73  4490.40  4577.16
                             4578.73

 Zero-point correction=                           0.156015 (Hartree/Particle)
 Thermal correction to Energy=                    0.164913
 Thermal correction to Enthalpy=                  0.165858
 Thermal correction to Gibbs Free Energy=         0.122480
 Sum of electronic and zero-point Energies=           -422.945434
 Sum of electronic and thermal Energies=              -422.936536
 Sum of electronic and thermal Enthalpies=            -422.935592
 Sum of electronic and thermal Free Energies=         -422.978970

                     E (Thermal)             CV                S
                      KCal/Mol        Cal/Mol-Kelvin    Cal/Mol-Kelvin
 Total                  103.485             33.642             91.297
 Electronic               0.000              0.000              0.000
 Translational            0.889              2.981             40.409
 Rotational               0.889              2.981             28.645
 Vibrational            101.707             27.681             22.243
 Vibration     1          0.599              1.966              4.049
 Vibration     2          0.608              1.935              3.151
 Vibration     3          0.629              1.868              2.336
 Vibration     4          0.635              1.849              2.198
 Vibration     5          0.650              1.803              1.917
 Vibration     6          0.679              1.714              1.547
 Vibration     7          0.710              1.624              1.281
 Vibration     8          0.752              1.508              1.029
 Vibration     9          0.802              1.379              0.821
 Vibration    10          0.852              1.257              0.666
 Vibration    11          0.933              1.082              0.492
 Vibration    12          0.976              0.998              0.423

 Optimization completed.
    -- Stationary point found.
 Normal termination of Gaussian 09 at Tue Jan 28 09:57:00 2020.
