 Gaussian 09, Revision D.01,
 Gaussian 09:  ES64L-G09RevD.01 24-Apr-2013

 -----------------------------
 # b3lyp 6-31G(2df,p) opt Freq
 -----------------------------

 -----
 titel
 -----
 Symbolic Z-matrix:
 Charge =  0 Multiplicity = 1

 SCF Done:  E(RB3LYP) =  -423.254379523     A.U. after   14 cycles
 Optimization completed.
    -- Stationary point found.
 Normal termination of Gaussian 09 at Mon Jan 27 12:57:02 2020.

 ----------------------------------------------------------------------
 #N Geom=AllCheck Guess=TCheck SCRF=Check GenChk RB3LYP/6-31G(2df,p) Fr
 eq
 ----------------------------------------------------------------------

 Structure from the checkpoint file:  "/scratch/puck/g09_4c1bd42a-2a7b-403c-84aa-1fbe00b4016f/Gau-73217.chk"
 -----
 titel
 -----
 Charge =  0 Multiplicity = 1

                         Standard orientation:
 ---------------------------------------------------------------------
 Center     Atomic      Atomic             Coordinates (Angstroms)
 Number     Number       Type             X           Y           Z
 ---------------------------------------------------------------------
      1          8           0       -2.630564   -0.094851   -0.400960
      2          6           0       -1.475942   -0.029945   -0.077424
      3          6           0       -0.744453    1.301926    0.095082
      4          6           0        0.771731    1.189040    0.308111
      5          6           0        1.491978    0.669635   -0.962461
      6          6           0        1.386763   -0.883331   -0.874525
      7          6           0        0.629790   -1.143683    0.439873
      8          6           0        1.001925    0.050759    1.317108
      9          8           0       -0.798065   -1.172935    0.196398
     10          1           0       -0.997045    1.919333   -0.772173
     11          1           0       -1.216160    1.785521    0.959283
     12          1           0        1.170268    2.151785    0.638062
     13          1           0        1.044748    1.070021   -1.876393
     14          1           0        2.539629    0.983788   -0.956960
     15          1           0        0.855038   -1.333162   -1.715586
     16          1           0        2.377394   -1.345267   -0.830283
     17          1           0        0.842704   -2.118416    0.880297
     18          1           0        0.388594    0.122817    2.219682
     19          1           0        2.053106   -0.020543    1.615983
 ---------------------------------------------------------------------

 SCF Done:  E(RB3LYP) =  -423.254379523     A.U. after    1 cycles

 The electronic state is 1-A.
 Alpha  occ. eigenvalues --  -19.17214 -19.10992 -10.29910 -10.24952 -10.20345
 Alpha  occ. eigenvalues --  -10.19885 -10.19543 -10.19317 -10.19276  -1.08797
 Alpha  occ. eigenvalues --   -1.00742  -0.85592  -0.77346  -0.72659  -0.68744
 Alpha  occ. eigenvalues --   -0.62948  -0.57848  -0.53678  -0.51242  -0.47791
 Alpha  occ. eigenvalues --   -0.47242  -0.46728  -0.42988  -0.42109  -0.41049
 Alpha  occ. eigenvalues --   -0.39765  -0.36525  -0.36062  -0.35386  -0.34180
 Alpha  occ. eigenvalues --   -0.32992  -0.31638  -0.28283  -0.25554
 Alpha virt. eigenvalues --    0.01601   0.06421   0.08907   0.11683   0.13271
 Alpha virt. eigenvalues --    0.13769   0.14696   0.15547   0.15601   0.16235
 Alpha virt. eigenvalues --    0.16953   0.17718   0.19469   0.20139   0.21500

 Mulliken charges:
               1
     1  O   -0.329025
     2  C    0.404692
     3  C   -0.344577
     4  C   -0.019862
     5  C   -0.217968
     6  C   -0.225684
     7  C    0.126199
     8  C   -0.242994
     9  O   -0.240761
    10  H    0.134427
    11  H    0.136301
    12  H    0.072499
    13  H    0.107323
    14  H    0.104345
    15  H    0.122751
    16  H    0.107207
    17  H    0.090717
    18  H    0.109316
    19  H    0.105095
 Sum of Mulliken charges =   0.00000

 Dipole moment (field-independent basis, Debye):
    X=              4.3097    Y=              1.2241    Z=              0.8462  Tot=              4.5594
 Quadrupole moment (field-independent basis, Debye-Ang):
   XX=            -62.0503   YY=            -51.9229   ZZ=            -51.2852
   XY=             -3.2359   XZ=             -1.6380   YZ=             -0.0568

  Exact polarizability:  83.033  -3.390  71.849   1.796  -0.347  66.486
 Approx polarizability: 121.988  -4.479 104.531   6.239  -1.434  98.783

                      1                      2                      3
                      A                      A                      A
 Frequencies --     87.2042               121.4503               334.4065
 Red. masses --      4.1478                 2.3592                 1.9737
 Frc consts  --      0.0186                 0.0205                 0.1300
 IR Inten    --      2.3642                 0.6160                 1.9112

                      4                      5                      6
                      A                      A                      A
 Frequencies --    372.6017               404.7248               441.3255
 Red. masses --      2.5528                 4.0110                 3.0631
 Frc consts  --      0.2088                 0.3871                 0.3515
 IR Inten    --      1.0037                 1.5887                 2.0018

                      7                      8                      9
                      A                      A                      A
 Frequencies --    497.1904               560.4273               587.7870
 Red. masses --      4.2585                 3.1893                 3.4300
 Frc consts  --      0.6202                 0.5902                 0.6982
 IR Inten    --      1.9861                 5.5827                 4.1267

                     10                     11                     12
                      A                      A                      A
 Frequencies --    729.3472               745.5246               798.3494
 Red. masses --      5.2234                 2.8444                 1.5897
 Frc consts  --      1.6371                 0.9315                 0.5970
 IR Inten    --      2.0612                 2.1778                 1.0497

                     13                     14                     15
                      A                      A                      A
 Frequencies --    836.4899               848.4370               886.1537
 Red. masses --      3.0477                 3.3708                 2.4701
 Frc consts  --      1.2564                 1.4296                 1.1428
 IR Inten    --      2.1824                 7.5091                 1.7200

                     16                     17                     18
                      A                      A                      A
 Frequencies --    906.2916               935.7823               970.0846
 Red. masses --      2.8129                 1.8391                 1.7679
 Frc consts  --      1.3613                 0.9489                 0.9802
 IR Inten    --      4.1304                 4.6964                 2.4639

                     19                     20                     21
                      A                      A                      A
 Frequencies --    991.9612              1014.5875              1032.4590
 Red. masses --      2.3310                 2.3287                 2.8720
 Frc consts  --      1.3514                 1.4124                 1.8038
 IR Inten    --     14.3698                14.9695                36.4376

                     22                     23                     24
                      A                      A                      A
 Frequencies --   1074.6548              1089.9973              1140.6615
 Red. masses --      1.4352                 1.9399                 1.4341
 Frc consts  --      0.9766                 1.3579                 1.0993
 IR Inten    --      8.9850                37.6277                59.7097

                     25                     26                     27
                      A                      A                      A
 Frequencies --   1180.9593              1196.0314              1209.6342
 Red. masses --      1.3720                 1.3535                 1.7438
 Frc consts  --      1.1274                 1.1407                 1.5033
 IR Inten    --     11.2952                20.9285                71.1001

                     28                     29                     30
                      A                      A                      A
 Frequencies --   1241.1316              1264.1057              1281.3464
 Red. masses --      1.8448                 1.3003                 1.4615
 Frc consts  --      1.6743                 1.2243                 1.4138
 IR Inten    --     60.3931                10.4112                 3.7774

                     31                     32                     33
                      A                      A                      A
 Frequencies --   1311.7986              1326.3648              1352.7669
 Red. masses --      1.3404                 1.8013                 1.5665
 Frc consts  --      1.3590                 1.8671                 1.6890
 IR Inten    --      0.4172                 3.1000                 2.5459

                     34                     35                     36
                      A                      A                      A
 Frequencies --   1356.3491              1375.5261              1403.6946
 Red. masses --      1.4783                 1.4932                 1.4331
 Frc consts  --      1.6023                 1.6646                 1.6637
 IR Inten    --      0.2102                10.6819                40.9921

                     37                     38                     39
                      A                      A                      A
 Frequencies --   1457.0088              1482.1100              1486.3657
 Red. masses --      1.0818                 1.0865                 1.0949
 Frc consts  --      1.3530                 1.4062                 1.4253
 IR Inten    --      2.9863                 4.6702                 3.4495

                     40                     41                     42
                      A                      A                      A
 Frequencies --   1511.1074              1843.3031              3042.5592
 Red. masses --      1.0978                12.7397                 1.0652
 Frc consts  --      1.4770                25.5037                 5.8099
 IR Inten    --      2.8307               346.3237                10.0114

                     43                     44                     45
                      A                      A                      A
 Frequencies --   3049.6715              3053.3437              3064.5534
 Red. masses --      1.0614                 1.0621                 1.0653
 Frc consts  --      5.8164                 5.8339                 5.8949
 IR Inten    --     15.4638                18.4407                30.7749

                     46                     47                     48
                      A                      A                      A
 Frequencies --   3076.5096              3090.2689              3094.3750
 Red. masses --      1.0838                 1.0984                 1.1021
 Frc consts  --      6.0437                 6.1800                 6.2173
 IR Inten    --     40.7912                 5.8388                13.3953

                     49                     50                     51
                      A                      A                      A
 Frequencies --   3102.7425              3109.5482              3118.8633
 Red. masses --      1.1044                 1.0891                 1.1030
 Frc consts  --      6.2642                 6.2045                 6.3217
 IR Inten    --     21.9344                28.5739                30.2828

 - Thermochemistry -
 -------------------
 Temperature   298.150 Kelvin.  Pressure   1.00000 Atm.
 Atom     1 has atomic number  8 and mass  15.99491

 Molecular mass:   126.06808 amu.
 Principal axes and moments of inertia in atomic units:
                           1         2         3
     Eigenvalues --   635.587551129.443291291.15069
           X            0.99953  -0.02732  -0.01398
           Y            0.02747   0.99957   0.01071
           Z            0.01368  -0.01109   0.99984
 This molecule is an asymmetric top.
 Rotational symmetry number  1.
 Warning -- assumption of classical behavior for rotation
           may cause significant error
 Rotational temperatures (Kelvin)      0.13627     0.07669     0.06708
 Rotational constants (GHZ):           2.83948     1.59790     1.39778
 Zero-point vibrational energy     427604.8 (Joules/Mol)
                                  102.20000 (Kcal/Mol)
 Warning -- explicit consideration of   9 degrees of freedom as
           vibrations may cause significant error
 Vibrational temperatures:    125.47   174.74   481.14   536.09   582.31
          (Kelvin)            634.97   715.35   806.33   845.69  1049.37
                             1072.64  1148.65  1203.52  1220.71  1274.98
                             1303.95  1346.38  1395.73  1427.21  1459.76
                             1485.48  1546.19  1568.26  1641.16  1699.13
                             1720.82  1740.39  1785.71  1818.76  1843.57
                             1887.38  1908.34  1946.33  1951.48  1979.07
                             2019.60  2096.31  2132.42  2138.55  2174.14
                             2652.10  4377.56  4387.79  4393.08  4409.20
                             4426.41  4446.20  4452.11  4464.15  4473.94
                             4487.34

 Zero-point correction=                           0.162866 (Hartree/Particle)
 Thermal correction to Energy=                    0.169975
 Thermal correction to Enthalpy=                  0.170920
 Thermal correction to Gibbs Free Energy=         0.131141
 Sum of electronic and zero-point Energies=           -423.091513
 Sum of electronic and thermal Energies=              -423.084404
 Sum of electronic and thermal Enthalpies=            -423.083460
 Sum of electronic and thermal Free Energies=         -423.123239

                     E (Thermal)             CV                S
                      KCal/Mol        Cal/Mol-Kelvin    Cal/Mol-Kelvin
 Total                  106.661             28.612             83.721
 Electronic               0.000              0.000              0.000
 Translational            0.889              2.981             40.409
 Rotational               0.889              2.981             28.318
 Vibrational            104.884             22.650             14.995
 Vibration     1          0.601              1.958              3.722
 Vibration     2          0.609              1.931              3.077
 Vibration     3          0.716              1.607              1.239
 Vibration     4          0.744              1.528              1.069
 Vibration     5          0.770              1.460              0.945
 Vibration     6          0.801              1.380              0.822
 Vibration     7          0.853              1.256              0.665
 Vibration     8          0.916              1.117              0.523
 Vibration     9          0.945              1.058              0.471

 Normal termination of Gaussian 09 at Mon Jan 27 13:44:13 2020.
