 Gaussian 09, Revision D.01,
 Gaussian 09:  ES64L-G09RevD.01 24-Apr-2013

 -----------------------------
 # b3lyp 6-31G(2df,p) opt Freq
 -----------------------------

 -----
 titel
 -----
 Symbolic Z-matrix:
 Charge =  0 Multiplicity = 1

 SCF Done:  E(RB3LYP) =  -423.167443708     A.U. after   14 cycles
 Optimization completed.
    -- Stationary point found.
 Normal termination of Gaussian 09 at Mon Jan 27 16:24:24 2020.

 ----------------------------------------------------------------------
 #N Geom=AllCheck Guess=TCheck SCRF=Check GenChk RB3LYP/6-31G(2df,p) Fr
 eq
 ----------------------------------------------------------------------

 Structure from the checkpoint file:  "/scratch/puck/g09_b74ea4eb-aad1-41e7-b9ec-0c60f943d91a/Gau-37058.chk"
 -----
 titel
 -----
 Charge =  0 Multiplicity = 1

                         Standard orientation:
 ---------------------------------------------------------------------
 Center     Atomic      Atomic             Coordinates (Angstroms)
 Number     Number       Type             X           Y           Z
 ---------------------------------------------------------------------
      1          6           0       -1.908674    1.523759   -0.146933
      2          6           0       -1.250020    0.174849    0.035492
      3          6           0       -2.005991   -0.901366    0.714061
      4          8           0       -1.867202   -0.905772   -0.702617
      5          6           0        0.230819    0.135453    0.036774
      6          6           0        1.086680    1.150706    0.144488
      7          6           0        2.498507    0.646495    0.079294
      8          8           0        2.385472   -0.765777   -0.063577
      9          6           0        1.015251   -1.145150   -0.136147
     10          1           0       -2.993595    1.408326   -0.197523
     11          1           0       -1.667828    2.191086    0.686830
     12          1           0       -1.566893    1.997138   -1.072234
     13          1           0       -1.480386   -1.694492    1.242623
     14          1           0       -3.005229   -0.680996    1.089245
     15          1           0        0.840957    2.198414    0.258971
     16          1           0        3.053240    1.071119   -0.773728
     17          1           0        3.076582    0.884259    0.986683
     18          1           0        0.797769   -1.623749   -1.101618
     19          1           0        0.799784   -1.887189    0.648123
 ---------------------------------------------------------------------

 SCF Done:  E(RB3LYP) =  -423.167443708     A.U. after    1 cycles

 The electronic state is 1-A.
 Alpha  occ. eigenvalues --  -19.15534 -19.13213 -10.25418 -10.23821 -10.23053
 Alpha  occ. eigenvalues --  -10.22801 -10.19489 -10.18813 -10.18786  -1.07486
 Alpha  occ. eigenvalues --   -1.03095  -0.80783  -0.74593  -0.73399  -0.66585
 Alpha  occ. eigenvalues --   -0.62371  -0.60046  -0.54147  -0.52021  -0.48257
 Alpha  occ. eigenvalues --   -0.47343  -0.44593  -0.43312  -0.41628  -0.40961
 Alpha  occ. eigenvalues --   -0.40651  -0.39858  -0.37281  -0.35410  -0.32274
 Alpha  occ. eigenvalues --   -0.31724  -0.27800  -0.26198  -0.22927
 Alpha virt. eigenvalues --    0.00602   0.09175   0.10232   0.10789   0.11556
 Alpha virt. eigenvalues --    0.12648   0.13727   0.13760   0.15645   0.15789
 Alpha virt. eigenvalues --    0.17173   0.18227   0.18835   0.19590   0.21497

 Mulliken charges:
               1
     1  C   -0.479630
     2  C    0.312435
     3  C   -0.227284
     4  O   -0.270589
     5  C    0.289000
     6  C   -0.253008
     7  C   -0.099789
     8  O   -0.268415
     9  C   -0.157355
    10  H    0.129062
    11  H    0.126476
    12  H    0.132601
    13  H    0.116753
    14  H    0.115435
    15  H    0.100827
    16  H    0.105172
    17  H    0.105099
    18  H    0.121425
    19  H    0.101785
 Sum of Mulliken charges =   0.00000

 Dipole moment (field-independent basis, Debye):
    X=             -1.0109    Y=              1.8506    Z=              1.4594  Tot=              2.5644
 Quadrupole moment (field-independent basis, Debye-Ang):
   XX=            -55.7202   YY=            -51.2535   ZZ=            -53.7958
   XY=              2.1273   XZ=             -2.9962   YZ=             -1.8942

  Exact polarizability:  95.164  11.566  82.487  -2.137  -2.159  57.903
 Approx polarizability: 127.288  25.270 127.153  -0.603   0.276  92.831

                      1                      2                      3
                      A                      A                      A
 Frequencies --     51.2152                91.3358               165.2798
 Red. masses --      3.0927                 2.8452                 2.9725
 Frc consts  --      0.0048                 0.0140                 0.0478
 IR Inten    --      0.3984                 5.7161                 2.1811

                      4                      5                      6
                      A                      A                      A
 Frequencies --    184.8876               210.7318               320.3109
 Red. masses --      3.7168                 1.0658                 3.3251
 Frc consts  --      0.0749                 0.0279                 0.2010
 IR Inten    --      0.7003                 0.2132                 1.2708

                      7                      8                      9
                      A                      A                      A
 Frequencies --    342.3669               388.8862               435.8299
 Red. masses --      2.4601                 2.4966                 4.2942
 Frc consts  --      0.1699                 0.2225                 0.4806
 IR Inten    --      1.9713                 3.0592                 2.0645

                     10                     11                     12
                      A                      A                      A
 Frequencies --    530.5214               559.0309               765.1558
 Red. masses --      3.3049                 2.6991                 6.5277
 Frc consts  --      0.5480                 0.4970                 2.2517
 IR Inten    --      4.4859                 2.9923                 7.6152

                     13                     14                     15
                      A                      A                      A
 Frequencies --    786.4608               817.5363               857.6611
 Red. masses --      4.8645                 1.6890                 2.1534
 Frc consts  --      1.7727                 0.6651                 0.9333
 IR Inten    --     18.3897                19.4466                 3.1178

                     16                     17                     18
                      A                      A                      A
 Frequencies --    905.4864               925.2973               930.2813
 Red. masses --      2.4549                 1.9861                 2.7162
 Frc consts  --      1.1859                 1.0019                 1.3850
 IR Inten    --     15.6354                 8.3257                 6.5847

                     19                     20                     21
                      A                      A                      A
 Frequencies --    976.4078              1020.8649              1027.2344
 Red. masses --      2.2047                 2.2110                 1.6342
 Frc consts  --      1.2384                 1.3576                 1.0160
 IR Inten    --      5.5589                 2.4771                16.1334

                     22                     23                     24
                      A                      A                      A
 Frequencies --   1063.9892              1082.2797              1098.9328
 Red. masses --      1.6851                 2.7136                 1.7915
 Frc consts  --      1.1240                 1.8727                 1.2747
 IR Inten    --      0.7185                33.7138                 9.9532

                     25                     26                     27
                      A                      A                      A
 Frequencies --   1135.5682              1140.1157              1163.9483
 Red. masses --      2.3642                 1.6923                 1.3790
 Frc consts  --      1.7962                 1.2961                 1.1007
 IR Inten    --     36.1244                18.1711                 3.1450

                     28                     29                     30
                      A                      A                      A
 Frequencies --   1173.9297              1224.3136              1267.9910
 Red. masses --      1.0891                 1.0637                 1.7838
 Frc consts  --      0.8843                 0.9394                 1.6898
 IR Inten    --      1.6340                 0.0175                 7.0306

                     31                     32                     33
                      A                      A                      A
 Frequencies --   1322.0277              1367.4936              1379.8261
 Red. masses --      1.7928                 2.9383                 2.1946
 Frc consts  --      1.8461                 3.2374                 2.4618
 IR Inten    --     15.7060                18.9614                 1.3572

                     34                     35                     36
                      A                      A                      A
 Frequencies --   1394.7626              1415.4137              1483.1180
 Red. masses --      1.5062                 1.4589                 1.0467
 Frc consts  --      1.7264                 1.7221                 1.3565
 IR Inten    --      6.9863                12.0120                 4.9402

                     37                     38                     39
                      A                      A                      A
 Frequencies --   1497.3395              1516.8059              1525.6654
 Red. masses --      1.0637                 1.0843                 1.2345
 Frc consts  --      1.4052                 1.4698                 1.6930
 IR Inten    --      2.4339                 2.5732                 1.5527

                     40                     41                     42
                      A                      A                      A
 Frequencies --   1529.1071              1718.7592              2965.1050
 Red. masses --      1.0873                 7.6664                 1.0585
 Frc consts  --      1.4978                13.3435                 5.4831
 IR Inten    --      0.6414                 1.3424               115.1647

                     43                     44                     45
                      A                      A                      A
 Frequencies --   2980.2817              2983.6813              3012.1430
 Red. masses --      1.0932                 1.0732                 1.0966
 Frc consts  --      5.7208                 5.6293                 5.8618
 IR Inten    --     42.6419                45.2476                34.3232

                     46                     47                     48
                      A                      A                      A
 Frequencies --   3042.6436              3081.4099              3109.5220
 Red. masses --      1.0358                 1.0507                 1.1009
 Frc consts  --      5.6496                 5.8778                 6.2715
 IR Inten    --     12.5894                28.6009                14.8111

                     49                     50                     51
                      A                      A                      A
 Frequencies --   3130.3607              3169.1352              3219.8803
 Red. masses --      1.1016                 1.1187                 1.0949
 Frc consts  --      6.3603                 6.6198                 6.6881
 IR Inten    --     15.2191                23.4003                 5.7417

 - Thermochemistry -
 -------------------
 Temperature   298.150 Kelvin.  Pressure   1.00000 Atm.
 Atom     1 has atomic number  6 and mass  12.00000

 Molecular mass:   126.06808 amu.
 Principal axes and moments of inertia in atomic units:
                           1         2         3
     Eigenvalues --   525.250421530.953911895.32207
           X            0.99995  -0.00550  -0.00891
           Y            0.00528   0.99969  -0.02444
           Z            0.00904   0.02439   0.99966
 This molecule is an asymmetric top.
 Rotational symmetry number  1.
 Warning -- assumption of classical behavior for rotation
           may cause significant error
 Rotational temperatures (Kelvin)      0.16490     0.05658     0.04570
 Rotational constants (GHZ):           3.43596     1.17883     0.95221
 Zero-point vibrational energy     415632.5 (Joules/Mol)
                                   99.33856 (Kcal/Mol)
 Warning -- explicit consideration of  11 degrees of freedom as
           vibrations may cause significant error
 Vibrational temperatures:     73.69   131.41   237.80   266.01   303.20
          (Kelvin)            460.86   492.59   559.52   627.06   763.30
                              804.32  1100.89  1131.54  1176.25  1233.98
                             1302.79  1331.29  1338.47  1404.83  1468.80
                             1477.96  1530.84  1557.16  1581.12  1633.83
                             1640.37  1674.66  1689.02  1761.51  1824.35
                             1902.10  1967.52  1985.26  2006.75  2036.46
                             2133.87  2154.33  2182.34  2195.09  2200.04
                             2472.91  4266.12  4287.96  4292.85  4333.80
                             4377.68  4433.46  4473.90  4503.89  4559.67
                             4632.68

 Zero-point correction=                           0.158306 (Hartree/Particle)
 Thermal correction to Energy=                    0.167039
 Thermal correction to Enthalpy=                  0.167983
 Thermal correction to Gibbs Free Energy=         0.124271
 Sum of electronic and zero-point Energies=           -423.009138
 Sum of electronic and thermal Energies=              -423.000405
 Sum of electronic and thermal Enthalpies=            -422.999461
 Sum of electronic and thermal Free Energies=         -423.043173

                     E (Thermal)             CV                S
                      KCal/Mol        Cal/Mol-Kelvin    Cal/Mol-Kelvin
 Total                  104.818             32.138             91.999
 Electronic               0.000              0.000              0.000
 Translational            0.889              2.981             40.409
 Rotational               0.889              2.981             28.812
 Vibrational            103.041             26.176             22.778
 Vibration     1          0.595              1.977              4.770
 Vibration     2          0.602              1.955              3.631
 Vibration     3          0.624              1.885              2.488
 Vibration     4          0.631              1.860              2.278
 Vibration     5          0.643              1.824              2.037
 Vibration     6          0.706              1.635              1.309
 Vibration     7          0.721              1.591              1.201
 Vibration     8          0.757              1.494              1.004
 Vibration     9          0.796              1.392              0.840
 Vibration    10          0.885              1.182              0.586
 Vibration    11          0.915              1.120              0.526

 Normal termination of Gaussian 09 at Mon Jan 27 17:15:53 2020.
