 Gaussian 09, Revision D.01,
 Gaussian 09:  ES64L-G09RevD.01 24-Apr-2013

 -----------------------------
 # b3lyp 6-31G(2df,p) opt Freq
 -----------------------------

 -----
 titel
 -----
 Symbolic Z-matrix:
 Charge =  0 Multiplicity = 1

 SCF Done:  E(RB3LYP) =  -423.144636827     A.U. after   14 cycles
 Optimization completed.
    -- Stationary point found.
 Normal termination of Gaussian 09 at Mon Jan 27 14:06:14 2020.

 ----------------------------------------------------------------------
 #N Geom=AllCheck Guess=TCheck SCRF=Check GenChk RB3LYP/6-31G(2df,p) Fr
 eq
 ----------------------------------------------------------------------

 Structure from the checkpoint file:  "/scratch/puck/g09_f9b27c40-4ea9-458c-9de0-16539db8fe56/Gau-4359.chk"
 -----
 titel
 -----
 Charge =  0 Multiplicity = 1

                         Standard orientation:
 ---------------------------------------------------------------------
 Center     Atomic      Atomic             Coordinates (Angstroms)
 Number     Number       Type             X           Y           Z
 ---------------------------------------------------------------------
      1          6           0       -4.053085   -0.127923   -0.452562
      2          6           0       -2.658636   -0.097028   -0.034594
      3          6           0       -1.506877   -0.077370    0.320736
      4          6           0       -0.114537   -0.043328    0.711047
      5          6           0        0.780141   -1.315104    0.535298
      6          6           0        1.947209   -0.384300    0.152049
      7          8           0        2.801443   -0.881645   -0.845679
      8          6           0        0.917209    0.704540   -0.204716
      9          8           0        1.305080    2.015311    0.109345
     10          1           0       -4.716908    0.227367    0.343626
     11          1           0       -4.222435    0.505742   -1.330549
     12          1           0       -4.367643   -1.144225   -0.715249
     13          1           0       -0.003283    0.345258    1.729581
     14          1           0        0.903811   -1.968785    1.398829
     15          1           0        0.463459   -1.902920   -0.328982
     16          1           0        2.501731   -0.065350    1.047164
     17          1           0        3.496610   -0.232735   -0.995781
     18          1           0        0.619679    0.593671   -1.256456
     19          1           0        0.604254    2.615721   -0.165066
 ---------------------------------------------------------------------

 SCF Done:  E(RB3LYP) =  -423.144636827     A.U. after    1 cycles

 The electronic state is 1-A.
 Alpha  occ. eigenvalues --  -19.14258 -19.13665 -10.23030 -10.22990 -10.20309
 Alpha  occ. eigenvalues --  -10.20145 -10.18369 -10.16932 -10.16396  -1.02989
 Alpha  occ. eigenvalues --   -1.01621  -0.84339  -0.77015  -0.71171  -0.65399
 Alpha  occ. eigenvalues --   -0.64658  -0.56558  -0.54168  -0.51540  -0.47516
 Alpha  occ. eigenvalues --   -0.45475  -0.44311  -0.42521  -0.42313  -0.41607
 Alpha  occ. eigenvalues --   -0.38299  -0.36273  -0.35658  -0.34297  -0.31969
 Alpha  occ. eigenvalues --   -0.28076  -0.26690  -0.24233  -0.23225
 Alpha virt. eigenvalues --    0.05223   0.06004   0.07972   0.08508   0.11163
 Alpha virt. eigenvalues --    0.11246   0.12818   0.15868   0.17098   0.17779
 Alpha virt. eigenvalues --    0.18060   0.18431   0.20857   0.21336   0.22465

 Mulliken charges:
               1
     1  C   -0.498849
     2  C    0.109394
     3  C    0.022119
     4  C   -0.213891
     5  C   -0.263370
     6  C    0.116172
     7  O   -0.434904
     8  C    0.090379
     9  O   -0.436822
    10  H    0.146491
    11  H    0.144540
    12  H    0.147883
    13  H    0.101977
    14  H    0.110391
    15  H    0.123373
    16  H    0.077330
    17  H    0.286660
    18  H    0.081834
    19  H    0.289294
 Sum of Mulliken charges =   0.00000

 Dipole moment (field-independent basis, Debye):
    X=             -0.9736    Y=              1.0961    Z=             -0.2148  Tot=              1.4817
 Quadrupole moment (field-independent basis, Debye-Ang):
   XX=            -46.1306   YY=            -53.2755   ZZ=            -52.6245
   XY=              0.8277   XZ=              1.8898   YZ=             -3.0176

  Exact polarizability: 115.571   0.157  68.029   6.419  -1.007  62.903
 Approx polarizability: 154.786   1.580  96.925  13.874   0.738  95.829

                      1                      2                      3
                      A                      A                      A
 Frequencies --     16.5847                64.8396                86.4586
 Red. masses --      1.0229                 4.3227                 3.7270
 Frc consts  --      0.0002                 0.0107                 0.0164
 IR Inten    --      0.0049                 0.4881                 0.4076

                      4                      5                      6
                      A                      A                      A
 Frequencies --    157.7482               232.6275               258.7994
 Red. masses --      3.2486                 2.8649                 2.3367
 Frc consts  --      0.0476                 0.0913                 0.0922
 IR Inten    --      1.2240                21.5045                13.8904

                      7                      8                      9
                      A                      A                      A
 Frequencies --    277.9610               300.7095               305.7039
 Red. masses --      1.3765                 2.4865                 1.5543
 Frc consts  --      0.0627                 0.1325                 0.0856
 IR Inten    --     56.1041                20.4214               120.3714

                     10                     11                     12
                      A                      A                      A
 Frequencies --    357.0490               400.0148               451.2766
 Red. masses --      3.3636                 4.2158                 5.9578
 Frc consts  --      0.2526                 0.3974                 0.7149
 IR Inten    --     29.7887                 0.1072                 1.0138

                     13                     14                     15
                      A                      A                      A
 Frequencies --    501.1167               535.0441               578.6156
 Red. masses --      4.0790                 4.0497                 2.8274
 Frc consts  --      0.6035                 0.6831                 0.5577
 IR Inten    --     12.4067                 2.8880                 6.1407

                     16                     17                     18
                      A                      A                      A
 Frequencies --    776.4589               849.6532               907.5527
 Red. masses --      2.9108                 1.9158                 2.5690
 Frc consts  --      1.0339                 0.8149                 1.2467
 IR Inten    --      4.7722                 3.4463                 5.2230

                     19                     20                     21
                      A                      A                      A
 Frequencies --    929.4344              1018.0329              1050.9425
 Red. masses --      3.7543                 2.9749                 1.4971
 Frc consts  --      1.9108                 1.8165                 0.9742
 IR Inten    --      8.0726                11.5757                 5.9039

                     22                     23                     24
                      A                      A                      A
 Frequencies --   1052.0117              1059.6070              1080.6990
 Red. masses --      1.3888                 1.5585                 2.0603
 Frc consts  --      0.9056                 1.0310                 1.4177
 IR Inten    --      0.9817                23.4858                 4.0012

                     25                     26                     27
                      A                      A                      A
 Frequencies --   1118.5908              1141.0602              1195.6909
 Red. masses --      3.5572                 2.9508                 1.1065
 Frc consts  --      2.6224                 2.2637                 0.9321
 IR Inten    --    103.1565                91.5890                 5.6855

                     28                     29                     30
                      A                      A                      A
 Frequencies --   1200.1535              1216.4967              1232.5183
 Red. masses --      2.1237                 1.5721                 1.4245
 Frc consts  --      1.8023                 1.3708                 1.2750
 IR Inten    --     12.5479                21.7946                 5.3856

                     31                     32                     33
                      A                      A                      A
 Frequencies --   1252.6786              1293.2419              1316.9743
 Red. masses --      1.2714                 1.2804                 1.3831
 Frc consts  --      1.1754                 1.2617                 1.4134
 IR Inten    --     23.6201                65.8513                60.8933

                     34                     35                     36
                      A                      A                      A
 Frequencies --   1366.5999              1415.4341              1416.0833
 Red. masses --      1.6983                 1.2719                 1.3903
 Frc consts  --      1.8688                 1.5013                 1.6427
 IR Inten    --     11.2271                 6.8713                 5.9874

                     37                     38                     39
                      A                      A                      A
 Frequencies --   1452.4575              1478.8681              1479.1891
 Red. masses --      1.3781                 1.0398                 1.0398
 Frc consts  --      1.7129                 1.3399                 1.3404
 IR Inten    --      8.1401                 5.0727                 5.1542

                     40                     41                     42
                      A                      A                      A
 Frequencies --   1496.1730              2364.8711              2995.4161
 Red. masses --      1.2170                11.8416                 1.0832
 Frc consts  --      1.6051                39.0190                 5.7263
 IR Inten    --     11.2750                 0.3723                22.2778

                     43                     44                     45
                      A                      A                      A
 Frequencies --   3017.4954              3024.2222              3046.8261
 Red. masses --      1.0845                 1.0348                 1.0833
 Frc consts  --      5.8182                 5.5763                 5.9250
 IR Inten    --     31.6068                40.1382                26.6742

                     46                     47                     48
                      A                      A                      A
 Frequencies --   3082.5194              3083.0316              3084.6048
 Red. masses --      1.0588                 1.0993                 1.1001
 Frc consts  --      5.9275                 6.1562                 6.1670
 IR Inten    --     16.0573                14.3167                11.8783

                     49                     50                     51
                      A                      A                      A
 Frequencies --   3143.9894              3814.1362              3815.5708
 Red. masses --      1.1092                 1.0661                 1.0660
 Frc consts  --      6.4601                 9.1374                 9.1440
 IR Inten    --     21.0697                21.5852                28.4160

 - Thermochemistry -
 -------------------
 Temperature   298.150 Kelvin.  Pressure   1.00000 Atm.
 Atom     1 has atomic number  6 and mass  12.00000

 Molecular mass:   126.06808 amu.
 Principal axes and moments of inertia in atomic units:
                           1         2         3
     Eigenvalues --   570.213942291.532722599.44491
           X            0.99994   0.00064   0.01131
           Y           -0.00034   0.99965  -0.02662
           Z           -0.01133   0.02662   0.99958
 This molecule is an asymmetric top.
 Rotational symmetry number  1.
 Warning -- assumption of classical behavior for rotation
           may cause significant error
 Rotational temperatures (Kelvin)      0.15190     0.03780     0.03332
 Rotational constants (GHZ):           3.16502     0.78757     0.69428
 Zero-point vibrational energy     411478.5 (Joules/Mol)
                                   98.34572 (Kcal/Mol)
 Warning -- explicit consideration of  15 degrees of freedom as
           vibrations may cause significant error
 Vibrational temperatures:     23.86    93.29   124.39   226.96   334.70
          (Kelvin)            372.35   399.92   432.65   439.84   513.71
                              575.53   649.29   720.99   769.81   832.50
                             1117.15  1222.46  1305.76  1337.25  1464.72
                             1512.07  1513.61  1524.54  1554.88  1609.40
                             1641.73  1720.33  1726.75  1750.27  1773.32
                             1802.32  1860.68  1894.83  1966.23  2036.49
                             2037.43  2089.76  2127.76  2128.22  2152.66
                             3402.52  4309.73  4341.50  4351.18  4383.70
                             4435.05  4435.79  4438.05  4523.49  5487.68
                             5489.75

 Zero-point correction=                           0.156724 (Hartree/Particle)
 Thermal correction to Energy=                    0.167036
 Thermal correction to Enthalpy=                  0.167980
 Thermal correction to Gibbs Free Energy=         0.119695
 Sum of electronic and zero-point Energies=           -422.987913
 Sum of electronic and thermal Energies=              -422.977601
 Sum of electronic and thermal Enthalpies=            -422.976657
 Sum of electronic and thermal Free Energies=         -423.024942

                     E (Thermal)             CV                S
                      KCal/Mol        Cal/Mol-Kelvin    Cal/Mol-Kelvin
 Total                  104.817             36.495            101.624
 Electronic               0.000              0.000              0.000
 Translational            0.889              2.981             40.409
 Rotational               0.889              2.981             29.609
 Vibrational            103.039             30.533             31.607
 Vibration     1          0.593              1.986              7.006
 Vibration     2          0.597              1.971              4.304
 Vibration     3          0.601              1.959              3.739
 Vibration     4          0.621              1.894              2.577
 Vibration     5          0.653              1.791              1.859
 Vibration     6          0.668              1.748              1.670
 Vibration     7          0.679              1.714              1.546
 Vibration     8          0.693              1.672              1.413
 Vibration     9          0.696              1.663              1.385
 Vibration    10          0.732              1.561              1.135
 Vibration    11          0.766              1.470              0.963
 Vibration    12          0.810              1.358              0.792
 Vibration    13          0.856              1.248              0.655
 Vibration    14          0.890              1.173              0.576
 Vibration    15          0.935              1.078              0.488

 Normal termination of Gaussian 09 at Mon Jan 27 15:37:58 2020.
