 Gaussian 09, Revision D.01,
 Gaussian 09:  ES64L-G09RevD.01 24-Apr-2013

 -----------------------------
 # b3lyp 6-31G(2df,p) opt Freq
 -----------------------------

 -----
 titel
 -----
 Symbolic Z-matrix:
 Charge =  0 Multiplicity = 1

 SCF Done:  E(RB3LYP) =  -423.174805480     A.U. after   14 cycles
 Optimization completed.
    -- Stationary point found.
 Normal termination of Gaussian 09 at Tue Jan 28 08:12:23 2020.

 ----------------------------------------------------------------------
 #N Geom=AllCheck Guess=TCheck SCRF=Check GenChk RB3LYP/6-31G(2df,p) Fr
 eq
 ----------------------------------------------------------------------

 Structure from the checkpoint file:  "/scratch/puck/g09_024240ff-c68c-4a6c-9f30-6fb38e02b125/Gau-186221.chk"
 -----
 titel
 -----
 Charge =  0 Multiplicity = 1

                         Standard orientation:
 ---------------------------------------------------------------------
 Center     Atomic      Atomic             Coordinates (Angstroms)
 Number     Number       Type             X           Y           Z
 ---------------------------------------------------------------------
      1          6           0       -2.124143    1.901846    0.243816
      2          6           0       -1.688414    0.548692   -0.347582
      3          6           0       -2.447977   -0.631035    0.308882
      4          8           0       -2.111689   -1.878019   -0.249718
      5          6           0       -0.250002    0.331334   -0.226889
      6          6           0        0.927075    0.087582   -0.096419
      7          6           0        2.338701   -0.216026    0.052697
      8          6           0        3.283192    0.956134   -0.115164
      9          8           0        2.719125   -1.342028    0.295933
     10          1           0       -3.201309    2.040391    0.110575
     11          1           0       -1.901445    1.948926    1.313953
     12          1           0       -1.607129    2.729735   -0.247029
     13          1           0       -1.934136    0.529178   -1.418122
     14          1           0       -2.273944   -0.603905    1.396276
     15          1           0       -3.520718   -0.493518    0.139072
     16          1           0       -1.168057   -2.017695   -0.104314
     17          1           0        3.045939    1.737682    0.614746
     18          1           0        4.312087    0.618997    0.018138
     19          1           0        3.158634    1.399420   -1.109071
 ---------------------------------------------------------------------

 SCF Done:  E(RB3LYP) =  -423.174805480     A.U. after    1 cycles

 The electronic state is 1-A.
 Alpha  occ. eigenvalues --  -19.13819 -19.13590 -10.29144 -10.23904 -10.22542
 Alpha  occ. eigenvalues --  -10.20810 -10.19712 -10.19460 -10.19248  -1.04623
 Alpha  occ. eigenvalues --   -1.02300  -0.82736  -0.77583  -0.73756  -0.68725
 Alpha  occ. eigenvalues --   -0.64747  -0.60388  -0.52110  -0.50114  -0.48164
 Alpha  occ. eigenvalues --   -0.44910  -0.44756  -0.43925  -0.43460  -0.40605
 Alpha  occ. eigenvalues --   -0.40287  -0.39451  -0.37826  -0.36874  -0.33368
 Alpha  occ. eigenvalues --   -0.29188  -0.28425  -0.26871  -0.25942
 Alpha virt. eigenvalues --   -0.05206   0.03149   0.07373   0.09655   0.10226
 Alpha virt. eigenvalues --    0.11161   0.12700   0.13648   0.15581   0.16336
 Alpha virt. eigenvalues --    0.16418   0.18075   0.18397   0.19031   0.21636

 Mulliken charges:
               1
     1  C   -0.396666
     2  C   -0.160785
     3  C   -0.048653
     4  O   -0.417589
     5  C    0.054825
     6  C    0.018900
     7  C    0.251475
     8  C   -0.477939
     9  O   -0.277879
    10  H    0.124794
    11  H    0.131692
    12  H    0.131558
    13  H    0.125080
    14  H    0.095916
    15  H    0.113001
    16  H    0.294559
    17  H    0.146164
    18  H    0.144247
    19  H    0.147299
 Sum of Mulliken charges =   0.00000

 Dipole moment (field-independent basis, Debye):
    X=             -0.8723    Y=              3.7025    Z=             -0.0256  Tot=              3.8040
 Quadrupole moment (field-independent basis, Debye-Ang):
   XX=            -53.2211   YY=            -57.6758   ZZ=            -52.6503
   XY=              1.4791   XZ=             -2.2255   YZ=             -0.4908

  Exact polarizability: 117.218  -7.598  76.768   1.928  -1.621  57.173
 Approx polarizability: 164.580 -22.168 115.396   8.942  -4.918  87.451

                      1                      2                      3
                      A                      A                      A
 Frequencies --     20.1627                54.9998               100.4611
 Red. masses --      4.0846                 5.4942                 2.8934
 Frc consts  --      0.0010                 0.0098                 0.0172
 IR Inten    --      2.1191                 0.6159                 0.5895

                      4                      5                      6
                      A                      A                      A
 Frequencies --    126.4146               129.3927               166.6771
 Red. masses --      1.4615                 2.1072                 2.7512
 Frc consts  --      0.0138                 0.0208                 0.0450
 IR Inten    --      2.1870                 2.9677                 0.5578

                      7                      8                      9
                      A                      A                      A
 Frequencies --    219.3866               240.6037               282.6949
 Red. masses --      1.2202                 2.4646                 3.9798
 Frc consts  --      0.0346                 0.0841                 0.1874
 IR Inten    --      0.1055                 0.4717                 0.8062

                     10                     11                     12
                      A                      A                      A
 Frequencies --    372.7520               413.0891               436.0330
 Red. masses --      2.5883                 1.3597                 4.0655
 Frc consts  --      0.2119                 0.1367                 0.4554
 IR Inten    --     14.5672               113.5146                11.0308

                     13                     14                     15
                      A                      A                      A
 Frequencies --    513.7594               559.2271               595.1307
 Red. masses --      3.6679                 4.3317                 3.3865
 Frc consts  --      0.5704                 0.7982                 0.7067
 IR Inten    --      0.9953                12.4165                 0.7355

                     16                     17                     18
                      A                      A                      A
 Frequencies --    609.5717               659.8191               857.4287
 Red. masses --      3.3622                 3.5005                 2.5449
 Frc consts  --      0.7361                 0.8979                 1.1023
 IR Inten    --      3.2604                21.4983                 5.5955

                     19                     20                     21
                      A                      A                      A
 Frequencies --    929.7117               939.0158               986.4707
 Red. masses --      1.5478                 1.8959                 1.7818
 Frc consts  --      0.7883                 0.9849                 1.0216
 IR Inten    --     18.0412                16.4997                19.4131

                     22                     23                     24
                      A                      A                      A
 Frequencies --   1042.9304              1077.2486              1085.2936
 Red. masses --      1.8420                 3.5065                 2.2631
 Frc consts  --      1.1804                 2.3975                 1.5706
 IR Inten    --      4.5141                18.8131                73.7695

                     25                     26                     27
                      A                      A                      A
 Frequencies --   1109.8418              1150.0739              1207.8907
 Red. masses --      2.2713                 2.0952                 1.2124
 Frc consts  --      1.6484                 1.6327                 1.0422
 IR Inten    --     19.5427                12.2746                27.8305

                     28                     29                     30
                      A                      A                      A
 Frequencies --   1246.4120              1285.8596              1352.6234
 Red. masses --      3.1321                 1.2860                 1.5290
 Frc consts  --      2.8669                 1.2528                 1.6482
 IR Inten    --    170.2153                 1.4327                33.1519

                     31                     32                     33
                      A                      A                      A
 Frequencies --   1381.9261              1386.4120              1405.6943
 Red. masses --      1.3124                 1.2439                 1.2052
 Frc consts  --      1.4767                 1.4088                 1.4031
 IR Inten    --     34.5987                 2.4708                 4.4261

                     34                     35                     36
                      A                      A                      A
 Frequencies --   1427.0920              1460.6369              1468.8480
 Red. masses --      1.2196                 1.0543                 1.0473
 Frc consts  --      1.4634                 1.3252                 1.3313
 IR Inten    --     57.4512                12.1285                 7.3873

                     37                     38                     39
                      A                      A                      A
 Frequencies --   1493.1978              1499.7820              1506.2601
 Red. masses --      1.0491                 1.0512                 1.0837
 Frc consts  --      1.3781                 1.3931                 1.4486
 IR Inten    --      5.0158                 2.1956                 1.0494

                     40                     41                     42
                      A                      A                      A
 Frequencies --   1765.8590              2317.8423              2980.6037
 Red. masses --     11.0400                11.9544                 1.0689
 Frc consts  --     20.2829                37.8396                 5.5948
 IR Inten    --    198.9101               136.9731                46.1200

                     43                     44                     45
                      A                      A                      A
 Frequencies --   3022.8199              3039.4311              3043.9315
 Red. masses --      1.0807                 1.0356                 1.0348
 Frc consts  --      5.8181                 5.6368                 5.6491
 IR Inten    --     10.3192                 1.3987                22.9453

                     46                     47                     48
                      A                      A                      A
 Frequencies --   3079.7315              3103.4097              3116.3389
 Red. masses --      1.0946                 1.0986                 1.1022
 Frc consts  --      6.1171                 6.2340                 6.3068
 IR Inten    --     30.0822                 5.4280                24.4699

                     49                     50                     51
                      A                      A                      A
 Frequencies --   3126.0293              3152.5199              3785.1527
 Red. masses --      1.1022                 1.1029                 1.0657
 Frc consts  --      6.3459                 6.4581                 8.9962
 IR Inten    --     17.2502                 9.8791                26.7664

 - Thermochemistry -
 -------------------
 Temperature   298.150 Kelvin.  Pressure   1.00000 Atm.
 Atom     1 has atomic number  6 and mass  12.00000

 Molecular mass:   126.06808 amu.
 Principal axes and moments of inertia in atomic units:
                           1         2         3
     Eigenvalues --   676.512602311.746662887.95934
           X            0.99996   0.00410  -0.00773
           Y           -0.00409   0.99999   0.00134
           Z            0.00774  -0.00131   0.99997
 This molecule is an asymmetric top.
 Rotational symmetry number  1.
 Warning -- assumption of classical behavior for rotation
           may cause significant error
 Rotational temperatures (Kelvin)      0.12803     0.03747     0.02999
 Rotational constants (GHZ):           2.66771     0.78068     0.62492
 Zero-point vibrational energy     408731.0 (Joules/Mol)
                                   97.68906 (Kcal/Mol)
 Warning -- explicit consideration of  16 degrees of freedom as
           vibrations may cause significant error
 Vibrational temperatures:     29.01    79.13   144.54   181.88   186.17
          (Kelvin)            239.81   315.65   346.17   406.73   536.31
                              594.34   627.35   739.18   804.60   856.26
                              877.04   949.33  1233.65  1337.65  1351.03
                             1419.31  1500.54  1549.92  1561.49  1596.81
                             1654.70  1737.88  1793.31  1850.06  1946.12
                             1988.28  1994.74  2022.48  2053.26  2101.53
                             2113.34  2148.38  2157.85  2167.17  2540.67
                             3334.85  4288.42  4349.16  4373.06  4379.53
                             4431.04  4465.11  4483.71  4497.65  4535.77
                             5445.98

 Zero-point correction=                           0.155677 (Hartree/Particle)
 Thermal correction to Energy=                    0.166610
 Thermal correction to Enthalpy=                  0.167554
 Thermal correction to Gibbs Free Energy=         0.117657
 Sum of electronic and zero-point Energies=           -423.019128
 Sum of electronic and thermal Energies=              -423.008195
 Sum of electronic and thermal Enthalpies=            -423.007251
 Sum of electronic and thermal Free Energies=         -423.057149

                     E (Thermal)             CV                S
                      KCal/Mol        Cal/Mol-Kelvin    Cal/Mol-Kelvin
 Total                  104.549             37.370            105.018
 Electronic               0.000              0.000              0.000
 Translational            0.889              2.981             40.409
 Rotational               0.889              2.981             29.892
 Vibrational            102.772             31.409             34.718
 Vibration     1          0.593              1.986              6.618
 Vibration     2          0.596              1.976              4.629
 Vibration     3          0.604              1.949              3.445
 Vibration     4          0.611              1.927              3.000
 Vibration     5          0.612              1.924              2.955
 Vibration     6          0.624              1.883              2.473
 Vibration     7          0.647              1.812              1.964
 Vibration     8          0.658              1.778              1.798
 Vibration     9          0.682              1.706              1.517
 Vibration    10          0.744              1.528              1.068
 Vibration    11          0.777              1.442              0.916
 Vibration    12          0.796              1.392              0.839
 Vibration    13          0.869              1.220              0.625
 Vibration    14          0.915              1.120              0.525
 Vibration    15          0.953              1.042              0.458
 Vibration    16          0.969              1.012              0.433

 Optimization completed.
    -- Stationary point found.
 Normal termination of Gaussian 09 at Tue Jan 28 08:39:21 2020.
