 Gaussian 09, Revision D.01,
 Gaussian 09:  ES64L-G09RevD.01 24-Apr-2013

 -----------------------------
 # b3lyp 6-31G(2df,p) opt Freq
 -----------------------------

 -----
 titel
 -----
 Symbolic Z-matrix:
 Charge =  0 Multiplicity = 1

 SCF Done:  E(RB3LYP) =  -423.181462368     A.U. after   14 cycles
 Optimization completed.
    -- Stationary point found.
 Normal termination of Gaussian 09 at Tue Jan 28 09:14:50 2020.

 ----------------------------------------------------------------------
 #N Geom=AllCheck Guess=TCheck SCRF=Check GenChk RB3LYP/6-31G(2df,p) Fr
 eq
 ----------------------------------------------------------------------

 Structure from the checkpoint file:  "/scratch/puck/g09_65fc13c3-e65a-4b20-89e2-0a3181358867/Gau-130455.chk"
 -----
 titel
 -----
 Charge =  0 Multiplicity = 1

                         Standard orientation:
 ---------------------------------------------------------------------
 Center     Atomic      Atomic             Coordinates (Angstroms)
 Number     Number       Type             X           Y           Z
 ---------------------------------------------------------------------
      1          6           0       -2.622561   -0.057782   -0.479549
      2          6           0       -1.702146   -0.399102    0.699980
      3          6           0       -0.246624   -0.266644    0.353103
      4          6           0        0.952807   -0.375656    1.346833
      5          6           0        1.766963    0.232036    0.151902
      6          6           0        1.555465   -0.869523   -0.897813
      7          8           0        0.149748   -1.174955   -0.699157
      8          6           0        0.468611    1.038488   -0.091931
      9          8           0        0.175134    2.171025   -0.328599
     10          1           0       -2.467400    0.975115   -0.804268
     11          1           0       -2.420662   -0.715373   -1.328641
     12          1           0       -3.672519   -0.172825   -0.196180
     13          1           0       -1.910287    0.265401    1.546574
     14          1           0       -1.888859   -1.423239    1.045610
     15          1           0        0.876426    0.291818    2.207168
     16          1           0        1.215949   -1.392557    1.645869
     17          1           0        2.749624    0.685780    0.250556
     18          1           0        1.726412   -0.526205   -1.924549
     19          1           0        2.157168   -1.767376   -0.715238
 ---------------------------------------------------------------------

 SCF Done:  E(RB3LYP) =  -423.181462368     A.U. after    1 cycles

 The electronic state is 1-A.
 Alpha  occ. eigenvalues --  -19.14830 -19.14671 -10.27368 -10.24745 -10.24243
 Alpha  occ. eigenvalues --  -10.21014 -10.20408 -10.18965 -10.17163  -1.06343
 Alpha  occ. eigenvalues --   -1.04242  -0.84238  -0.78784  -0.71858  -0.64382
 Alpha  occ. eigenvalues --   -0.63419  -0.58149  -0.53522  -0.50575  -0.47156
 Alpha  occ. eigenvalues --   -0.46592  -0.45536  -0.42437  -0.41349  -0.40491
 Alpha  occ. eigenvalues --   -0.38418  -0.37892  -0.36259  -0.35336  -0.34532
 Alpha  occ. eigenvalues --   -0.34166  -0.33052  -0.28030  -0.22389
 Alpha virt. eigenvalues --   -0.01720   0.08852   0.10075   0.11567   0.12708
 Alpha virt. eigenvalues --    0.14365   0.14680   0.15252   0.15725   0.16436
 Alpha virt. eigenvalues --    0.17088   0.17374   0.18854   0.19487   0.20398

 Mulliken charges:
               1
     1  C   -0.388978
     2  C   -0.299618
     3  C    0.334810
     4  C   -0.305285
     5  C   -0.195103
     6  C   -0.082627
     7  O   -0.317977
     8  C    0.415375
     9  O   -0.323706
    10  H    0.139334
    11  H    0.135477
    12  H    0.110658
    13  H    0.108335
    14  H    0.110133
    15  H    0.121080
    16  H    0.116713
    17  H    0.096042
    18  H    0.116143
    19  H    0.109195
 Sum of Mulliken charges =   0.00000

 Dipole moment (field-independent basis, Debye):
    X=              1.2229    Y=             -1.5692    Z=              1.3194  Tot=              2.3872
 Quadrupole moment (field-independent basis, Debye-Ang):
   XX=            -48.5050   YY=            -60.5517   ZZ=            -51.6147
   XY=             -0.8460   XZ=             -1.2110   YZ=              0.3779

  Exact polarizability:  83.921  -2.787  72.896  -1.494  -1.377  69.160
 Approx polarizability: 110.084  -4.836 118.883  -1.271  -3.177 103.721

                      1                      2                      3
                      A                      A                      A
 Frequencies --     86.0792               139.7453               175.4359
 Red. masses --      2.5862                 4.3197                 3.2926
 Frc consts  --      0.0113                 0.0497                 0.0597
 IR Inten    --      0.8964                 3.7113                 1.6369

                      4                      5                      6
                      A                      A                      A
 Frequencies --    199.7482               272.3906               296.2723
 Red. masses --      1.4747                 1.8206                 2.7209
 Frc consts  --      0.0347                 0.0796                 0.1407
 IR Inten    --      0.1370                 1.1014                 4.8713

                      7                      8                      9
                      A                      A                      A
 Frequencies --    396.1663               444.0222               488.2247
 Red. masses --      3.2334                 2.2377                 3.2302
 Frc consts  --      0.2990                 0.2599                 0.4537
 IR Inten    --      0.2049                 0.4812                 2.9016

                     10                     11                     12
                      A                      A                      A
 Frequencies --    599.0018               655.2519               716.1853
 Red. masses --      4.0574                 3.4472                 3.7532
 Frc consts  --      0.8577                 0.8720                 1.1342
 IR Inten    --      3.6684                 1.2514                 7.4540

                     13                     14                     15
                      A                      A                      A
 Frequencies --    773.8128               786.4535               851.4757
 Red. masses --      3.1316                 1.5581                 3.9297
 Frc consts  --      1.1048                 0.5678                 1.6786
 IR Inten    --      6.9538                 3.0559                 3.5477

                     16                     17                     18
                      A                      A                      A
 Frequencies --    871.9556               921.2908               934.3702
 Red. masses --      2.9058                 2.0991                 2.4674
 Frc consts  --      1.3017                 1.0497                 1.2692
 IR Inten    --      5.4577                 9.9997                23.4290

                     19                     20                     21
                      A                      A                      A
 Frequencies --    958.4451               983.6899               994.1429
 Red. masses --      3.3137                 1.8367                 2.5396
 Frc consts  --      1.7935                 1.0472                 1.4788
 IR Inten    --     34.9804                 5.1127                 7.7890

                     22                     23                     24
                      A                      A                      A
 Frequencies --   1028.1087              1044.5213              1082.2784
 Red. masses --      1.4011                 2.0074                 1.3988
 Frc consts  --      0.8726                 1.2904                 0.9654
 IR Inten    --      0.2364                54.8034                 6.0256

                     25                     26                     27
                      A                      A                      A
 Frequencies --   1113.5110              1147.2475              1168.8015
 Red. masses --      1.9634                 1.6654                 1.4891
 Frc consts  --      1.4343                 1.2915                 1.1986
 IR Inten    --     11.2336                 4.0777                 9.3765

                     28                     29                     30
                      A                      A                      A
 Frequencies --   1188.0305              1226.0993              1248.3070
 Red. masses --      2.1001                 1.4191                 1.7110
 Frc consts  --      1.7464                 1.2569                 1.5708
 IR Inten    --     11.9210                 2.3645                 2.7657

                     31                     32                     33
                      A                      A                      A
 Frequencies --   1296.0337              1326.1791              1360.0213
 Red. masses --      1.3645                 1.6433                 1.4085
 Frc consts  --      1.3504                 1.7029                 1.5350
 IR Inten    --      5.2460                 6.5053                 1.1453

                     34                     35                     36
                      A                      A                      A
 Frequencies --   1398.5879              1410.0689              1474.7110
 Red. masses --      2.3511                 1.2724                 1.1255
 Frc consts  --      2.7095                 1.4906                 1.4422
 IR Inten    --      0.5409                 4.0386                 1.2660

                     37                     38                     39
                      A                      A                      A
 Frequencies --   1476.3612              1497.5491              1512.9782
 Red. masses --      1.0862                 1.0380                 1.0730
 Frc consts  --      1.3949                 1.3716                 1.4472
 IR Inten    --      3.6936                 6.1494                 4.9082

                     40                     41                     42
                      A                      A                      A
 Frequencies --   1530.8464              1901.6689              3024.0560
 Red. masses --      1.0952                12.4431                 1.0559
 Frc consts  --      1.5122                26.5125                 5.6891
 IR Inten    --      0.7964               258.6185                69.6379

                     43                     44                     45
                      A                      A                      A
 Frequencies --   3031.4562              3047.9870              3066.5153
 Red. masses --      1.0602                 1.0348                 1.1104
 Frc consts  --      5.7405                 5.6642                 6.1519
 IR Inten    --     18.6487                22.2210                24.9447

                     46                     47                     48
                      A                      A                      A
 Frequencies --   3069.1203              3071.3743              3118.6127
 Red. masses --      1.0990                 1.0587                 1.1021
 Frc consts  --      6.0990                 5.8840                 6.3154
 IR Inten    --     11.7257                16.1754                26.0253

                     49                     50                     51
                      A                      A                      A
 Frequencies --   3129.4516              3142.5768              3160.9429
 Red. masses --      1.1023                 1.1112                 1.0915
 Frc consts  --      6.3604                 6.4655                 6.4256
 IR Inten    --     17.4824                12.0800                15.4239

 - Thermochemistry -
 -------------------
 Temperature   298.150 Kelvin.  Pressure   1.00000 Atm.
 Atom     1 has atomic number  6 and mass  12.00000

 Molecular mass:   126.06808 amu.
 Principal axes and moments of inertia in atomic units:
                           1         2         3
     Eigenvalues --   726.529121138.228621369.04054
           X            0.99984  -0.01739   0.00389
           Y            0.01740   0.99985  -0.00208
           Z           -0.00385   0.00214   0.99999
 This molecule is an asymmetric top.
 Rotational symmetry number  1.
 Warning -- assumption of classical behavior for rotation
           may cause significant error
 Rotational temperatures (Kelvin)      0.11922     0.07610     0.06327
 Rotational constants (GHZ):           2.48406     1.58557     1.31825
 Zero-point vibrational energy     417725.0 (Joules/Mol)
                                   99.83867 (Kcal/Mol)
 Warning -- explicit consideration of  10 degrees of freedom as
           vibrations may cause significant error
 Vibrational temperatures:    123.85   201.06   252.41   287.39   391.91
          (Kelvin)            426.27   569.99   638.85   702.45   861.83
                              942.76  1030.43  1113.34  1131.53  1225.08
                             1254.55  1325.53  1344.35  1378.99  1415.31
                             1430.35  1479.22  1502.83  1557.16  1602.09
                             1650.63  1681.64  1709.31  1764.08  1796.03
                             1864.70  1908.07  1956.76  2012.25  2028.77
                             2121.78  2124.15  2154.64  2176.84  2202.54
                             2736.07  4350.94  4361.58  4385.37  4412.03
                             4415.77  4419.02  4486.98  4502.58  4521.46
                             4547.89

 Zero-point correction=                           0.159103 (Hartree/Particle)
 Thermal correction to Energy=                    0.167396
 Thermal correction to Enthalpy=                  0.168341
 Thermal correction to Gibbs Free Energy=         0.126247
 Sum of electronic and zero-point Energies=           -423.022359
 Sum of electronic and thermal Energies=              -423.014066
 Sum of electronic and thermal Enthalpies=            -423.013122
 Sum of electronic and thermal Free Energies=         -423.055215

                     E (Thermal)             CV                S
                      KCal/Mol        Cal/Mol-Kelvin    Cal/Mol-Kelvin
 Total                  105.043             31.737             88.593
 Electronic               0.000              0.000              0.000
 Translational            0.889              2.981             40.409
 Rotational               0.889              2.981             28.517
 Vibrational            103.265             25.775             19.668
 Vibration     1          0.601              1.959              3.747
 Vibration     2          0.615              1.914              2.807
 Vibration     3          0.627              1.873              2.376
 Vibration     4          0.638              1.840              2.135
 Vibration     5          0.675              1.724              1.581
 Vibration     6          0.690              1.681              1.438
 Vibration     7          0.763              1.478              0.977
 Vibration     8          0.804              1.374              0.814
 Vibration     9          0.844              1.276              0.688
 Vibration    10          0.957              1.034              0.451

 Optimization completed.
    -- Stationary point found.
 Normal termination of Gaussian 09 at Tue Jan 28 09:56:51 2020.
