 Gaussian 09, Revision D.01,
 Gaussian 09:  ES64L-G09RevD.01 24-Apr-2013

 -----------------------------
 # b3lyp 6-31G(2df,p) opt Freq
 -----------------------------

 -----
 titel
 -----
 Symbolic Z-matrix:
 Charge =  0 Multiplicity = 1

 SCF Done:  E(RB3LYP) =  -423.200912295     A.U. after   14 cycles
 Optimization completed.
    -- Stationary point found.
 Normal termination of Gaussian 09 at Tue Jan 28 08:14:00 2020.

 ----------------------------------------------------------------------
 #N Geom=AllCheck Guess=TCheck SCRF=Check GenChk RB3LYP/6-31G(2df,p) Fr
 eq
 ----------------------------------------------------------------------

 Structure from the checkpoint file:  "/scratch/puck/g09_01bb74ad-daef-4f39-92c8-b6a45af8f74e/Gau-17729.chk"
 -----
 titel
 -----
 Charge =  0 Multiplicity = 1

                         Standard orientation:
 ---------------------------------------------------------------------
 Center     Atomic      Atomic             Coordinates (Angstroms)
 Number     Number       Type             X           Y           Z
 ---------------------------------------------------------------------
      1          6           0        0.362050    2.149048    0.487860
      2          6           0       -0.154090    0.974303   -0.345022
      3          6           0       -1.694806    0.800063   -0.310102
      4          6           0       -1.962321   -0.701930   -0.555529
      5          6           0       -0.730441   -1.387934    0.002328
      6          8           0       -0.309800   -0.914014    1.275814
      7          6           0        0.357154   -0.383095    0.109891
      8          6           0        1.777447   -0.793542   -0.030471
      9          8           0        2.597899   -0.178214   -0.666267
     10          1           0        1.448720    2.238299    0.406325
     11          1           0       -0.081617    3.090017    0.147683
     12          1           0        0.102955    2.015261    1.543413
     13          1           0        0.183964    1.096837   -1.381976
     14          1           0       -2.062316    1.078667    0.681182
     15          1           0       -2.198846    1.440282   -1.037906
     16          1           0       -2.885275   -1.054415   -0.084822
     17          1           0       -2.030469   -0.932744   -1.625550
     18          1           0       -0.536465   -2.441643   -0.187770
     19          1           0        2.024598   -1.734205    0.509312
 ---------------------------------------------------------------------

 SCF Done:  E(RB3LYP) =  -423.200912295     A.U. after    1 cycles

 The electronic state is 1-A.
 Alpha  occ. eigenvalues --  -19.16901 -19.14495 -10.27505 -10.25359 -10.24701
 Alpha  occ. eigenvalues --  -10.19862 -10.19852 -10.18957 -10.17567  -1.09142
 Alpha  occ. eigenvalues --   -1.04995  -0.82585  -0.75967  -0.71065  -0.66827
 Alpha  occ. eigenvalues --   -0.62753  -0.58723  -0.54665  -0.51407  -0.48712
 Alpha  occ. eigenvalues --   -0.46229  -0.45062  -0.43154  -0.41861  -0.40504
 Alpha  occ. eigenvalues --   -0.39114  -0.37974  -0.37213  -0.35594  -0.34356
 Alpha  occ. eigenvalues --   -0.33312  -0.30397  -0.28217  -0.25559
 Alpha virt. eigenvalues --   -0.03558   0.08757   0.10291   0.11145   0.11819
 Alpha virt. eigenvalues --    0.11893   0.13734   0.15435   0.16246   0.16738
 Alpha virt. eigenvalues --    0.17061   0.17656   0.19367   0.20233   0.20407

 Mulliken charges:
               1
     1  C   -0.418127
     2  C   -0.044556
     3  C   -0.234563
     4  C   -0.250581
     5  C   -0.007772
     6  O   -0.292847
     7  C    0.313616
     8  C    0.089396
     9  O   -0.264298
    10  H    0.135894
    11  H    0.114846
    12  H    0.125232
    13  H    0.093649
    14  H    0.118661
    15  H    0.103813
    16  H    0.116567
    17  H    0.112153
    18  H    0.102547
    19  H    0.086372
 Sum of Mulliken charges =   0.00000

 Dipole moment (field-independent basis, Debye):
    X=             -2.3953    Y=             -0.5791    Z=             -0.6769  Tot=              2.5556
 Quadrupole moment (field-independent basis, Debye-Ang):
   XX=            -58.2104   YY=            -49.6969   ZZ=            -55.5698
   XY=             -0.7283   XZ=              4.0417   YZ=              1.4054

  Exact polarizability:  87.143   3.478  78.585   0.151  -1.807  62.019
 Approx polarizability: 124.922  11.799 109.119  -7.831  -7.116 104.870

                      1                      2                      3
                      A                      A                      A
 Frequencies --     92.6445               146.6687               173.5231
 Red. masses --      4.1587                 2.7620                 4.6239
 Frc consts  --      0.0210                 0.0350                 0.0820
 IR Inten    --      2.8389                 3.2055                 7.4608

                      4                      5                      6
                      A                      A                      A
 Frequencies --    225.7057               254.8370               259.0716
 Red. masses --      1.5093                 1.9977                 1.5377
 Frc consts  --      0.0453                 0.0764                 0.0608
 IR Inten    --      0.8162                 4.2089                 0.7257

                      7                      8                      9
                      A                      A                      A
 Frequencies --    346.9837               423.2734               469.3218
 Red. masses --      2.3610                 3.3378                 5.8139
 Frc consts  --      0.1675                 0.3523                 0.7545
 IR Inten    --      2.4055                 9.0104                 4.0714

                     10                     11                     12
                      A                      A                      A
 Frequencies --    532.1330               615.9658               664.8144
 Red. masses --      3.4260                 4.3651                 2.6392
 Frc consts  --      0.5716                 0.9758                 0.6873
 IR Inten    --      1.4821                 9.9503                 1.3889

                     13                     14                     15
                      A                      A                      A
 Frequencies --    710.6855               827.4485               846.9866
 Red. masses --      3.5743                 1.7642                 3.5843
 Frc consts  --      1.0636                 0.7117                 1.5150
 IR Inten    --     18.9832                 2.6931                13.9384

                     16                     17                     18
                      A                      A                      A
 Frequencies --    869.0511               925.4701               942.5217
 Red. masses --      3.4769                 2.1587                 2.6058
 Frc consts  --      1.5471                 1.0893                 1.3639
 IR Inten    --     13.6524                12.2544                 4.4737

                     19                     20                     21
                      A                      A                      A
 Frequencies --    959.1418              1005.6442              1031.4576
 Red. masses --      1.3372                 1.9334                 1.4628
 Frc consts  --      0.7248                 1.1520                 0.9169
 IR Inten    --     15.0276                 2.2071                 3.3809

                     22                     23                     24
                      A                      A                      A
 Frequencies --   1055.1815              1063.8837              1129.7520
 Red. masses --      1.7062                 2.3013                 1.8054
 Frc consts  --      1.1193                 1.5346                 1.3577
 IR Inten    --      7.3621                 1.2799                 1.3580

                     25                     26                     27
                      A                      A                      A
 Frequencies --   1142.3168              1192.8595              1233.3364
 Red. masses --      2.0956                 1.5971                 1.3120
 Frc consts  --      1.6112                 1.3389                 1.1758
 IR Inten    --      4.2121                 1.8245                 1.1882

                     28                     29                     30
                      A                      A                      A
 Frequencies --   1256.8642              1280.3506              1315.3171
 Red. masses --      2.0806                 1.4985                 1.5466
 Frc consts  --      1.9365                 1.4473                 1.5765
 IR Inten    --     15.9750                 4.8739                 1.1609

                     31                     32                     33
                      A                      A                      A
 Frequencies --   1329.1116              1344.7175              1370.5312
 Red. masses --      1.5592                 1.4300                 1.7877
 Frc consts  --      1.6228                 1.5235                 1.9784
 IR Inten    --      2.1671                 1.7629                 3.4072

                     34                     35                     36
                      A                      A                      A
 Frequencies --   1395.2259              1406.2270              1438.9683
 Red. masses --      1.4634                 1.2479                 2.1548
 Frc consts  --      1.6784                 1.4539                 2.6288
 IR Inten    --      1.2189                 5.0176                23.8154

                     37                     38                     39
                      A                      A                      A
 Frequencies --   1479.5921              1493.2072              1498.6313
 Red. masses --      1.1011                 1.0819                 1.0640
 Frc consts  --      1.4203                 1.4213                 1.4079
 IR Inten    --      1.3140                 1.6236                 5.0720

                     40                     41                     42
                      A                      A                      A
 Frequencies --   1505.6784              1813.2085              2896.0364
 Red. masses --      1.0541                10.6122                 1.0842
 Frc consts  --      1.4080                20.5566                 5.3573
 IR Inten    --      4.3004               186.5441                93.8930

                     43                     44                     45
                      A                      A                      A
 Frequencies --   3031.5970              3037.1033              3039.9726
 Red. masses --      1.0807                 1.0368                 1.0622
 Frc consts  --      5.8519                 5.6346                 5.7838
 IR Inten    --      7.6624                21.1715                25.6094

                     46                     47                     48
                      A                      A                      A
 Frequencies --   3066.3011              3086.4850              3104.8937
 Red. masses --      1.0629                 1.0980                 1.1021
 Frc consts  --      5.8878                 6.1631                 6.2599
 IR Inten    --     19.1402                20.3837                14.5958

                     49                     50                     51
                      A                      A                      A
 Frequencies --   3113.3892              3118.7095              3138.9208
 Red. masses --      1.1049                 1.1019                 1.0904
 Frc consts  --      6.3100                 6.3145                 6.3298
 IR Inten    --     29.9821                18.3831                24.8186

 - Thermochemistry -
 -------------------
 Temperature   298.150 Kelvin.  Pressure   1.00000 Atm.
 Atom     1 has atomic number  6 and mass  12.00000

 Molecular mass:   126.06808 amu.
 Principal axes and moments of inertia in atomic units:
                           1         2         3
     Eigenvalues --   757.412931132.867221524.67751
           X            0.99960   0.00312   0.02812
           Y           -0.00397   0.99953   0.03031
           Z           -0.02801  -0.03041   0.99914
 This molecule is an asymmetric top.
 Rotational symmetry number  1.
 Warning -- assumption of classical behavior for rotation
           may cause significant error
 Rotational temperatures (Kelvin)      0.11435     0.07646     0.05681
 Rotational constants (GHZ):           2.38277     1.59307     1.18369
 Zero-point vibrational energy     416908.9 (Joules/Mol)
                                   99.64361 (Kcal/Mol)
 Warning -- explicit consideration of  11 degrees of freedom as
           vibrations may cause significant error
 Vibrational temperatures:    133.29   211.02   249.66   324.74   366.65
          (Kelvin)            372.75   499.23   609.00   675.25   765.62
                              886.24   956.52  1022.52  1190.51  1218.62
                             1250.37  1331.54  1356.08  1379.99  1446.90
                             1484.04  1518.17  1530.69  1625.46  1643.54
                             1716.26  1774.49  1808.35  1842.14  1892.45
                             1912.29  1934.75  1971.89  2007.42  2023.24
                             2070.35  2128.80  2148.39  2156.19  2166.33
                             2608.80  4166.75  4361.79  4369.71  4373.84
                             4411.72  4440.76  4467.24  4479.47  4487.12
                             4516.20

 Zero-point correction=                           0.158792 (Hartree/Particle)
 Thermal correction to Energy=                    0.167234
 Thermal correction to Enthalpy=                  0.168178
 Thermal correction to Gibbs Free Energy=         0.125821
 Sum of electronic and zero-point Energies=           -423.042120
 Sum of electronic and thermal Energies=              -423.033678
 Sum of electronic and thermal Enthalpies=            -423.032734
 Sum of electronic and thermal Free Energies=         -423.075091

                     E (Thermal)             CV                S
                      KCal/Mol        Cal/Mol-Kelvin    Cal/Mol-Kelvin
 Total                  104.941             31.992             89.148
 Electronic               0.000              0.000              0.000
 Translational            0.889              2.981             40.409
 Rotational               0.889              2.981             28.661
 Vibrational            103.163             26.031             20.078
 Vibration     1          0.602              1.954              3.603
 Vibration     2          0.617              1.906              2.715
 Vibration     3          0.627              1.875              2.397
 Vibration     4          0.650              1.802              1.913
 Vibration     5          0.665              1.755              1.697
 Vibration     6          0.668              1.747              1.668
 Vibration     7          0.725              1.581              1.180
 Vibration     8          0.785              1.420              0.881
 Vibration     9          0.826              1.318              0.739
 Vibration    10          0.887              1.179              0.582
 Vibration    11          0.976              0.998              0.423

 Optimization completed.
    -- Stationary point found.
 Normal termination of Gaussian 09 at Tue Jan 28 08:59:25 2020.
