 Gaussian 09, Revision D.01,
 Gaussian 09:  ES64L-G09RevD.01 24-Apr-2013

 -----------------------------
 # b3lyp 6-31G(2df,p) opt Freq
 -----------------------------

 -----
 titel
 -----
 Symbolic Z-matrix:
 Charge =  0 Multiplicity = 1

 SCF Done:  E(RB3LYP) =  -423.180615821     A.U. after   13 cycles
 Optimization completed.
    -- Stationary point found.
 Normal termination of Gaussian 09 at Mon Jan 27 18:57:48 2020.

 ----------------------------------------------------------------------
 #N Geom=AllCheck Guess=TCheck SCRF=Check GenChk RB3LYP/6-31G(2df,p) Fr
 eq
 ----------------------------------------------------------------------

 Structure from the checkpoint file:  "/scratch/puck/g09_3b3967d9-f51b-4467-a8fc-fec6b6f5cff9/Gau-183047.chk"
 -----
 titel
 -----
 Charge =  0 Multiplicity = 1

                         Standard orientation:
 ---------------------------------------------------------------------
 Center     Atomic      Atomic             Coordinates (Angstroms)
 Number     Number       Type             X           Y           Z
 ---------------------------------------------------------------------
      1          8           0       -0.341472    2.035762    0.057811
      2          6           0        0.219550    0.768456    0.039899
      3          6           0        1.739961    0.703915    0.060077
      4          6           0        1.917519   -0.843582   -0.016060
      5          6           0        0.445995   -1.280760   -0.045993
      6          6           0       -0.267209   -0.384800    1.016038
      7          6           0       -1.739032   -0.509335    0.650652
      8          8           0       -1.663582   -0.386158   -0.792275
      9          6           0       -0.251812   -0.283136   -1.006083
     10          1           0       -1.234230    1.951057   -0.301429
     11          1           0        2.175944    1.231478   -0.793140
     12          1           0        2.156218    1.142361    0.971280
     13          1           0        2.459869   -1.159098   -0.912243
     14          1           0        2.446816   -1.250077    0.850262
     15          1           0        0.219904   -2.344985   -0.110206
     16          1           0        0.012168   -0.402930    2.069827
     17          1           0       -2.186818   -1.472730    0.920500
     18          1           0       -2.359356    0.296156    1.062930
     19          1           0       -0.039917   -0.212618   -2.073244
 ---------------------------------------------------------------------

 SCF Done:  E(RB3LYP) =  -423.180615820     A.U. after    1 cycles

 The electronic state is 1-A.
 Alpha  occ. eigenvalues --  -19.14249 -19.14124 -10.23595 -10.22947 -10.22799
 Alpha  occ. eigenvalues --  -10.19212 -10.19063 -10.18706 -10.18190  -1.05314
 Alpha  occ. eigenvalues --   -1.01875  -0.87189  -0.74328  -0.71160  -0.68589
 Alpha  occ. eigenvalues --   -0.58612  -0.56683  -0.55844  -0.54058  -0.49817
 Alpha  occ. eigenvalues --   -0.46022  -0.44837  -0.42600  -0.40643  -0.39287
 Alpha  occ. eigenvalues --   -0.37032  -0.36474  -0.35057  -0.34122  -0.33460
 Alpha  occ. eigenvalues --   -0.32438  -0.30129  -0.26698  -0.23120
 Alpha virt. eigenvalues --    0.07799   0.09305   0.11858   0.12496   0.12958
 Alpha virt. eigenvalues --    0.13768   0.14578   0.15841   0.16512   0.17391
 Alpha virt. eigenvalues --    0.18399   0.19301   0.19910   0.21265   0.22100

 Mulliken charges:
               1
     1  O   -0.502437
     2  C    0.450359
     3  C   -0.277139
     4  C   -0.241746
     5  C   -0.047940
     6  C   -0.132199
     7  C   -0.121625
     8  O   -0.299352
     9  C    0.041697
    10  H    0.290696
    11  H    0.104589
    12  H    0.106517
    13  H    0.102238
    14  H    0.103427
    15  H    0.069997
    16  H    0.069719
    17  H    0.104587
    18  H    0.099739
    19  H    0.078873
 Sum of Mulliken charges =   0.00000

 Dipole moment (field-independent basis, Debye):
    X=              0.5673    Y=             -1.0660    Z=              0.5558  Tot=              1.3293
 Quadrupole moment (field-independent basis, Debye-Ang):
   XX=            -52.6124   YY=            -55.9579   ZZ=            -51.8606
   XY=             -2.0768   XZ=             -2.4622   YZ=             -1.7882

  Exact polarizability:  81.292  -0.174  71.124  -3.295  -1.033  67.447
 Approx polarizability: 111.612  -0.456 106.553  -1.838  -0.969 106.761

                      1                      2                      3
                      A                      A                      A
 Frequencies --    227.4710               244.3642               276.1086
 Red. masses --      2.7097                 2.9776                 2.6600
 Frc consts  --      0.0826                 0.1048                 0.1195
 IR Inten    --      4.7180                 4.7886                 5.2094

                      4                      5                      6
                      A                      A                      A
 Frequencies --    316.1975               417.1615               426.7494
 Red. masses --      2.4820                 3.1408                 1.5770
 Frc consts  --      0.1462                 0.3220                 0.1692
 IR Inten    --      3.2539                 2.5355                32.1371

                      7                      8                      9
                      A                      A                      A
 Frequencies --    472.6640               612.8084               657.9413
 Red. masses --      1.7225                 4.8152                 4.8834
 Frc consts  --      0.2267                 1.0654                 1.2455
 IR Inten    --     39.4798                 4.2009                 0.6579

                     10                     11                     12
                      A                      A                      A
 Frequencies --    667.8205               743.7816               767.0156
 Red. masses --      3.5541                 5.0379                 3.5955
 Frc consts  --      0.9339                 1.6421                 1.2463
 IR Inten    --      4.7919                 7.8042                15.5608

                     13                     14                     15
                      A                      A                      A
 Frequencies --    828.3695               914.4523               918.6162
 Red. masses --      1.2607                 3.0953                 2.9541
 Frc consts  --      0.5097                 1.5250                 1.4687
 IR Inten    --      1.0101                 0.2714                11.4598

                     16                     17                     18
                      A                      A                      A
 Frequencies --    938.5755               945.9331               967.6931
 Red. masses --      2.1621                 2.5667                 1.6502
 Frc consts  --      1.1222                 1.3531                 0.9105
 IR Inten    --      1.7891                13.2225                13.5738

                     19                     20                     21
                      A                      A                      A
 Frequencies --    985.1783               993.5096              1015.1578
 Red. masses --      1.6242                 3.6625                 1.5398
 Frc consts  --      0.9288                 2.1300                 0.9349
 IR Inten    --      3.5457                20.2782                 0.2443

                     22                     23                     24
                      A                      A                      A
 Frequencies --   1064.0889              1077.5020              1083.2572
 Red. masses --      1.9668                 2.0132                 2.3903
 Frc consts  --      1.3121                 1.3771                 1.6526
 IR Inten    --     19.1918                16.2913                21.7993

                     25                     26                     27
                      A                      A                      A
 Frequencies --   1100.2252              1159.8037              1179.6105
 Red. masses --      1.8953                 1.4437                 1.7568
 Frc consts  --      1.3517                 1.1442                 1.4403
 IR Inten    --     15.1764                 6.7579                60.5973

                     28                     29                     30
                      A                      A                      A
 Frequencies --   1191.4476              1227.1613              1237.7590
 Red. masses --      1.2908                 1.4659                 1.4043
 Frc consts  --      1.0796                 1.3006                 1.2676
 IR Inten    --      1.6505                 4.2956                 3.0631

                     31                     32                     33
                      A                      A                      A
 Frequencies --   1254.6552              1259.8779              1275.9558
 Red. masses --      1.4561                 1.5719                 1.8047
 Frc consts  --      1.3504                 1.4700                 1.7311
 IR Inten    --      5.9938                 6.7948                25.6319

                     34                     35                     36
                      A                      A                      A
 Frequencies --   1294.4874              1320.5433              1344.1291
 Red. masses --      1.7030                 1.4673                 1.9239
 Frc consts  --      1.6813                 1.5075                 2.0479
 IR Inten    --     19.1184                28.4975                50.0912

                     37                     38                     39
                      A                      A                      A
 Frequencies --   1390.2761              1411.0355              1495.5825
 Red. masses --      1.7486                 1.9114                 1.0818
 Frc consts  --      1.9914                 2.2422                 1.4257
 IR Inten    --     27.5200                25.7517                 0.0897

                     40                     41                     42
                      A                      A                      A
 Frequencies --   1517.6471              1527.7824              3020.3578
 Red. masses --      1.1226                 1.0949                 1.0566
 Frc consts  --      1.5235                 1.5057                 5.6790
 IR Inten    --      2.2561                 0.3261                72.8272

                     43                     44                     45
                      A                      A                      A
 Frequencies --   3050.4806              3059.1875              3060.2385
 Red. masses --      1.0583                 1.1059                 1.0632
 Frc consts  --      5.8023                 6.0979                 5.8662
 IR Inten    --     32.4032                28.4938                54.5985

                     46                     47                     48
                      A                      A                      A
 Frequencies --   3085.6815              3104.9939              3114.2523
 Red. masses --      1.1071                 1.1060                 1.0874
 Frc consts  --      6.2110                 6.2823                 6.2135
 IR Inten    --      0.7177                30.6402                32.4190

                     49                     50                     51
                      A                      A                      A
 Frequencies --   3117.6700              3127.5940              3767.5592
 Red. masses --      1.0877                 1.0940                 1.0652
 Frc consts  --      6.2293                 6.3050                 8.9086
 IR Inten    --     54.9133                16.2604                25.0269

 - Thermochemistry -
 -------------------
 Temperature   298.150 Kelvin.  Pressure   1.00000 Atm.
 Atom     1 has atomic number  8 and mass  15.99491

 Molecular mass:   126.06808 amu.
 Principal axes and moments of inertia in atomic units:
                           1         2         3
     Eigenvalues --   667.54705 909.279671194.39772
           X            0.99949  -0.01915  -0.02543
           Y            0.01863   0.99962  -0.02028
           Z            0.02581   0.01979   0.99947
 This molecule is an asymmetric top.
 Rotational symmetry number  1.
 Warning -- assumption of classical behavior for rotation
           may cause significant error
 Rotational temperatures (Kelvin)      0.12975     0.09526     0.07252
 Rotational constants (GHZ):           2.70354     1.98480     1.51101
 Zero-point vibrational energy     426219.9 (Joules/Mol)
                                  101.86901 (Kcal/Mol)
 Warning -- explicit consideration of   8 degrees of freedom as
           vibrations may cause significant error
 Vibrational temperatures:    327.28   351.59   397.26   454.94   600.20
          (Kelvin)            614.00   680.06   881.69   946.63   960.84
                             1070.13  1103.56  1191.84  1315.69  1321.68
                             1350.40  1360.99  1392.29  1417.45  1429.44
                             1460.58  1530.98  1550.28  1558.56  1582.98
                             1668.70  1697.19  1714.23  1765.61  1780.86
                             1805.17  1812.68  1835.81  1862.48  1899.96
                             1933.90  2000.29  2030.16  2151.81  2183.55
                             2198.14  4345.62  4388.96  4401.48  4403.00
                             4439.60  4467.39  4480.71  4485.63  4499.90
                             5420.67

 Zero-point correction=                           0.162339 (Hartree/Particle)
 Thermal correction to Energy=                    0.169161
 Thermal correction to Enthalpy=                  0.170105
 Thermal correction to Gibbs Free Energy=         0.131638
 Sum of electronic and zero-point Energies=           -423.018277
 Sum of electronic and thermal Energies=              -423.011455
 Sum of electronic and thermal Enthalpies=            -423.010510
 Sum of electronic and thermal Free Energies=         -423.048978

                     E (Thermal)             CV                S
                      KCal/Mol        Cal/Mol-Kelvin    Cal/Mol-Kelvin
 Total                  106.150             28.878             80.961
 Electronic               0.000              0.000              0.000
 Translational            0.889              2.981             40.409
 Rotational               0.889              2.981             28.074
 Vibrational            104.373             22.916             12.479
 Vibration     1          0.651              1.799              1.899
 Vibration     2          0.660              1.772              1.771
 Vibration     3          0.678              1.718              1.558
 Vibration     4          0.703              1.643              1.330
 Vibration     5          0.780              1.433              0.902
 Vibration     6          0.788              1.412              0.869
 Vibration     7          0.830              1.311              0.730
 Vibration     8          0.972              1.005              0.428

 Optimization completed.
    -- Stationary point found.
 Normal termination of Gaussian 09 at Mon Jan 27 19:41:22 2020.
