 Gaussian 09, Revision D.01,
 Gaussian 09:  ES64L-G09RevD.01 24-Apr-2013

 -----------------------------
 # b3lyp 6-31G(2df,p) opt Freq
 -----------------------------

 -----
 titel
 -----
 Symbolic Z-matrix:
 Charge =  0 Multiplicity = 1

 SCF Done:  E(RB3LYP) =  -423.164101989     A.U. after   14 cycles
 Optimization completed.
    -- Stationary point found.
 Normal termination of Gaussian 09 at Tue Jan 28 00:43:50 2020.

 ----------------------------------------------------------------------
 #N Geom=AllCheck Guess=TCheck SCRF=Check GenChk RB3LYP/6-31G(2df,p) Fr
 eq
 ----------------------------------------------------------------------

 Structure from the checkpoint file:  "/scratch/puck/g09_a87d00dc-5504-404d-9bda-7b32c2a353d4/Gau-167058.chk"
 -----
 titel
 -----
 Charge =  0 Multiplicity = 1

                         Standard orientation:
 ---------------------------------------------------------------------
 Center     Atomic      Atomic             Coordinates (Angstroms)
 Number     Number       Type             X           Y           Z
 ---------------------------------------------------------------------
      1          8           0        1.987919   -1.293686    0.696524
      2          6           0        1.166721   -0.871631   -0.360224
      3          6           0       -0.243176   -1.497198   -0.533217
      4          6           0       -0.823283   -0.089698   -0.829331
      5          6           0       -2.072858    0.314127   -0.093160
      6          8           0       -2.558498   -0.302326    0.822459
      7          6           0        0.503046    0.515843   -0.285505
      8          6           0        1.116637    1.861341   -0.504003
      9          6           0        0.664690    1.452863    0.879624
     10          1           0        1.458314   -1.284703    1.501824
     11          1           0        1.776773   -0.976095   -1.263352
     12          1           0       -0.366157   -2.264237   -1.299505
     13          1           0       -0.641785   -1.868053    0.415770
     14          1           0       -0.945104    0.126330   -1.896462
     15          1           0       -2.527530    1.273603   -0.431879
     16          1           0        2.183467    1.901925   -0.701970
     17          1           0        0.535998    2.614048   -1.028360
     18          1           0        1.432300    1.200477    1.604364
     19          1           0       -0.212312    1.930915    1.302603
 ---------------------------------------------------------------------

 SCF Done:  E(RB3LYP) =  -423.164101989     A.U. after    1 cycles

 The electronic state is 1-A.
 Alpha  occ. eigenvalues --  -19.14387 -19.14319 -10.27353 -10.23740 -10.20722
 Alpha  occ. eigenvalues --  -10.20358 -10.19509 -10.19331 -10.18611  -1.04975
 Alpha  occ. eigenvalues --   -1.02694  -0.88104  -0.81036  -0.70085  -0.63115
 Alpha  occ. eigenvalues --   -0.61120  -0.59389  -0.53696  -0.51111  -0.49794
 Alpha  occ. eigenvalues --   -0.49272  -0.45230  -0.43056  -0.41923  -0.39778
 Alpha  occ. eigenvalues --   -0.39194  -0.37224  -0.37145  -0.35834  -0.31115
 Alpha  occ. eigenvalues --   -0.29872  -0.29677  -0.26272  -0.25186
 Alpha virt. eigenvalues --   -0.02884   0.07134   0.08042   0.10116   0.10406
 Alpha virt. eigenvalues --    0.13059   0.13164   0.14697   0.16043   0.16400
 Alpha virt. eigenvalues --    0.17746   0.18755   0.19796   0.21805   0.22403

 Mulliken charges:
               1
     1  O   -0.427472
     2  C    0.088913
     3  C   -0.286987
     4  C   -0.167688
     5  C    0.139821
     6  O   -0.244599
     7  C    0.300350
     8  C   -0.328976
     9  C   -0.322540
    10  H    0.282456
    11  H    0.093131
    12  H    0.108267
    13  H    0.122172
    14  H    0.087499
    15  H    0.076887
    16  H    0.122386
    17  H    0.113667
    18  H    0.121165
    19  H    0.121548
 Sum of Mulliken charges =   0.00000

 Dipole moment (field-independent basis, Debye):
    X=              0.2685    Y=              1.2901    Z=             -1.4290  Tot=              1.9439
 Quadrupole moment (field-independent basis, Debye-Ang):
   XX=            -62.0099   YY=            -53.2187   ZZ=            -50.4940
   XY=             -0.2987   XZ=              3.7013   YZ=             -0.0332

  Exact polarizability:  79.551   0.822  78.551  -1.600  -1.574  70.390
 Approx polarizability: 111.409   2.124 110.131  -6.385  -6.868 113.447

                      1                      2                      3
                      A                      A                      A
 Frequencies --     55.6270                62.2565               193.5260
 Red. masses --      3.8664                 5.4167                 2.5455
 Frc consts  --      0.0070                 0.0124                 0.0562
 IR Inten    --      3.0917                 5.6718                 2.9834

                      4                      5                      6
                      A                      A                      A
 Frequencies --    216.8838               222.1059               266.8543
 Red. masses --      2.4618                 3.1825                 3.0941
 Frc consts  --      0.0682                 0.0925                 0.1298
 IR Inten    --      0.5415                 1.3248                 5.1238

                      7                      8                      9
                      A                      A                      A
 Frequencies --    342.7885               364.9739               440.1176
 Red. masses --      1.1225                 3.6366                 2.8036
 Frc consts  --      0.0777                 0.2854                 0.3200
 IR Inten    --     86.7078                 2.3731                22.6965

                     10                     11                     12
                      A                      A                      A
 Frequencies --    518.4662               540.7622               658.8904
 Red. masses --      2.8929                 3.3801                 2.3883
 Frc consts  --      0.4582                 0.5824                 0.6109
 IR Inten    --      2.7621                11.4427                 3.0776

                     13                     14                     15
                      A                      A                      A
 Frequencies --    719.3599               773.9690               810.8016
 Red. masses --      4.0122                 1.2142                 1.7263
 Frc consts  --      1.2233                 0.4286                 0.6686
 IR Inten    --     18.2727                 1.1664                 3.0364

                     16                     17                     18
                      A                      A                      A
 Frequencies --    871.4866               892.0421               918.6418
 Red. masses --      2.3377                 2.5571                 1.2194
 Frc consts  --      1.0461                 1.1989                 0.6063
 IR Inten    --      5.7513                 1.5402                 0.5250

                     19                     20                     21
                      A                      A                      A
 Frequencies --    963.8545               978.0524              1004.5158
 Red. masses --      2.1186                 2.6242                 2.6337
 Frc consts  --      1.1596                 1.4790                 1.5658
 IR Inten    --      9.6588                 5.4855                16.1971

                     22                     23                     24
                      A                      A                      A
 Frequencies --   1053.1808              1059.5586              1079.4102
 Red. masses --      1.4570                 1.9053                 1.7847
 Frc consts  --      0.9522                 1.2603                 1.2252
 IR Inten    --      7.6994                11.1171                 5.3398

                     25                     26                     27
                      A                      A                      A
 Frequencies --   1085.3671              1119.1280              1140.5407
 Red. masses --      1.7142                 1.8490                 2.4068
 Frc consts  --      1.1898                 1.3644                 1.8447
 IR Inten    --      5.3443                11.2021               122.7776

                     28                     29                     30
                      A                      A                      A
 Frequencies --   1189.2446              1196.3874              1211.3365
 Red. masses --      1.2601                 1.4149                 1.5494
 Frc consts  --      1.0500                 1.1932                 1.3395
 IR Inten    --      3.0328                15.0486                 1.3713

                     31                     32                     33
                      A                      A                      A
 Frequencies --   1258.6414              1271.6683              1315.8484
 Red. masses --      1.5948                 1.3706                 1.5290
 Frc consts  --      1.4886                 1.3059                 1.5598
 IR Inten    --     10.6400                 3.1279                 1.5808

                     34                     35                     36
                      A                      A                      A
 Frequencies --   1350.6798              1358.6615              1425.7652
 Red. masses --      1.7500                 2.9045                 1.1993
 Frc consts  --      1.8810                 3.1590                 1.4364
 IR Inten    --      8.8820                 6.7043                11.1895

                     37                     38                     39
                      A                      A                      A
 Frequencies --   1436.6974              1460.7258              1483.0431
 Red. masses --      1.2591                 1.0868                 1.1200
 Frc consts  --      1.5313                 1.3663                 1.4513
 IR Inten    --     68.8274                 1.9933                 5.6483

                     40                     41                     42
                      A                      A                      A
 Frequencies --   1499.3148              1820.1738              2863.3331
 Red. masses --      1.4468                10.1776                 1.0823
 Frc consts  --      1.9162                19.8664                 5.2282
 IR Inten    --      1.8821               137.8455               123.2013

                     43                     44                     45
                      A                      A                      A
 Frequencies --   3049.3210              3059.4033              3065.6130
 Red. masses --      1.0843                 1.0856                 1.0593
 Frc consts  --      5.9400                 5.9867                 5.8656
 IR Inten    --     18.3878                29.4744                17.3205

                     46                     47                     48
                      A                      A                      A
 Frequencies --   3121.2734              3128.1683              3129.0941
 Red. masses --      1.0531                 1.1069                 1.0550
 Frc consts  --      6.0446                 6.3818                 6.0858
 IR Inten    --     14.8138                25.6328                 8.3628

                     49                     50                     51
                      A                      A                      A
 Frequencies --   3200.9704              3217.6564              3799.1565
 Red. masses --      1.1176                 1.1157                 1.0657
 Frc consts  --      6.7467                 6.8059                 9.0624
 IR Inten    --      1.4088                 9.5016                14.0594

 - Thermochemistry -
 -------------------
 Temperature   298.150 Kelvin.  Pressure   1.00000 Atm.
 Atom     1 has atomic number  8 and mass  15.99491

 Molecular mass:   126.06808 amu.
 Principal axes and moments of inertia in atomic units:
                           1         2         3
     Eigenvalues --   802.894041246.173711616.38970
           X            0.99979   0.01568   0.01287
           Y           -0.01581   0.99982   0.01034
           Z           -0.01271  -0.01054   0.99986
 This molecule is an asymmetric top.
 Rotational symmetry number  1.
 Warning -- assumption of classical behavior for rotation
           may cause significant error
 Rotational temperatures (Kelvin)      0.10788     0.06950     0.05358
 Rotational constants (GHZ):           2.24779     1.44823     1.11653
 Zero-point vibrational energy     414298.7 (Joules/Mol)
                                   99.01977 (Kcal/Mol)
 Warning -- explicit consideration of  11 degrees of freedom as
           vibrations may cause significant error
 Vibrational temperatures:     80.03    89.57   278.44   312.05   319.56
          (Kelvin)            383.94   493.20   525.12   633.23   745.96
                              778.04   948.00  1035.00  1113.57  1166.56
                             1253.87  1283.45  1321.72  1386.77  1407.20
                             1445.27  1515.29  1524.47  1553.03  1561.60
                             1610.17  1640.98  1711.06  1721.33  1742.84
                             1810.90  1829.64  1893.21  1943.32  1954.81
                             2051.36  2067.08  2101.66  2133.77  2157.18
                             2618.82  4119.69  4387.29  4401.79  4410.73
                             4490.81  4500.73  4502.06  4605.48  4629.48
                             5466.13

 Zero-point correction=                           0.157798 (Hartree/Particle)
 Thermal correction to Energy=                    0.166726
 Thermal correction to Enthalpy=                  0.167670
 Thermal correction to Gibbs Free Energy=         0.123560
 Sum of electronic and zero-point Energies=           -423.006304
 Sum of electronic and thermal Energies=              -422.997376
 Sum of electronic and thermal Enthalpies=            -422.996432
 Sum of electronic and thermal Free Energies=         -423.040542

                     E (Thermal)             CV                S
                      KCal/Mol        Cal/Mol-Kelvin    Cal/Mol-Kelvin
 Total                  104.622             33.283             92.838
 Electronic               0.000              0.000              0.000
 Translational            0.889              2.981             40.409
 Rotational               0.889              2.981             28.871
 Vibrational            102.845             27.321             23.558
 Vibration     1          0.596              1.975              4.607
 Vibration     2          0.597              1.972              4.384
 Vibration     3          0.635              1.849              2.194
 Vibration     4          0.646              1.815              1.985
 Vibration     5          0.648              1.807              1.942
 Vibration     6          0.672              1.734              1.617
 Vibration     7          0.722              1.590              1.199
 Vibration     8          0.738              1.544              1.101
 Vibration     9          0.800              1.383              0.826
 Vibration    10          0.873              1.209              0.614
 Vibration    11          0.896              1.160              0.564

 Optimization completed.
    -- Stationary point found.
 Normal termination of Gaussian 09 at Tue Jan 28 01:18:38 2020.
