 Gaussian 09, Revision D.01,
 Gaussian 09:  ES64L-G09RevD.01 24-Apr-2013

 -----------------------------
 # b3lyp 6-31G(2df,p) opt Freq
 -----------------------------

 -----
 titel
 -----
 Symbolic Z-matrix:
 Charge =  0 Multiplicity = 1

 SCF Done:  E(RB3LYP) =  -423.158109958     A.U. after   13 cycles
 Optimization completed.
    -- Stationary point found.
 Normal termination of Gaussian 09 at Mon Jan 27 16:25:52 2020.

 ----------------------------------------------------------------------
 #N Geom=AllCheck Guess=TCheck SCRF=Check GenChk RB3LYP/6-31G(2df,p) Fr
 eq
 ----------------------------------------------------------------------

 Structure from the checkpoint file:  "/scratch/puck/g09_187aa8a9-2fb9-4490-86d8-dc7ffc761eac/Gau-165395.chk"
 -----
 titel
 -----
 Charge =  0 Multiplicity = 1

                         Standard orientation:
 ---------------------------------------------------------------------
 Center     Atomic      Atomic             Coordinates (Angstroms)
 Number     Number       Type             X           Y           Z
 ---------------------------------------------------------------------
      1          6           0        0.276584    1.689087   -0.734221
      2          6           0       -0.121233    0.423867    0.011113
      3          6           0        0.979428   -0.089523    0.975602
      4          6           0        2.257626   -0.360819    0.334488
      5          6           0        3.314535   -0.583695   -0.192510
      6          8           0       -1.281604    0.651721    0.816435
      7          6           0       -2.349952   -0.130647    0.299556
      8          6           0       -1.620685   -1.244008   -0.448403
      9          8           0       -0.470334   -0.571752   -0.937612
     10          1           0       -0.551243    2.011707   -1.369457
     11          1           0        0.511615    2.485579   -0.023386
     12          1           0        1.153640    1.500235   -1.356603
     13          1           0        1.101621    0.656649    1.769307
     14          1           0        0.598879   -0.996213    1.458980
     15          1           0        4.246413   -0.784470   -0.659835
     16          1           0       -2.964592   -0.483466    1.132311
     17          1           0       -2.976569    0.462875   -0.381304
     18          1           0       -1.349233   -2.070066    0.225570
     19          1           0       -2.172839   -1.648152   -1.299910
 ---------------------------------------------------------------------

 SCF Done:  E(RB3LYP) =  -423.158109958     A.U. after    1 cycles

 The electronic state is 1-A.
 Alpha  occ. eigenvalues --  -19.14835 -19.14624 -10.28838 -10.23729 -10.23653
 Alpha  occ. eigenvalues --  -10.20373 -10.17857 -10.17224 -10.16753  -1.08947
 Alpha  occ. eigenvalues --   -0.99404  -0.81294  -0.75708  -0.70617  -0.69655
 Alpha  occ. eigenvalues --   -0.63595  -0.58164  -0.52345  -0.51506  -0.49931
 Alpha  occ. eigenvalues --   -0.47573  -0.45191  -0.43638  -0.42916  -0.41315
 Alpha  occ. eigenvalues --   -0.38714  -0.38361  -0.37119  -0.34246  -0.33545
 Alpha  occ. eigenvalues --   -0.27738  -0.27183  -0.26060  -0.24568
 Alpha virt. eigenvalues --    0.05088   0.05976   0.08902   0.11450   0.11584
 Alpha virt. eigenvalues --    0.12733   0.13488   0.14082   0.14445   0.15778
 Alpha virt. eigenvalues --    0.17033   0.18838   0.19520   0.20492   0.22677

 Mulliken charges:
               1
     1  C   -0.418769
     2  C    0.442471
     3  C   -0.387707
     4  C    0.319498
     5  C   -0.459484
     6  O   -0.294698
     7  C   -0.097068
     8  C   -0.105750
     9  O   -0.277528
    10  H    0.119822
    11  H    0.122639
    12  H    0.142392
    13  H    0.138240
    14  H    0.127373
    15  H    0.194854
    16  H    0.112979
    17  H    0.102803
    18  H    0.100634
    19  H    0.117299
 Sum of Mulliken charges =   0.00000

 Dipole moment (field-independent basis, Debye):
    X=             -1.2604    Y=             -0.4908    Z=              0.1003  Tot=              1.3564
 Quadrupole moment (field-independent basis, Debye-Ang):
   XX=            -47.2781   YY=            -52.5512   ZZ=            -54.3496
   XY=              2.6999   XZ=             -0.3371   YZ=             -1.3849

  Exact polarizability:  99.689  -0.561  67.278  -6.386  -0.080  63.855
 Approx polarizability: 135.452  -4.016  94.666 -17.017   4.167 100.508

                      1                      2                      3
                      A                      A                      A
 Frequencies --     51.5931                83.7375               141.2070
 Red. masses --      3.4751                 3.2441                 3.7305
 Frc consts  --      0.0055                 0.0134                 0.0438
 IR Inten    --      2.4446                 2.3838                 0.6018

                      4                      5                      6
                      A                      A                      A
 Frequencies --    215.4579               220.2707               315.7048
 Red. masses --      1.0607                 1.9671                 3.2160
 Frc consts  --      0.0290                 0.0562                 0.1889
 IR Inten    --      0.3224                 0.5198                 1.5672

                      7                      8                      9
                      A                      A                      A
 Frequencies --    333.7373               358.9253               380.5545
 Red. masses --      4.3790                 2.7236                 2.6025
 Frc consts  --      0.2874                 0.2067                 0.2221
 IR Inten    --      0.8128                 1.9806                 3.0940

                     10                     11                     12
                      A                      A                      A
 Frequencies --    425.8917               530.7194               621.4809
 Red. masses --      5.4639                 3.7455                 1.2171
 Frc consts  --      0.5839                 0.6216                 0.2770
 IR Inten    --      3.5103                13.0624                41.5759

                     13                     14                     15
                      A                      A                      A
 Frequencies --    645.7927               652.7553               691.5612
 Red. masses --      1.2974                 2.1386                 3.9746
 Frc consts  --      0.3188                 0.5369                 1.1200
 IR Inten    --     36.8719                 3.5240                 8.8941

                     16                     17                     18
                      A                      A                      A
 Frequencies --    795.4390               852.4116               908.8590
 Red. masses --      5.9775                 2.2597                 1.9160
 Frc consts  --      2.2283                 0.9674                 0.9325
 IR Inten    --      5.7117                32.2125                 3.9475

                     19                     20                     21
                      A                      A                      A
 Frequencies --    924.4324               940.2854               953.1428
 Red. masses --      1.7879                 2.4313                 2.3379
 Frc consts  --      0.9002                 1.2665                 1.2514
 IR Inten    --      9.2432                 4.8736                 9.1894

                     22                     23                     24
                      A                      A                      A
 Frequencies --    982.9843              1073.4756              1084.7342
 Red. masses --      2.8110                 5.3558                 4.5207
 Frc consts  --      1.6003                 3.6363                 3.1341
 IR Inten    --      0.4516                34.8274                97.2453

                     25                     26                     27
                      A                      A                      A
 Frequencies --   1122.0759              1145.5294              1171.2904
 Red. masses --      1.7615                 1.8361                 1.8791
 Frc consts  --      1.3067                 1.4195                 1.5189
 IR Inten    --     24.4056                38.7717                94.0710

                     28                     29                     30
                      A                      A                      A
 Frequencies --   1213.7340              1229.2913              1247.3711
 Red. masses --      2.6819                 1.2462                 1.2000
 Frc consts  --      2.3277                 1.1096                 1.1000
 IR Inten    --    104.9740                 8.3647                18.6977

                     31                     32                     33
                      A                      A                      A
 Frequencies --   1290.2883              1331.1243              1375.1099
 Red. masses --      1.7307                 1.6076                 1.3779
 Frc consts  --      1.6976                 1.6783                 1.5351
 IR Inten    --     50.8630                23.6644                 3.3071

                     34                     35                     36
                      A                      A                      A
 Frequencies --   1384.1520              1409.7605              1457.6199
 Red. masses --      1.3209                 1.3455                 1.0862
 Frc consts  --      1.4911                 1.5755                 1.3598
 IR Inten    --      4.1018                24.9814                 4.9990

                     37                     38                     39
                      A                      A                      A
 Frequencies --   1482.5234              1488.0185              1514.4432
 Red. masses --      1.0522                 1.0548                 1.0919
 Frc consts  --      1.3626                 1.3761                 1.4755
 IR Inten    --      2.7347                 2.0325                 1.5108

                     40                     41                     42
                      A                      A                      A
 Frequencies --   1522.4746              2239.7929              2993.8988
 Red. masses --      1.0998                 5.9373                 1.0721
 Frc consts  --      1.5020                17.5490                 5.6619
 IR Inten    --      0.4553                 2.5132                37.1018

                     43                     44                     45
                      A                      A                      A
 Frequencies --   3005.9882              3038.1387              3056.1834
 Red. masses --      1.0657                 1.0586                 1.0349
 Frc consts  --      5.6739                 5.7571                 5.6952
 IR Inten    --     75.8974                13.7006                 7.3343

                     46                     47                     48
                      A                      A                      A
 Frequencies --   3075.0791              3090.3603              3106.2219
 Red. masses --      1.1017                 1.0952                 1.0963
 Frc consts  --      6.1382                 6.1627                 6.2322
 IR Inten    --     10.8296                36.6181                31.4097

                     49                     50                     51
                      A                      A                      A
 Frequencies --   3134.1540              3144.3755              3507.0325
 Red. masses --      1.1024                 1.1022                 1.1621
 Frc consts  --      6.3804                 6.4208                 8.4208
 IR Inten    --     16.6064                12.0677                66.3880

 - Thermochemistry -
 -------------------
 Temperature   298.150 Kelvin.  Pressure   1.00000 Atm.
 Atom     1 has atomic number  6 and mass  12.00000

 Molecular mass:   126.06808 amu.
 Principal axes and moments of inertia in atomic units:
                           1         2         3
     Eigenvalues --   555.443471569.399181695.00055
           X            0.99984   0.01753  -0.00319
           Y           -0.01776   0.99439  -0.10428
           Z            0.00134   0.10432   0.99454
 This molecule is an asymmetric top.
 Rotational symmetry number  1.
 Warning -- assumption of classical behavior for rotation
           may cause significant error
 Rotational temperatures (Kelvin)      0.15594     0.05519     0.05110
 Rotational constants (GHZ):           3.24919     1.14996     1.06474
 Zero-point vibrational energy     412479.5 (Joules/Mol)
                                   98.58496 (Kcal/Mol)
 Warning -- explicit consideration of  11 degrees of freedom as
           vibrations may cause significant error
 Vibrational temperatures:     74.23   120.48   203.17   310.00   316.92
          (Kelvin)            454.23   480.17   516.41   547.53   612.76
                              763.59   894.17   929.15   939.17   995.00
                             1144.46  1226.43  1307.64  1330.05  1352.86
                             1371.36  1414.29  1544.49  1560.69  1614.41
                             1648.16  1685.22  1746.29  1768.67  1794.69
                             1856.43  1915.19  1978.47  1991.48  2028.33
                             2097.19  2133.02  2140.92  2178.94  2190.50
                             3222.56  4307.55  4324.94  4371.20  4397.16
                             4424.35  4446.33  4469.15  4509.34  4524.05
                             5045.83

 Zero-point correction=                           0.157105 (Hartree/Particle)
 Thermal correction to Energy=                    0.166350
 Thermal correction to Enthalpy=                  0.167295
 Thermal correction to Gibbs Free Energy=         0.122773
 Sum of electronic and zero-point Energies=           -423.001005
 Sum of electronic and thermal Energies=              -422.991760
 Sum of electronic and thermal Enthalpies=            -422.990815
 Sum of electronic and thermal Free Energies=         -423.035337

                     E (Thermal)             CV                S
                      KCal/Mol        Cal/Mol-Kelvin    Cal/Mol-Kelvin
 Total                  104.386             34.394             93.703
 Electronic               0.000              0.000              0.000
 Translational            0.889              2.981             40.409
 Rotational               0.889              2.981             28.782
 Vibrational            102.609             28.432             24.513
 Vibration     1          0.596              1.977              4.755
 Vibration     2          0.601              1.960              3.801
 Vibration     3          0.615              1.912              2.787
 Vibration     4          0.645              1.817              1.997
 Vibration     5          0.647              1.810              1.957
 Vibration     6          0.703              1.644              1.332
 Vibration     7          0.715              1.608              1.242
 Vibration     8          0.734              1.557              1.127
 Vibration     9          0.750              1.512              1.037
 Vibration    10          0.788              1.414              0.872
 Vibration    11          0.886              1.182              0.586

 Optimization completed.
    -- Stationary point found.
 Normal termination of Gaussian 09 at Mon Jan 27 17:06:40 2020.
