 Gaussian 09, Revision D.01,
 Gaussian 09:  ES64L-G09RevD.01 24-Apr-2013

 -----------------------------
 # b3lyp 6-31G(2df,p) opt Freq
 -----------------------------

 -----
 titel
 -----
 Symbolic Z-matrix:
 Charge =  0 Multiplicity = 1

 SCF Done:  E(RB3LYP) =  -423.206778485     A.U. after   14 cycles
 Optimization completed.
    -- Stationary point found.
 Normal termination of Gaussian 09 at Tue Jan 28 09:17:32 2020.

 ----------------------------------------------------------------------
 #N Geom=AllCheck Guess=TCheck SCRF=Check GenChk RB3LYP/6-31G(2df,p) Fr
 eq
 ----------------------------------------------------------------------

 Structure from the checkpoint file:  "/scratch/puck/g09_4a8e1848-421c-462d-80da-5d44fc82598d/Gau-77177.chk"
 -----
 titel
 -----
 Charge =  0 Multiplicity = 1

                         Standard orientation:
 ---------------------------------------------------------------------
 Center     Atomic      Atomic             Coordinates (Angstroms)
 Number     Number       Type             X           Y           Z
 ---------------------------------------------------------------------
      1          8           0       -2.416135    0.550302   -1.114705
      2          6           0       -2.127050   -0.249962    0.020317
      3          6           0       -0.681295   -0.162527    0.448917
      4          6           0       -0.039939   -1.307973    1.154984
      5          6           0        0.404990   -0.970187   -0.265713
      6          6           0        1.609983   -0.095609   -0.388997
      7          8           0        2.541219   -0.270738   -1.135301
      8          6           0        1.418117    1.114217    0.540841
      9          6           0       -0.104483    1.224495    0.757364
     10          1           0       -1.861473    0.239462   -1.838494
     11          1           0       -2.776772    0.129790    0.817503
     12          1           0       -2.400254   -1.303774   -0.147765
     13          1           0        0.641552   -1.121579    1.978629
     14          1           0       -0.609217   -2.226921    1.250872
     15          1           0        0.205999   -1.687603   -1.053277
     16          1           0        1.958047    0.924049    1.476226
     17          1           0        1.869769    2.001200    0.093030
     18          1           0       -0.369574    1.557567    1.766317
     19          1           0       -0.540692    1.936565    0.050721
 ---------------------------------------------------------------------

 SCF Done:  E(RB3LYP) =  -423.206778485     A.U. after    1 cycles

 The electronic state is 1-A.
 Alpha  occ. eigenvalues --  -19.14445 -19.12369 -10.26599 -10.23942 -10.21391
 Alpha  occ. eigenvalues --  -10.20858 -10.20409 -10.19431 -10.19189  -1.03528
 Alpha  occ. eigenvalues --   -1.02593  -0.89979  -0.77317  -0.72293  -0.66298
 Alpha  occ. eigenvalues --   -0.63872  -0.56698  -0.54811  -0.51219  -0.48604
 Alpha  occ. eigenvalues --   -0.47060  -0.44974  -0.43755  -0.42009  -0.41143
 Alpha  occ. eigenvalues --   -0.40430  -0.38164  -0.36164  -0.35216  -0.34527
 Alpha  occ. eigenvalues --   -0.30708  -0.29248  -0.27817  -0.23803
 Alpha virt. eigenvalues --   -0.01201   0.06741   0.08375   0.09629   0.11295
 Alpha virt. eigenvalues --    0.12332   0.13284   0.15352   0.15867   0.16947
 Alpha virt. eigenvalues --    0.18078   0.18645   0.20142   0.21120   0.22513

 Mulliken charges:
               1
     1  O   -0.410784
     2  C   -0.155182
     3  C    0.311792
     4  C   -0.343739
     5  C   -0.193616
     6  C    0.423262
     7  O   -0.331330
     8  C   -0.348772
     9  C   -0.278679
    10  H    0.285243
    11  H    0.116870
    12  H    0.087857
    13  H    0.122254
    14  H    0.124125
    15  H    0.100229
    16  H    0.129279
    17  H    0.132129
    18  H    0.103329
    19  H    0.125736
 Sum of Mulliken charges =   0.00000

 Dipole moment (field-independent basis, Debye):
    X=             -1.5474    Y=             -0.5925    Z=              1.8535  Tot=              2.4861
 Quadrupole moment (field-independent basis, Debye-Ang):
   XX=            -65.2300   YY=            -51.6529   ZZ=            -51.5350
   XY=              4.9533   XZ=              3.8858   YZ=              0.5283

  Exact polarizability:  83.210   2.513  72.439  -5.339   0.814  70.945
 Approx polarizability: 118.354  -0.950 105.640 -13.981   0.802 113.265

                      1                      2                      3
                      A                      A                      A
 Frequencies --     81.7539               138.3495               144.4629
 Red. masses --      6.4593                 3.1358                 2.3853
 Frc consts  --      0.0254                 0.0354                 0.0293
 IR Inten    --      6.8623                 0.4908                 0.6098

                      4                      5                      6
                      A                      A                      A
 Frequencies --    253.9403               276.6052               355.6455
 Red. masses --      2.7908                 1.9821                 1.9498
 Frc consts  --      0.1060                 0.0893                 0.1453
 IR Inten    --      5.2843                17.1172                29.5976

                      7                      8                      9
                      A                      A                      A
 Frequencies --    371.2048               457.5605               502.9718
 Red. masses --      1.4208                 4.1324                 3.4855
 Frc consts  --      0.1153                 0.5097                 0.5195
 IR Inten    --     64.3179                23.1186                 0.4992

                     10                     11                     12
                      A                      A                      A
 Frequencies --    514.4391               579.6289               651.0760
 Red. masses --      2.9825                 2.8561                 4.5789
 Frc consts  --      0.4651                 0.5654                 1.1436
 IR Inten    --      4.5903                 3.6765                 3.1900

                     13                     14                     15
                      A                      A                      A
 Frequencies --    692.3391               777.5202               810.1147
 Red. masses --      2.7483                 2.5645                 2.1037
 Frc consts  --      0.7762                 0.9134                 0.8134
 IR Inten    --      5.5598                 8.0809                 2.3828

                     16                     17                     18
                      A                      A                      A
 Frequencies --    872.7073               923.7663               938.9877
 Red. masses --      1.9284                 1.4708                 1.4539
 Frc consts  --      0.8653                 0.7395                 0.7553
 IR Inten    --      4.2125                 2.9880                 9.1858

                     19                     20                     21
                      A                      A                      A
 Frequencies --    962.3730               999.3063              1003.2352
 Red. masses --      2.5761                 1.9358                 2.3601
 Frc consts  --      1.4057                 1.1390                 1.3995
 IR Inten    --     23.4462                10.0162                17.4976

                     22                     23                     24
                      A                      A                      A
 Frequencies --   1052.3672              1055.6382              1070.1886
 Red. masses --      1.4872                 2.2868                 1.5460
 Frc consts  --      0.9704                 1.5014                 1.0432
 IR Inten    --     13.4162                16.8192                15.0355

                     25                     26                     27
                      A                      A                      A
 Frequencies --   1085.0637              1159.8482              1182.0571
 Red. masses --      2.6672                 1.2740                 1.9617
 Frc consts  --      1.8502                 1.0097                 1.6150
 IR Inten    --     59.8194                 0.5746                41.5072

                     28                     29                     30
                      A                      A                      A
 Frequencies --   1201.9933              1227.6410              1244.2538
 Red. masses --      1.4385                 1.4773                 1.6946
 Frc consts  --      1.2246                 1.3118                 1.5457
 IR Inten    --     31.3838                 0.2903                 3.6948

                     31                     32                     33
                      A                      A                      A
 Frequencies --   1285.0780              1313.1924              1320.4764
 Red. masses --      1.3738                 1.9046                 2.1426
 Frc consts  --      1.3367                 1.9351                 2.2011
 IR Inten    --      5.6551                15.9844                 4.3013

                     34                     35                     36
                      A                      A                      A
 Frequencies --   1376.7497              1401.9991              1425.5073
 Red. masses --      1.4638                 1.4625                 1.5392
 Frc consts  --      1.6347                 1.6937                 1.8428
 IR Inten    --      2.9276                16.1499                44.2719

                     37                     38                     39
                      A                      A                      A
 Frequencies --   1460.1287              1488.3957              1498.6754
 Red. masses --      1.1104                 1.1895                 1.0949
 Frc consts  --      1.3948                 1.5525                 1.4489
 IR Inten    --      6.4088                 4.4835                 1.7504

                     40                     41                     42
                      A                      A                      A
 Frequencies --   1506.7161              1832.2796              2978.2482
 Red. masses --      1.1436                12.2166                 1.0692
 Frc consts  --      1.5296                24.1649                 5.5878
 IR Inten    --      1.9902               285.3021                54.4782

                     43                     44                     45
                      A                      A                      A
 Frequencies --   3043.2163              3049.6955              3060.8564
 Red. masses --      1.0669                 1.0637                 1.0928
 Frc consts  --      5.8214                 5.8290                 6.0321
 IR Inten    --     17.0612                16.7044                34.3957

                     46                     47                     48
                      A                      A                      A
 Frequencies --   3092.8761              3119.3382              3127.0350
 Red. masses --      1.1013                 1.0956                 1.0542
 Frc consts  --      6.2068                 6.2808                 6.0734
 IR Inten    --      9.6231                 9.9447                13.6481

                     49                     50                     51
                      A                      A                      A
 Frequencies --   3185.1268              3210.9274              3806.1880
 Red. masses --      1.0923                 1.1159                 1.0660
 Frc consts  --      6.5289                 6.7786                 9.0985
 IR Inten    --      4.0054                 6.4576                13.6234

 - Thermochemistry -
 -------------------
 Temperature   298.150 Kelvin.  Pressure   1.00000 Atm.
 Atom     1 has atomic number  8 and mass  15.99491

 Molecular mass:   126.06808 amu.
 Principal axes and moments of inertia in atomic units:
                           1         2         3
     Eigenvalues --   648.651781526.153491548.81755
           X            0.99953   0.02289   0.02036
           Y           -0.02623   0.98285   0.18253
           Z           -0.01583  -0.18297   0.98299
 This molecule is an asymmetric top.
 Rotational symmetry number  1.
 Warning -- assumption of classical behavior for rotation
           may cause significant error
 Rotational temperatures (Kelvin)      0.13353     0.05675     0.05592
 Rotational constants (GHZ):           2.78230     1.18254     1.16524
 Zero-point vibrational energy     419708.3 (Joules/Mol)
                                  100.31269 (Kcal/Mol)
 Warning -- explicit consideration of  11 degrees of freedom as
           vibrations may cause significant error
 Vibrational temperatures:    117.63   199.05   207.85   365.36   397.97
          (Kelvin)            511.69   534.08   658.33   723.66   740.16
                              833.96   936.75   996.12  1118.68  1165.57
                             1255.63  1329.09  1350.99  1384.64  1437.78
                             1443.43  1514.12  1518.83  1539.76  1561.16
                             1668.76  1700.71  1729.40  1766.30  1790.20
                             1848.94  1889.39  1899.87  1980.83  2017.16
                             2050.98  2100.80  2141.47  2156.26  2167.83
                             2636.24  4285.03  4378.50  4387.83  4403.88
                             4449.95  4488.03  4499.10  4582.68  4619.80
                             5476.25

 Zero-point correction=                           0.159858 (Hartree/Particle)
 Thermal correction to Energy=                    0.168224
 Thermal correction to Enthalpy=                  0.169168
 Thermal correction to Gibbs Free Energy=         0.126815
 Sum of electronic and zero-point Energies=           -423.046920
 Sum of electronic and thermal Energies=              -423.038555
 Sum of electronic and thermal Enthalpies=            -423.037610
 Sum of electronic and thermal Free Energies=         -423.079963

                     E (Thermal)             CV                S
                      KCal/Mol        Cal/Mol-Kelvin    Cal/Mol-Kelvin
 Total                  105.562             32.265             89.139
 Electronic               0.000              0.000              0.000
 Translational            0.889              2.981             40.409
 Rotational               0.889              2.981             28.818
 Vibrational            103.785             26.304             19.912
 Vibration     1          0.600              1.962              3.848
 Vibration     2          0.614              1.915              2.827
 Vibration     3          0.616              1.909              2.744
 Vibration     4          0.665              1.756              1.703
 Vibration     5          0.678              1.717              1.555
 Vibration     6          0.731              1.564              1.141
 Vibration     7          0.743              1.531              1.075
 Vibration     8          0.816              1.344              0.773
 Vibration     9          0.858              1.243              0.651
 Vibration    10          0.869              1.218              0.623
 Vibration    11          0.936              1.075              0.486

 Optimization completed.
    -- Stationary point found.
 Normal termination of Gaussian 09 at Tue Jan 28 10:03:47 2020.
