 Gaussian 09, Revision D.01,
 Gaussian 09:  ES64L-G09RevD.01 24-Apr-2013

 -----------------------------
 # b3lyp 6-31G(2df,p) opt Freq
 -----------------------------

 -----
 titel
 -----
 Symbolic Z-matrix:
 Charge =  0 Multiplicity = 1

 SCF Done:  E(RB3LYP) =  -423.161852574     A.U. after   14 cycles
 Optimization completed.
    -- Stationary point found.
 Normal termination of Gaussian 09 at Tue Jan 28 03:02:55 2020.

 ----------------------------------------------------------------------
 #N Geom=AllCheck Guess=TCheck SCRF=Check GenChk RB3LYP/6-31G(2df,p) Fr
 eq
 ----------------------------------------------------------------------

 Structure from the checkpoint file:  "/scratch/puck/g09_27326d68-eb9c-4739-8b8b-9873baab2006/Gau-65472.chk"
 -----
 titel
 -----
 Charge =  0 Multiplicity = 1

                         Standard orientation:
 ---------------------------------------------------------------------
 Center     Atomic      Atomic             Coordinates (Angstroms)
 Number     Number       Type             X           Y           Z
 ---------------------------------------------------------------------
      1          8           0        2.764613   -0.060268    0.069391
      2          6           0        1.443648   -0.149122   -0.379615
      3          6           0        0.684534   -1.504361   -0.338555
      4          6           0       -0.571766   -0.737303    0.092365
      5          6           0       -1.874533   -0.726495   -0.659100
      6          6           0       -1.807348   -1.270785    0.749709
      7          6           0        0.280105    0.477356    0.480862
      8          6           0       -0.096624    1.895451    0.170352
      9          8           0       -1.160688    2.276013   -0.252977
     10          1           0        2.824552   -0.504729    0.922173
     11          1           0        1.439903    0.274302   -1.387853
     12          1           0        0.645662   -2.082888   -1.264891
     13          1           0        1.077319   -2.144125    0.462264
     14          1           0       -2.360063    0.227655   -0.812645
     15          1           0       -1.983428   -1.437471   -1.472420
     16          1           0       -2.258706   -0.680924    1.541230
     17          1           0       -1.881888   -2.344070    0.894192
     18          1           0        0.584535    0.438850    1.538074
     19          1           0        0.732615    2.618991    0.352468
 ---------------------------------------------------------------------

 SCF Done:  E(RB3LYP) =  -423.161852574     A.U. after    1 cycles

 The electronic state is 1-A.
 Alpha  occ. eigenvalues --  -19.15210 -19.14053 -10.27117 -10.24979 -10.20344
 Alpha  occ. eigenvalues --  -10.20031 -10.19137 -10.18488 -10.18123  -1.04643
 Alpha  occ. eigenvalues --   -1.03658  -0.87890  -0.80389  -0.71132  -0.63261
 Alpha  occ. eigenvalues --   -0.60061  -0.59648  -0.53191  -0.50884  -0.49646
 Alpha  occ. eigenvalues --   -0.47381  -0.45498  -0.44412  -0.42462  -0.40342
 Alpha  occ. eigenvalues --   -0.39304  -0.37387  -0.36037  -0.35053  -0.33360
 Alpha  occ. eigenvalues --   -0.28480  -0.28284  -0.27107  -0.24492
 Alpha virt. eigenvalues --   -0.02299   0.06766   0.08152   0.10032   0.11133
 Alpha virt. eigenvalues --    0.11932   0.13392   0.15235   0.15488   0.15984
 Alpha virt. eigenvalues --    0.16731   0.18564   0.20027   0.23348   0.24281

 Mulliken charges:
               1
     1  O   -0.428057
     2  C    0.145770
     3  C   -0.350370
     4  C    0.353024
     5  C   -0.318345
     6  C   -0.332540
     7  C   -0.201633
     8  C    0.135880
     9  O   -0.251502
    10  H    0.280790
    11  H    0.109467
    12  H    0.111315
    13  H    0.092982
    14  H    0.148824
    15  H    0.107285
    16  H    0.116217
    17  H    0.110284
    18  H    0.087054
    19  H    0.083555
 Sum of Mulliken charges =   0.00000

 Dipole moment (field-independent basis, Debye):
    X=              1.0846    Y=             -2.0529    Z=              1.4762  Tot=              2.7513
 Quadrupole moment (field-independent basis, Debye-Ang):
   XX=            -59.4373   YY=            -55.6350   ZZ=            -49.8450
   XY=              2.1943   XZ=              2.3917   YZ=              1.1201

  Exact polarizability:  85.348   0.151  79.687   3.348  -0.177  65.615
 Approx polarizability: 123.814  -5.699 109.552   8.228  -2.895 103.136

                      1                      2                      3
                      A                      A                      A
 Frequencies --     57.5093                80.2488               172.6555
 Red. masses --      3.7362                 3.4213                 4.5902
 Frc consts  --      0.0073                 0.0130                 0.0806
 IR Inten    --      3.1735                 2.7648                 3.3531

                      4                      5                      6
                      A                      A                      A
 Frequencies --    222.2058               238.5511               307.0800
 Red. masses --      2.3540                 3.1532                 1.8772
 Frc consts  --      0.0685                 0.1057                 0.1043
 IR Inten    --      1.0781                 2.0090                11.6915

                      7                      8                      9
                      A                      A                      A
 Frequencies --    334.2533               355.7136               392.3509
 Red. masses --      1.3563                 3.5185                 3.1961
 Frc consts  --      0.0893                 0.2623                 0.2899
 IR Inten    --     80.9554                 1.2772                11.7410

                     10                     11                     12
                      A                      A                      A
 Frequencies --    474.5863               499.7101               657.1796
 Red. masses --      2.4691                 3.6366                 3.5007
 Frc consts  --      0.3277                 0.5350                 0.8908
 IR Inten    --      5.5677                 3.6741                20.1276

                     13                     14                     15
                      A                      A                      A
 Frequencies --    757.6745               780.5170               817.8949
 Red. masses --      2.9243                 1.1221                 2.0482
 Frc consts  --      0.9891                 0.4028                 0.8073
 IR Inten    --      3.3440                 0.1759                17.6830

                     16                     17                     18
                      A                      A                      A
 Frequencies --    867.4820               908.6856               921.6687
 Red. masses --      2.0465                 1.7603                 1.5469
 Frc consts  --      0.9074                 0.8564                 0.7742
 IR Inten    --      1.8532                 3.6431                14.6950

                     19                     20                     21
                      A                      A                      A
 Frequencies --    951.5955               976.9463              1006.4383
 Red. masses --      2.6949                 2.9943                 2.3222
 Frc consts  --      1.4378                 1.6838                 1.3859
 IR Inten    --      2.0991                 5.5838                22.2544

                     22                     23                     24
                      A                      A                      A
 Frequencies --   1047.2825              1062.0952              1075.5572
 Red. masses --      1.5044                 1.8476                 1.4882
 Frc consts  --      0.9722                 1.2280                 1.0143
 IR Inten    --      4.3994                 9.1588                 3.8873

                     25                     26                     27
                      A                      A                      A
 Frequencies --   1086.3728              1111.7144              1154.2343
 Red. masses --      1.3772                 2.1202                 2.1540
 Frc consts  --      0.9577                 1.5439                 1.6907
 IR Inten    --      2.1265               103.0516                58.2529

                     28                     29                     30
                      A                      A                      A
 Frequencies --   1163.9008              1193.3678              1227.0045
 Red. masses --      1.4833                 1.2863                 1.5217
 Frc consts  --      1.1839                 1.0793                 1.3498
 IR Inten    --     35.8466                 0.4114                15.0388

                     31                     32                     33
                      A                      A                      A
 Frequencies --   1237.7506              1268.7061              1326.4144
 Red. masses --      1.7341                 1.3704                 1.6540
 Frc consts  --      1.5652                 1.2997                 1.7145
 IR Inten    --      6.4853                 2.5657                 3.5282

                     34                     35                     36
                      A                      A                      A
 Frequencies --   1341.5282              1386.4221              1427.7965
 Red. masses --      1.8409                 2.3205                 1.2276
 Frc consts  --      1.9520                 2.6280                 1.4745
 IR Inten    --     13.2062                11.8919                 8.8889

                     37                     38                     39
                      A                      A                      A
 Frequencies --   1434.3594              1462.9572              1484.8438
 Red. masses --      1.2478                 1.0882                 1.1264
 Frc consts  --      1.5126                 1.3722                 1.4632
 IR Inten    --     77.1140                 2.4251                 3.4412

                     40                     41                     42
                      A                      A                      A
 Frequencies --   1503.4631              1817.7914              2857.0961
 Red. masses --      1.5693                10.2866                 1.0815
 Frc consts  --      2.0900                20.0267                 5.2015
 IR Inten    --      0.7541               155.0795               130.4671

                     43                     44                     45
                      A                      A                      A
 Frequencies --   2995.6514              3023.7731              3077.7640
 Red. masses --      1.0815                 1.0646                 1.0868
 Frc consts  --      5.7182                 5.7353                 6.0655
 IR Inten    --     23.7570                36.2915                11.2954

                     46                     47                     48
                      A                      A                      A
 Frequencies --   3100.8098              3123.2274              3136.4745
 Red. masses --      1.1002                 1.0533                 1.0593
 Frc consts  --      6.2327                 6.0536                 6.1400
 IR Inten    --     31.5865                15.7467                14.5505

                     49                     50                     51
                      A                      A                      A
 Frequencies --   3206.1030              3244.8530              3802.0435
 Red. masses --      1.1165                 1.1120                 1.0657
 Frc consts  --      6.7621                 6.8986                 9.0769
 IR Inten    --      7.6286                 1.8028                18.0050

 - Thermochemistry -
 -------------------
 Temperature   298.150 Kelvin.  Pressure   1.00000 Atm.
 Atom     1 has atomic number  8 and mass  15.99491

 Molecular mass:   126.06808 amu.
 Principal axes and moments of inertia in atomic units:
                           1         2         3
     Eigenvalues --   874.588741159.287901801.34708
           X            0.99738   0.07216   0.00441
           Y           -0.07219   0.99737   0.00644
           Z           -0.00393  -0.00674   0.99997
 This molecule is an asymmetric top.
 Rotational symmetry number  1.
 Warning -- assumption of classical behavior for rotation
           may cause significant error
 Rotational temperatures (Kelvin)      0.09903     0.07471     0.04808
 Rotational constants (GHZ):           2.06353     1.55677     1.00188
 Zero-point vibrational energy     413682.4 (Joules/Mol)
                                   98.87248 (Kcal/Mol)
 Warning -- explicit consideration of  11 degrees of freedom as
           vibrations may cause significant error
 Vibrational temperatures:     82.74   115.46   248.41   319.70   343.22
          (Kelvin)            441.82   480.92   511.79   564.50   682.82
                              718.97   945.53  1090.12  1122.99  1176.77
                             1248.11  1307.39  1326.07  1369.13  1405.61
                             1448.04  1506.80  1528.12  1547.48  1563.05
                             1599.51  1660.68  1674.59  1716.99  1765.38
                             1780.84  1825.38  1908.41  1930.16  1994.75
                             2054.28  2063.72  2104.87  2136.36  2163.15
                             2615.39  4110.72  4310.07  4350.53  4428.21
                             4461.37  4493.62  4512.68  4612.86  4668.61
                             5470.29

 Zero-point correction=                           0.157563 (Hartree/Particle)
 Thermal correction to Energy=                    0.166510
 Thermal correction to Enthalpy=                  0.167454
 Thermal correction to Gibbs Free Energy=         0.123457
 Sum of electronic and zero-point Energies=           -423.004289
 Sum of electronic and thermal Energies=              -422.995342
 Sum of electronic and thermal Enthalpies=            -422.994398
 Sum of electronic and thermal Free Energies=         -423.038395

                     E (Thermal)             CV                S
                      KCal/Mol        Cal/Mol-Kelvin    Cal/Mol-Kelvin
 Total                  104.487             33.436             92.600
 Electronic               0.000              0.000              0.000
 Translational            0.889              2.981             40.409
 Rotational               0.889              2.981             28.992
 Vibrational            102.709             27.474             23.199
 Vibration     1          0.596              1.975              4.541
 Vibration     2          0.600              1.963              3.885
 Vibration     3          0.626              1.876              2.406
 Vibration     4          0.648              1.807              1.941
 Vibration     5          0.657              1.782              1.814
 Vibration     6          0.697              1.660              1.378
 Vibration     7          0.716              1.607              1.239
 Vibration     8          0.731              1.564              1.141
 Vibration     9          0.760              1.487              0.991
 Vibration    10          0.831              1.306              0.725
 Vibration    11          0.855              1.251              0.659

 Normal termination of Gaussian 09 at Tue Jan 28 03:52:17 2020.
