 Gaussian 09, Revision D.01,
 Gaussian 09:  ES64L-G09RevD.01 24-Apr-2013

 -----------------------------
 # b3lyp 6-31G(2df,p) opt Freq
 -----------------------------

 -----
 titel
 -----
 Symbolic Z-matrix:
 Charge =  0 Multiplicity = 1

 SCF Done:  E(RB3LYP) =  -423.135740083     A.U. after   12 cycles
 Optimization completed.
    -- Stationary point found.
 Normal termination of Gaussian 09 at Mon Jan 27 22:51:32 2020.

 ----------------------------------------------------------------------
 #N Geom=AllCheck Guess=TCheck SCRF=Check GenChk RB3LYP/6-31G(2df,p) Fr
 eq
 ----------------------------------------------------------------------

 Structure from the checkpoint file:  "/scratch/puck/g09_b3088387-5bfe-4198-a2cb-49a7e54697ff/Gau-183092.chk"
 -----
 titel
 -----
 Charge =  0 Multiplicity = 1

                         Standard orientation:
 ---------------------------------------------------------------------
 Center     Atomic      Atomic             Coordinates (Angstroms)
 Number     Number       Type             X           Y           Z
 ---------------------------------------------------------------------
      1          6           0        2.646256   -0.063825   -0.030691
      2          6           0        1.327588   -0.828513    0.019502
      3          6           0        0.160579   -0.488987   -0.945831
      4          6           0       -0.788351   -1.247233    0.023679
      5          8           0       -2.091096   -0.703601    0.001367
      6          6           0       -1.823598    0.701440   -0.027676
      7          6           0       -0.295923    0.708949   -0.012957
      8          8           0        0.225635    1.997900   -0.030988
      9          6           0        0.155457   -0.432969    0.964264
     10          1           0        3.176483   -0.123484    0.926401
     11          1           0        3.302615   -0.500106   -0.791429
     12          1           0        2.531503    0.990201   -0.296612
     13          1           0        1.546630   -1.903071    0.064965
     14          1           0        0.148517   -0.520555   -2.036219
     15          1           0       -0.805842   -2.334650    0.058608
     16          1           0       -2.239887    1.159888   -0.932762
     17          1           0       -2.251164    1.197231    0.852082
     18          1           0        1.086310    1.998595    0.394188
     19          1           0        0.136486   -0.411621    2.056012
 ---------------------------------------------------------------------

 SCF Done:  E(RB3LYP) =  -423.135740083     A.U. after    1 cycles

 The electronic state is 1-A.
 Alpha  occ. eigenvalues --  -19.15104 -19.13596 -10.24742 -10.23845 -10.22010
 Alpha  occ. eigenvalues --  -10.20106 -10.19614 -10.19195 -10.18534  -1.05334
 Alpha  occ. eigenvalues --   -1.03031  -0.89386  -0.74482  -0.72119  -0.63848
 Alpha  occ. eigenvalues --   -0.62174  -0.58719  -0.56986  -0.50509  -0.48689
 Alpha  occ. eigenvalues --   -0.46435  -0.45831  -0.41817  -0.41389  -0.40306
 Alpha  occ. eigenvalues --   -0.38700  -0.37227  -0.35804  -0.34476  -0.32395
 Alpha  occ. eigenvalues --   -0.30949  -0.29134  -0.26207  -0.23613
 Alpha virt. eigenvalues --    0.06252   0.10819   0.11885   0.12135   0.12537
 Alpha virt. eigenvalues --    0.13708   0.14340   0.14742   0.16073   0.17246
 Alpha virt. eigenvalues --    0.18069   0.18912   0.19541   0.20535   0.21949

 Mulliken charges:
               1
     1  C   -0.446508
     2  C    0.014321
     3  C   -0.171449
     4  C    0.155073
     5  O   -0.284093
     6  C   -0.125444
     7  C    0.369531
     8  O   -0.481067
     9  C   -0.191745
    10  H    0.120026
    11  H    0.125623
    12  H    0.109974
    13  H    0.068056
    14  H    0.072512
    15  H    0.092039
    16  H    0.108190
    17  H    0.104679
    18  H    0.290485
    19  H    0.069796
 Sum of Mulliken charges =   0.00000

 Dipole moment (field-independent basis, Debye):
    X=              2.2092    Y=             -0.2508    Z=              0.5604  Tot=              2.2930
 Quadrupole moment (field-independent basis, Debye-Ang):
   XX=            -54.7466   YY=            -54.4819   ZZ=            -52.0590
   XY=             -1.2103   XZ=              0.8236   YZ=              1.3709

  Exact polarizability:  84.418  -3.977  73.082   0.534   0.489  66.037
 Approx polarizability: 113.200  -3.231 111.979   1.192   0.505 104.661

                      1                      2                      3
                      A                      A                      A
 Frequencies --    148.9827               158.4945               209.1733
 Red. masses --      1.5490                 1.1454                 2.8724
 Frc consts  --      0.0203                 0.0170                 0.0740
 IR Inten    --     58.2549                 5.5454                 4.9006

                      4                      5                      6
                      A                      A                      A
 Frequencies --    280.9577               300.1206               356.9703
 Red. masses --      2.7721                 1.6224                 3.3804
 Frc consts  --      0.1289                 0.0861                 0.2538
 IR Inten    --      3.4134                28.1318                 4.2730

                      7                      8                      9
                      A                      A                      A
 Frequencies --    402.9462               457.3597               486.7699
 Red. masses --      2.9629                 2.9910                 3.9866
 Frc consts  --      0.2834                 0.3686                 0.5565
 IR Inten    --      0.9628                 2.1738                 3.4475

                     10                     11                     12
                      A                      A                      A
 Frequencies --    647.3794               696.0501               717.7577
 Red. masses --      5.7705                 3.4408                 4.0399
 Frc consts  --      1.4249                 0.9822                 1.2262
 IR Inten    --      1.8185                 0.9634                 2.2388

                     13                     14                     15
                      A                      A                      A
 Frequencies --    721.6108               814.1846               824.2177
 Red. masses --      3.8203                 2.0722                 2.3381
 Frc consts  --      1.1721                 0.8093                 0.9358
 IR Inten    --      3.5938                 0.0431                 4.9932

                     16                     17                     18
                      A                      A                      A
 Frequencies --    899.0765               931.0824               982.6355
 Red. masses --      1.8409                 2.3603                 3.4151
 Frc consts  --      0.8767                 1.2056                 1.9429
 IR Inten    --      5.3454                30.1284                17.5935

                     19                     20                     21
                      A                      A                      A
 Frequencies --    997.5216              1034.6507              1048.1368
 Red. masses --      1.1854                 1.6246                 4.1729
 Frc consts  --      0.6950                 1.0247                 2.7010
 IR Inten    --      0.4377                13.3984                81.7594

                     22                     23                     24
                      A                      A                      A
 Frequencies --   1067.9923              1073.4747              1086.9697
 Red. masses --      1.7006                 2.7848                 1.7779
 Frc consts  --      1.1428                 1.8907                 1.2377
 IR Inten    --     12.3798                10.9860                17.4473

                     25                     26                     27
                      A                      A                      A
 Frequencies --   1117.7811              1135.7458              1140.6437
 Red. masses --      1.9025                 2.3280                 1.8027
 Frc consts  --      1.4005                 1.7693                 1.3819
 IR Inten    --     27.0206                17.6576                10.0029

                     28                     29                     30
                      A                      A                      A
 Frequencies --   1153.8168              1192.1181              1203.2311
 Red. masses --      1.4442                 1.3068                 1.8941
 Frc consts  --      1.1328                 1.0942                 1.6157
 IR Inten    --      2.1007                 3.6149                 2.3145

                     31                     32                     33
                      A                      A                      A
 Frequencies --   1242.5902              1249.2253              1294.2429
 Red. masses --      2.5193                 1.6913                 1.5115
 Frc consts  --      2.2919                 1.5551                 1.4917
 IR Inten    --     73.3112                 2.6781                 0.6931

                     34                     35                     36
                      A                      A                      A
 Frequencies --   1306.2504              1376.8737              1386.6351
 Red. masses --      1.8996                 1.6916                 1.8008
 Frc consts  --      1.9097                 1.8895                 2.0400
 IR Inten    --    106.5614                51.9528                 2.7222

                     37                     38                     39
                      A                      A                      A
 Frequencies --   1414.8881              1430.0017              1492.2349
 Red. masses --      1.2766                 1.4724                 1.0519
 Frc consts  --      1.5057                 1.7740                 1.3801
 IR Inten    --      1.7986                11.7883                 2.3453

                     40                     41                     42
                      A                      A                      A
 Frequencies --   1515.1337              1522.3126              3017.1215
 Red. masses --      1.0518                 1.1004                 1.0826
 Frc consts  --      1.4226                 1.5025                 5.8061
 IR Inten    --      5.2774                 0.8668                41.6756

                     43                     44                     45
                      A                      A                      A
 Frequencies --   3024.0934              3034.9691              3065.5391
 Red. masses --      1.0557                 1.0381                 1.1098
 Frc consts  --      5.6885                 5.6337                 6.1447
 IR Inten    --     60.0349                27.9523                27.8164

                     46                     47                     48
                      A                      A                      A
 Frequencies --   3091.2341              3092.3511              3106.9106
 Red. masses --      1.0991                 1.0912                 1.0907
 Frc consts  --      6.1881                 6.1478                 6.2031
 IR Inten    --     40.5806                36.6362                28.8105

                     49                     50                     51
                      A                      A                      A
 Frequencies --   3112.2496              3149.8642              3861.5277
 Red. masses --      1.0987                 1.0921                 1.0658
 Frc consts  --      6.2699                 6.3840                 9.3636
 IR Inten    --     36.1867                30.0475                32.0752

 - Thermochemistry -
 -------------------
 Temperature   298.150 Kelvin.  Pressure   1.00000 Atm.
 Atom     1 has atomic number  6 and mass  12.00000

 Molecular mass:   126.06808 amu.
 Principal axes and moments of inertia in atomic units:
                           1         2         3
     Eigenvalues --   596.602951073.221461428.89585
           X            0.99959  -0.02878   0.00085
           Y            0.02877   0.99956   0.00659
           Z           -0.00104  -0.00656   0.99998
 This molecule is an asymmetric top.
 Rotational symmetry number  1.
 Warning -- assumption of classical behavior for rotation
           may cause significant error
 Rotational temperatures (Kelvin)      0.14518     0.08070     0.06062
 Rotational constants (GHZ):           3.02503     1.68161     1.26303
 Zero-point vibrational energy     419136.2 (Joules/Mol)
                                  100.17596 (Kcal/Mol)
 Warning -- explicit consideration of   9 degrees of freedom as
           vibrations may cause significant error
 Vibrational temperatures:    214.35   228.04   300.95   404.23   431.81
          (Kelvin)            513.60   579.75   658.04   700.35   931.43
                             1001.46  1032.69  1038.24  1171.43  1185.86
                             1293.57  1339.62  1413.79  1435.21  1488.63
                             1508.03  1536.60  1544.49  1563.90  1608.24
                             1634.08  1641.13  1660.08  1715.19  1731.18
                             1787.81  1797.35  1862.12  1879.40  1981.01
                             1995.06  2035.71  2057.45  2146.99  2179.94
                             2190.27  4340.96  4350.99  4366.64  4410.62
                             4447.59  4449.20  4470.15  4477.83  4531.95
                             5555.87

 Zero-point correction=                           0.159641 (Hartree/Particle)
 Thermal correction to Energy=                    0.167454
 Thermal correction to Enthalpy=                  0.168398
 Thermal correction to Gibbs Free Energy=         0.127773
 Sum of electronic and zero-point Energies=           -422.976100
 Sum of electronic and thermal Energies=              -422.968286
 Sum of electronic and thermal Enthalpies=            -422.967342
 Sum of electronic and thermal Free Energies=         -423.007967

                     E (Thermal)             CV                S
                      KCal/Mol        Cal/Mol-Kelvin    Cal/Mol-Kelvin
 Total                  105.079             31.220             85.502
 Electronic               0.000              0.000              0.000
 Translational            0.889              2.981             40.409
 Rotational               0.889              2.981             28.305
 Vibrational            103.301             25.258             16.788
 Vibration     1          0.618              1.904              2.685
 Vibration     2          0.621              1.893              2.568
 Vibration     3          0.642              1.827              2.051
 Vibration     4          0.681              1.709              1.528
 Vibration     5          0.693              1.673              1.416
 Vibration     6          0.732              1.561              1.135
 Vibration     7          0.768              1.464              0.952
 Vibration     8          0.815              1.345              0.774
 Vibration     9          0.843              1.279              0.692

 Optimization completed.
    -- Stationary point found.
 Normal termination of Gaussian 09 at Mon Jan 27 23:36:18 2020.
