 Gaussian 09, Revision D.01,
 Gaussian 09:  ES64L-G09RevD.01 24-Apr-2013

 -----------------------------
 # b3lyp 6-31G(2df,p) opt Freq
 -----------------------------

 -----
 titel
 -----
 Symbolic Z-matrix:
 Charge =  0 Multiplicity = 1

 SCF Done:  E(RB3LYP) =  -423.233715885     A.U. after   14 cycles
 Optimization completed.
    -- Stationary point found.
 Normal termination of Gaussian 09 at Mon Jan 27 17:16:25 2020.

 ----------------------------------------------------------------------
 #N Geom=AllCheck Guess=TCheck SCRF=Check GenChk RB3LYP/6-31G(2df,p) Fr
 eq
 ----------------------------------------------------------------------

 Structure from the checkpoint file:  "/scratch/puck/g09_e1db8aaa-88c6-421d-9efc-133172802efc/Gau-60066.chk"
 -----
 titel
 -----
 Charge =  0 Multiplicity = 1

                         Standard orientation:
 ---------------------------------------------------------------------
 Center     Atomic      Atomic             Coordinates (Angstroms)
 Number     Number       Type             X           Y           Z
 ---------------------------------------------------------------------
      1          6           0        2.390343    0.047576   -0.539969
      2          6           0        1.055041   -0.272890    0.083208
      3          6           0        0.634742    0.308560    1.401424
      4          6           0       -0.124352    0.681819    0.133063
      5          6           0       -0.181781    2.097019   -0.381066
      6          6           0       -1.342021   -0.172146   -0.062379
      7          8           0       -2.479911    0.181825   -0.181973
      8          8           0       -0.982380   -1.491452   -0.091894
      9          6           0        0.441214   -1.637590   -0.203048
     10          1           0        3.171368   -0.619066   -0.156560
     11          1           0        2.359848   -0.065251   -1.629364
     12          1           0        2.697432    1.072928   -0.316185
     13          1           0        0.152207   -0.324113    2.140494
     14          1           0        1.258401    1.093421    1.817474
     15          1           0       -1.030225    2.621063    0.068297
     16          1           0        0.730774    2.647315   -0.136776
     17          1           0       -0.316274    2.122351   -1.467154
     18          1           0        0.757898   -2.411752    0.503530
     19          1           0        0.677776   -1.973964   -1.220212
 ---------------------------------------------------------------------

 SCF Done:  E(RB3LYP) =  -423.233715885     A.U. after    1 cycles

 The electronic state is 1-A.
 Alpha  occ. eigenvalues --  -19.17624 -19.11784 -10.29779 -10.24926 -10.21889
 Alpha  occ. eigenvalues --  -10.21474 -10.20388 -10.19794 -10.18872  -1.09515
 Alpha  occ. eigenvalues --   -1.01653  -0.89194  -0.76186  -0.71894  -0.70817
 Alpha  occ. eigenvalues --   -0.64513  -0.56962  -0.55497  -0.50463  -0.48429
 Alpha  occ. eigenvalues --   -0.46065  -0.44104  -0.43008  -0.42862  -0.42325
 Alpha  occ. eigenvalues --   -0.40860  -0.39705  -0.39377  -0.37395  -0.34142
 Alpha  occ. eigenvalues --   -0.30752  -0.29183  -0.28895  -0.25768
 Alpha virt. eigenvalues --    0.01491   0.07493   0.10117   0.10221   0.11724
 Alpha virt. eigenvalues --    0.12023   0.13316   0.15210   0.15486   0.16131
 Alpha virt. eigenvalues --    0.17147   0.17600   0.18403   0.20131   0.22431

 Mulliken charges:
               1
     1  C   -0.488371
     2  C    0.263670
     3  C   -0.364943
     4  C    0.120077
     5  C   -0.482020
     6  C    0.422873
     7  O   -0.350953
     8  O   -0.234944
     9  C   -0.141581
    10  H    0.128433
    11  H    0.125791
    12  H    0.127122
    13  H    0.127972
    14  H    0.119475
    15  H    0.147418
    16  H    0.115498
    17  H    0.129142
    18  H    0.120711
    19  H    0.114630
 Sum of Mulliken charges =   0.00000

 Dipole moment (field-independent basis, Debye):
    X=              4.4962    Y=              0.3273    Z=              0.2304  Tot=              4.5140
 Quadrupole moment (field-independent basis, Debye-Ang):
   XX=            -61.8196   YY=            -51.5908   ZZ=            -51.2333
   XY=             -1.2898   XZ=             -0.9637   YZ=              0.1705

  Exact polarizability:  83.250  -5.648  77.052   0.814   0.481  65.469
 Approx polarizability: 123.398 -11.322 110.121   3.913   1.178  99.818

                      1                      2                      3
                      A                      A                      A
 Frequencies --    125.1728               156.8316               180.3901
 Red. masses --      4.6614                 1.0559                 1.0978
 Frc consts  --      0.0430                 0.0153                 0.0210
 IR Inten    --      1.9373                 0.1219                 0.0634

                      4                      5                      6
                      A                      A                      A
 Frequencies --    197.4068               208.7760               265.4484
 Red. masses --      3.2023                 2.1612                 3.0967
 Frc consts  --      0.0735                 0.0555                 0.1286
 IR Inten    --      2.0550                 0.2397                 3.3231

                      7                      8                      9
                      A                      A                      A
 Frequencies --    315.9896               374.3336               429.9893
 Red. masses --      2.6213                 2.6821                 2.2554
 Frc consts  --      0.1542                 0.2214                 0.2457
 IR Inten    --      0.8631                 1.6455                 1.8599

                     10                     11                     12
                      A                      A                      A
 Frequencies --    508.5918               543.6344               656.2077
 Red. masses --      3.8356                 4.0829                 5.1197
 Frc consts  --      0.5846                 0.7109                 1.2989
 IR Inten    --      3.1919                 2.0026                 2.2374

                     13                     14                     15
                      A                      A                      A
 Frequencies --    696.0202               717.7011               791.7384
 Red. masses --      4.8815                 5.8289                 4.2106
 Frc consts  --      1.3933                 1.7690                 1.5551
 IR Inten    --      0.9972                 1.8042                 5.9161

                     16                     17                     18
                      A                      A                      A
 Frequencies --    840.2811               912.2803               941.6312
 Red. masses --      2.8585                 1.8519                 1.4303
 Frc consts  --      1.1892                 0.9081                 0.7472
 IR Inten    --     12.2132                 1.2218                 8.5351

                     19                     20                     21
                      A                      A                      A
 Frequencies --    974.8560               988.9137              1030.1929
 Red. masses --      1.6306                 1.5151                 1.4856
 Frc consts  --      0.9130                 0.8730                 0.9290
 IR Inten    --      4.3956                 2.6318                 4.1983

                     22                     23                     24
                      A                      A                      A
 Frequencies --   1054.8609              1060.8063              1102.1339
 Red. masses --      1.5456                 5.6215                 2.2698
 Frc consts  --      1.0133                 3.7272                 1.6245
 IR Inten    --     47.4793                74.7788                57.1569

                     25                     26                     27
                      A                      A                      A
 Frequencies --   1109.7521              1128.3817              1189.0601
 Red. masses --      1.7574                 2.0307                 2.6619
 Frc consts  --      1.2752                 1.5234                 2.2174
 IR Inten    --     32.8031                22.4088                 3.0295

                     28                     29                     30
                      A                      A                      A
 Frequencies --   1237.3948              1254.6792              1348.6173
 Red. masses --      1.1777                 2.9575                 3.2273
 Frc consts  --      1.0624                 2.7431                 3.4583
 IR Inten    --      5.5998                 3.0821                34.7421

                     31                     32                     33
                      A                      A                      A
 Frequencies --   1373.2650              1415.9716              1417.3755
 Red. masses --      2.1701                 1.3669                 1.3797
 Frc consts  --      2.4112                 1.6147                 1.6330
 IR Inten    --      6.6147                 5.6047                 5.2489

                     34                     35                     36
                      A                      A                      A
 Frequencies --   1426.7324              1481.3658              1489.6126
 Red. masses --      1.5134                 1.0447                 1.0722
 Frc consts  --      1.8150                 1.3507                 1.4018
 IR Inten    --      1.8051                 3.5840                 2.2499

                     37                     38                     39
                      A                      A                      A
 Frequencies --   1493.2972              1495.6221              1506.2375
 Red. masses --      1.0788                 1.1953                 1.1749
 Frc consts  --      1.4174                 1.5754                 1.5705
 IR Inten    --      4.9531                10.2111                 5.8565

                     40                     41                     42
                      A                      A                      A
 Frequencies --   1522.1951              1873.1768              3025.0003
 Red. masses --      1.1109                12.7997                 1.0528
 Frc consts  --      1.5166                26.4612                 5.6758
 IR Inten    --      3.2157               385.5938                20.2007

                     43                     44                     45
                      A                      A                      A
 Frequencies --   3030.1447              3041.6995              3076.1751
 Red. masses --      1.0439                 1.0356                 1.1052
 Frc consts  --      5.6471                 5.6451                 6.1616
 IR Inten    --     59.3033                19.8995                21.6297

                     46                     47                     48
                      A                      A                      A
 Frequencies --   3087.9945              3107.0568              3110.2935
 Red. masses --      1.1010                 1.1009                 1.0996
 Frc consts  --      6.1860                 6.2619                 6.2676
 IR Inten    --     23.2960                 7.2970                22.3207

                     49                     50                     51
                      A                      A                      A
 Frequencies --   3118.9836              3121.0015              3208.3832
 Red. masses --      1.0848                 1.0703                 1.1173
 Frc consts  --      6.2174                 6.1423                 6.7761
 IR Inten    --      8.0221                17.8650                 5.4778

 - Thermochemistry -
 -------------------
 Temperature   298.150 Kelvin.  Pressure   1.00000 Atm.
 Atom     1 has atomic number  6 and mass  12.00000

 Molecular mass:   126.06808 amu.
 Principal axes and moments of inertia in atomic units:
                           1         2         3
     Eigenvalues --   732.132411059.682481470.68570
           X            0.99964  -0.02353  -0.01318
           Y            0.02342   0.99969  -0.00801
           Z            0.01336   0.00770   0.99988
 This molecule is an asymmetric top.
 Rotational symmetry number  1.
 Warning -- assumption of classical behavior for rotation
           may cause significant error
 Rotational temperatures (Kelvin)      0.11830     0.08174     0.05889
 Rotational constants (GHZ):           2.46505     1.70310     1.22714
 Zero-point vibrational energy     417279.3 (Joules/Mol)
                                   99.73215 (Kcal/Mol)
 Warning -- explicit consideration of  11 degrees of freedom as
           vibrations may cause significant error
 Vibrational temperatures:    180.10   225.65   259.54   284.02   300.38
          (Kelvin)            381.92   454.64   538.58   618.66   731.75
                              782.17   944.14  1001.42  1032.61  1139.13
                             1208.98  1312.57  1354.80  1402.60  1422.82
                             1482.22  1517.71  1526.26  1585.72  1596.68
                             1623.49  1710.79  1780.33  1805.20  1940.36
                             1975.82  2037.26  2039.28  2052.75  2131.35
                             2143.22  2148.52  2151.86  2167.14  2190.10
                             2695.08  4352.30  4359.70  4376.32  4425.92
                             4442.93  4470.36  4475.01  4487.52  4490.42
                             4616.14

 Zero-point correction=                           0.158933 (Hartree/Particle)
 Thermal correction to Energy=                    0.167636
 Thermal correction to Enthalpy=                  0.168580
 Thermal correction to Gibbs Free Energy=         0.125992
 Sum of electronic and zero-point Energies=           -423.074783
 Sum of electronic and thermal Energies=              -423.066080
 Sum of electronic and thermal Enthalpies=            -423.065135
 Sum of electronic and thermal Free Energies=         -423.107724

                     E (Thermal)             CV                S
                      KCal/Mol        Cal/Mol-Kelvin    Cal/Mol-Kelvin
 Total                  105.193             32.904             89.635
 Electronic               0.000              0.000              0.000
 Translational            0.889              2.981             40.409
 Rotational               0.889              2.981             28.525
 Vibrational            103.416             26.943             20.702
 Vibration     1          0.610              1.928              3.019
 Vibration     2          0.620              1.895              2.588
 Vibration     3          0.629              1.866              2.324
 Vibration     4          0.637              1.844              2.157
 Vibration     5          0.642              1.827              2.054
 Vibration     6          0.671              1.736              1.626
 Vibration     7          0.703              1.643              1.331
 Vibration     8          0.745              1.525              1.062
 Vibration     9          0.791              1.405              0.859
 Vibration    10          0.864              1.231              0.637
 Vibration    11          0.899              1.154              0.558

 Normal termination of Gaussian 09 at Mon Jan 27 18:00:42 2020.
