 Gaussian 09, Revision D.01,
 Gaussian 09:  ES64L-G09RevD.01 24-Apr-2013

 -----------------------------
 # b3lyp 6-31G(2df,p) opt Freq
 -----------------------------

 -----
 titel
 -----
 Symbolic Z-matrix:
 Charge =  0 Multiplicity = 1

 SCF Done:  E(RB3LYP) =  -423.154617698     A.U. after   13 cycles
 Optimization completed.
    -- Stationary point found.
 Normal termination of Gaussian 09 at Mon Jan 27 17:29:49 2020.

 ----------------------------------------------------------------------
 #N Geom=AllCheck Guess=TCheck SCRF=Check GenChk RB3LYP/6-31G(2df,p) Fr
 eq
 ----------------------------------------------------------------------

 Structure from the checkpoint file:  "/scratch/puck/g09_33b84e04-f0c3-4aa3-892a-45de7ba2a89c/Gau-32810.chk"
 -----
 titel
 -----
 Charge =  0 Multiplicity = 1

                         Standard orientation:
 ---------------------------------------------------------------------
 Center     Atomic      Atomic             Coordinates (Angstroms)
 Number     Number       Type             X           Y           Z
 ---------------------------------------------------------------------
      1          8           0        2.238033    0.087304   -0.919230
      2          6           0        1.130076    0.078267   -0.059903
      3          6           0        1.183172   -0.776503    1.176891
      4          6           0        0.344299   -1.198410   -0.026247
      5          6           0       -1.145956   -1.100280    0.053167
      6          6           0       -1.876943   -0.317291   -1.036264
      7          6           0       -1.705052    0.264444    0.341354
      8          8           0       -0.858351    1.340635    0.647139
      9          6           0        0.361493    1.392407   -0.065764
     10          1           0        2.942060    0.586551   -0.489811
     11          1           0        2.104219   -1.320060    1.356360
     12          1           0        0.659648   -0.433526    2.062885
     13          1           0        0.752364   -2.005053   -0.628621
     14          1           0       -1.655248   -1.955824    0.488558
     15          1           0       -1.273227    0.060687   -1.853193
     16          1           0       -2.874573   -0.628249   -1.326861
     17          1           0       -2.588700    0.341271    0.964889
     18          1           0        0.201759    1.690931   -1.112983
     19          1           0        0.947706    2.183954    0.416096
 ---------------------------------------------------------------------

 SCF Done:  E(RB3LYP) =  -423.154617698     A.U. after    1 cycles

 The electronic state is 1-A.
 Alpha  occ. eigenvalues --  -19.14612 -19.14602 -10.23790 -10.23411 -10.22912
 Alpha  occ. eigenvalues --  -10.19090 -10.18905 -10.18144 -10.18077  -1.04378
 Alpha  occ. eigenvalues --   -1.02845  -0.86464  -0.83042  -0.71045  -0.63911
 Alpha  occ. eigenvalues --   -0.60629  -0.59025  -0.52998  -0.52278  -0.50424
 Alpha  occ. eigenvalues --   -0.49707  -0.44428  -0.43824  -0.42111  -0.38600
 Alpha  occ. eigenvalues --   -0.38469  -0.36721  -0.36224  -0.34258  -0.33975
 Alpha  occ. eigenvalues --   -0.28068  -0.26613  -0.25633  -0.23059
 Alpha virt. eigenvalues --    0.07339   0.09408   0.10335   0.11032   0.13031
 Alpha virt. eigenvalues --    0.13855   0.14470   0.15692   0.17173   0.17668
 Alpha virt. eigenvalues --    0.18085   0.20299   0.20894   0.21869   0.24049

 Mulliken charges:
               1
     1  O   -0.464383
     2  C    0.358473
     3  C   -0.355432
     4  C   -0.078356
     5  C   -0.072230
     6  C   -0.350117
     7  C    0.131332
     8  O   -0.254798
     9  C   -0.157401
    10  H    0.283146
    11  H    0.109778
    12  H    0.123632
    13  H    0.096407
    14  H    0.085922
    15  H    0.126020
    16  H    0.112034
    17  H    0.101114
    18  H    0.104016
    19  H    0.100843
 Sum of Mulliken charges =   0.00000

 Dipole moment (field-independent basis, Debye):
    X=              0.5162    Y=             -0.2243    Z=              0.4612  Tot=              0.7277
 Quadrupole moment (field-independent basis, Debye-Ang):
   XX=            -47.5647   YY=            -53.6317   ZZ=            -55.1233
   XY=              4.3871   XZ=              2.6312   YZ=             -1.5142

  Exact polarizability:  83.886   3.688  70.734   3.514  -1.491  67.858
 Approx polarizability: 112.084   5.070 105.912   2.320   0.360 106.511

                      1                      2                      3
                      A                      A                      A
 Frequencies --    155.2868               203.2398               298.7878
 Red. masses --      3.5041                 3.3217                 1.1624
 Frc consts  --      0.0498                 0.0808                 0.0611
 IR Inten    --      2.2228                 6.0922                65.5157

                      4                      5                      6
                      A                      A                      A
 Frequencies --    312.6097               360.7129               373.4687
 Red. masses --      2.6294                 2.7838                 3.8611
 Frc consts  --      0.1514                 0.2134                 0.3173
 IR Inten    --      5.2723                 8.3245                 3.6246

                      7                      8                      9
                      A                      A                      A
 Frequencies --    392.9976               439.9700               528.0487
 Red. masses --      3.3641                 2.6669                 3.0074
 Frc consts  --      0.3061                 0.3042                 0.4941
 IR Inten    --     21.5426                 5.9778                 2.2115

                     10                     11                     12
                      A                      A                      A
 Frequencies --    549.4944               673.9878               723.6203
 Red. masses --      3.6265                 3.5508                 2.0403
 Frc consts  --      0.6452                 0.9503                 0.6295
 IR Inten    --      2.2320                 0.5362                 5.1271

                     13                     14                     15
                      A                      A                      A
 Frequencies --    748.5959               785.6917               823.6800
 Red. masses --      3.2179                 2.1891                 1.4569
 Frc consts  --      1.0625                 0.7962                 0.5824
 IR Inten    --     12.4764                10.7593                 6.2445

                     16                     17                     18
                      A                      A                      A
 Frequencies --    890.5904               924.8026               935.1109
 Red. masses --      2.1994                 1.9717                 1.6235
 Frc consts  --      1.0278                 0.9936                 0.8364
 IR Inten    --     17.3167                 2.9382                 7.6161

                     19                     20                     21
                      A                      A                      A
 Frequencies --    973.7047              1001.9351              1035.1674
 Red. masses --      2.9409                 1.9617                 2.0272
 Frc consts  --      1.6428                 1.1603                 1.2799
 IR Inten    --      9.4731                20.7715                14.4126

                     22                     23                     24
                      A                      A                      A
 Frequencies --   1045.8835              1054.1684              1071.3525
 Red. masses --      1.5038                 1.6095                 1.9021
 Frc consts  --      0.9692                 1.0538                 1.2863
 IR Inten    --     13.0291                 8.4813                29.7217

                     25                     26                     27
                      A                      A                      A
 Frequencies --   1095.7466              1114.2844              1130.2581
 Red. masses --      1.7194                 1.5166                 1.3362
 Frc consts  --      1.2163                 1.1095                 1.0057
 IR Inten    --      1.3189                 8.3531                 1.8070

                     28                     29                     30
                      A                      A                      A
 Frequencies --   1148.6096              1184.7171              1220.7101
 Red. masses --      1.6406                 2.0733                 1.7926
 Frc consts  --      1.2752                 1.7146                 1.5739
 IR Inten    --      0.8412                72.4125                58.5633

                     31                     32                     33
                      A                      A                      A
 Frequencies --   1236.8153              1279.0826              1303.2998
 Red. masses --      2.0743                 1.4104                 1.7645
 Frc consts  --      1.8695                 1.3596                 1.7658
 IR Inten    --     57.8185                 5.9877                15.9336

                     34                     35                     36
                      A                      A                      A
 Frequencies --   1337.8123              1369.3200              1386.7415
 Red. masses --      1.3117                 1.5610                 2.0516
 Frc consts  --      1.3832                 1.7244                 2.3245
 IR Inten    --     14.2503                 9.4008                 5.1548

                     37                     38                     39
                      A                      A                      A
 Frequencies --   1411.5591              1426.7403              1480.5676
 Red. masses --      1.4435                 1.4129                 1.5397
 Frc consts  --      1.6946                 1.6945                 1.9885
 IR Inten    --      0.5872                10.8411                13.1115

                     40                     41                     42
                      A                      A                      A
 Frequencies --   1491.1939              1511.0080              2991.0783
 Red. masses --      1.5852                 1.1322                 1.0654
 Frc consts  --      2.0768                 1.5230                 5.6157
 IR Inten    --     15.9051                 0.0243                53.4743

                     43                     44                     45
                      A                      A                      A
 Frequencies --   3052.8442              3132.2837              3134.9322
 Red. masses --      1.0966                 1.0534                 1.0806
 Frc consts  --      6.0218                 6.0895                 6.2573
 IR Inten    --     39.2154                 8.3324                17.3225

                     46                     47                     48
                      A                      A                      A
 Frequencies --   3138.9353              3150.4325              3174.1639
 Red. masses --      1.0613                 1.0889                 1.0913
 Frc consts  --      6.1610                 6.3677                 6.4781
 IR Inten    --      9.3625                14.4078                18.8547

                     49                     50                     51
                      A                      A                      A
 Frequencies --   3225.5130              3226.3232              3788.7621
 Red. masses --      1.1152                 1.1176                 1.0661
 Frc consts  --      6.8363                 6.8540                 9.0165
 IR Inten    --      9.6861                 7.1379                16.6588

 - Thermochemistry -
 -------------------
 Temperature   298.150 Kelvin.  Pressure   1.00000 Atm.
 Atom     1 has atomic number  8 and mass  15.99491

 Molecular mass:   126.06808 amu.
 Principal axes and moments of inertia in atomic units:
                           1         2         3
     Eigenvalues --   633.064721144.122401308.68646
           X            0.99927   0.02726   0.02689
           Y           -0.02579   0.99824  -0.05348
           Z           -0.02830   0.05274   0.99821
 This molecule is an asymmetric top.
 Rotational symmetry number  1.
 Warning -- assumption of classical behavior for rotation
           may cause significant error
 Rotational temperatures (Kelvin)      0.13682     0.07570     0.06618
 Rotational constants (GHZ):           2.85080     1.57740     1.37905
 Zero-point vibrational energy     421364.5 (Joules/Mol)
                                  100.70853 (Kcal/Mol)
 Warning -- explicit consideration of  10 degrees of freedom as
           vibrations may cause significant error
 Vibrational temperatures:    223.42   292.42   429.89   449.78   518.98
          (Kelvin)            537.34   565.44   633.02   759.74   790.60
                              969.72  1041.13  1077.06  1130.43  1185.09
                             1281.36  1330.58  1345.41  1400.94  1441.56
                             1489.37  1504.79  1516.71  1541.44  1576.53
                             1603.20  1626.19  1652.59  1704.54  1756.33
                             1779.50  1840.31  1875.16  1924.81  1970.14
                             1995.21  2030.92  2052.76  2130.20  2145.49
                             2174.00  4303.49  4392.36  4506.65  4510.46
                             4516.22  4532.76  4566.91  4640.79  4641.95
                             5451.18

 Zero-point correction=                           0.160489 (Hartree/Particle)
 Thermal correction to Energy=                    0.168050
 Thermal correction to Enthalpy=                  0.168995
 Thermal correction to Gibbs Free Energy=         0.129047
 Sum of electronic and zero-point Energies=           -422.994128
 Sum of electronic and thermal Energies=              -422.986567
 Sum of electronic and thermal Enthalpies=            -422.985623
 Sum of electronic and thermal Free Energies=         -423.025570

                     E (Thermal)             CV                S
                      KCal/Mol        Cal/Mol-Kelvin    Cal/Mol-Kelvin
 Total                  105.453             31.229             84.076
 Electronic               0.000              0.000              0.000
 Translational            0.889              2.981             40.409
 Rotational               0.889              2.981             28.340
 Vibrational            103.676             25.267             15.327
 Vibration     1          0.620              1.897              2.606
 Vibration     2          0.639              1.835              2.104
 Vibration     3          0.692              1.676              1.424
 Vibration     4          0.701              1.650              1.348
 Vibration     5          0.735              1.553              1.119
 Vibration     6          0.745              1.527              1.066
 Vibration     7          0.760              1.485              0.989
 Vibration     8          0.800              1.383              0.827
 Vibration     9          0.883              1.188              0.592
 Vibration    10          0.905              1.141              0.545

 Optimization completed.
    -- Stationary point found.
 Normal termination of Gaussian 09 at Mon Jan 27 18:18:15 2020.
