 Gaussian 09, Revision D.01,
 Gaussian 09:  ES64L-G09RevD.01 24-Apr-2013

 -----------------------------
 # b3lyp 6-31G(2df,p) opt Freq
 -----------------------------

 -----
 titel
 -----
 Symbolic Z-matrix:
 Charge =  0 Multiplicity = 1

 SCF Done:  E(RB3LYP) =  -423.155333190     A.U. after   12 cycles
 Optimization completed.
    -- Stationary point found.
 Normal termination of Gaussian 09 at Mon Jan 27 18:07:18 2020.

 ----------------------------------------------------------------------
 #N Geom=AllCheck Guess=TCheck SCRF=Check GenChk RB3LYP/6-31G(2df,p) Fr
 eq
 ----------------------------------------------------------------------

 Structure from the checkpoint file:  "/scratch/puck/g09_1ee64cf3-6d9a-46dd-bd13-19b9f1e821f5/Gau-168551.chk"
 -----
 titel
 -----
 Charge =  0 Multiplicity = 1

                         Standard orientation:
 ---------------------------------------------------------------------
 Center     Atomic      Atomic             Coordinates (Angstroms)
 Number     Number       Type             X           Y           Z
 ---------------------------------------------------------------------
      1          8           0       -0.941285   -0.940121    1.613686
      2          6           0       -0.621362   -0.566264    0.317993
      3          6           0       -1.537293   -0.404064   -0.919705
      4          6           0       -0.130503    0.075830   -1.364289
      5          6           0        0.524173   -1.114928   -0.594323
      6          6           0        1.871833   -0.676554   -0.012909
      7          6           0        1.513930    0.767491    0.424928
      8          6           0        0.042627    0.810421   -0.002941
      9          8           0       -0.663143    2.000610    0.174214
     10          1           0       -1.342572   -1.815527    1.594581
     11          1           0       -1.906396   -1.322824   -1.385226
     12          1           0       -2.310212    0.362847   -0.856219
     13          1           0        0.163606    0.451957   -2.342031
     14          1           0        0.424747   -2.115612   -1.018160
     15          1           0        2.173558   -1.308102    0.828170
     16          1           0        2.675087   -0.706801   -0.755085
     17          1           0        1.623238    0.924894    1.503337
     18          1           0        2.099888    1.536625   -0.086405
     19          1           0       -0.745950    2.157038    1.121310
 ---------------------------------------------------------------------

 SCF Done:  E(RB3LYP) =  -423.155333190     A.U. after    1 cycles

 The electronic state is 1-A.
 Alpha  occ. eigenvalues --  -19.14721 -19.13834 -10.23577 -10.23206 -10.19208
 Alpha  occ. eigenvalues --  -10.18624 -10.17756 -10.17678 -10.17380  -1.03702
 Alpha  occ. eigenvalues --   -1.02058  -0.90967  -0.77004  -0.67930  -0.63664
 Alpha  occ. eigenvalues --   -0.62371  -0.57782  -0.53748  -0.52847  -0.48343
 Alpha  occ. eigenvalues --   -0.45289  -0.43890  -0.42390  -0.41215  -0.37794
 Alpha  occ. eigenvalues --   -0.36613  -0.34805  -0.33886  -0.33601  -0.31355
 Alpha  occ. eigenvalues --   -0.31137  -0.28445  -0.26228  -0.24786
 Alpha virt. eigenvalues --    0.06975   0.09306   0.10901   0.12798   0.13180
 Alpha virt. eigenvalues --    0.14894   0.15756   0.16967   0.17647   0.17724
 Alpha virt. eigenvalues --    0.18074   0.19222   0.21225   0.21661   0.23273

 Mulliken charges:
               1
     1  O   -0.487957
     2  C    0.329281
     3  C   -0.318280
     4  C   -0.106035
     5  C   -0.080698
     6  C   -0.245481
     7  C   -0.303345
     8  C    0.415281
     9  O   -0.495621
    10  H    0.283202
    11  H    0.080169
    12  H    0.108686
    13  H    0.078126
    14  H    0.060007
    15  H    0.101397
    16  H    0.097436
    17  H    0.096528
    18  H    0.101785
    19  H    0.285518
 Sum of Mulliken charges =   0.00000

 Dipole moment (field-independent basis, Debye):
    X=              0.1517    Y=             -1.5039    Z=              0.3472  Tot=              1.5509
 Quadrupole moment (field-independent basis, Debye-Ang):
   XX=            -52.6317   YY=            -50.9509   ZZ=            -52.7111
   XY=              2.8181   XZ=             -1.3904   YZ=              1.6904

  Exact polarizability:  78.297   1.165  73.618   1.657   1.783  71.130
 Approx polarizability: 107.602   0.511 109.737  -0.671   0.675 110.669

                      1                      2                      3
                      A                      A                      A
 Frequencies --    181.1191               207.3382               217.0520
 Red. masses --      2.0068                 1.7882                 1.9750
 Frc consts  --      0.0388                 0.0453                 0.0548
 IR Inten    --     35.4820                 4.8266                14.0765

                      4                      5                      6
                      A                      A                      A
 Frequencies --    259.4709               285.9526               343.1680
 Red. masses --      1.5325                 1.5227                 4.0447
 Frc consts  --      0.0608                 0.0734                 0.2806
 IR Inten    --     73.5298                53.4791                23.0384

                      7                      8                      9
                      A                      A                      A
 Frequencies --    429.5847               440.7222               496.9295
 Red. masses --      2.7837                 2.7177                 3.0147
 Frc consts  --      0.3027                 0.3110                 0.4386
 IR Inten    --      1.2660                 4.4115                 9.0697

                     10                     11                     12
                      A                      A                      A
 Frequencies --    650.1767               666.6565               693.9478
 Red. masses --      4.7876                 3.9881                 4.5276
 Frc consts  --      1.1924                 1.0443                 1.2846
 IR Inten    --      3.7876                10.1367                 0.0937

                     13                     14                     15
                      A                      A                      A
 Frequencies --    718.2163               751.6395               836.1365
 Red. masses --      3.3180                 3.6410                 1.3395
 Frc consts  --      1.0084                 1.2120                 0.5517
 IR Inten    --      2.8761                 5.9414                 4.0646

                     16                     17                     18
                      A                      A                      A
 Frequencies --    863.5770               905.2378               945.8730
 Red. masses --      2.5401                 2.7499                 2.3228
 Frc consts  --      1.1161                 1.3277                 1.2244
 IR Inten    --      1.3357                 3.3179                 0.6401

                     19                     20                     21
                      A                      A                      A
 Frequencies --    961.2927               990.5874               996.2505
 Red. masses --      1.8388                 2.1298                 1.5588
 Frc consts  --      1.0011                 1.2314                 0.9115
 IR Inten    --      2.1657                 4.4521                 3.8114

                     22                     23                     24
                      A                      A                      A
 Frequencies --   1037.0448              1044.9518              1088.5498
 Red. masses --      1.4797                 1.5727                 1.5197
 Frc consts  --      0.9376                 1.0118                 1.0610
 IR Inten    --      6.8203                 4.3019                46.6202

                     25                     26                     27
                      A                      A                      A
 Frequencies --   1097.7248              1120.4742              1158.2308
 Red. masses --      1.5604                 1.8195                 1.5824
 Frc consts  --      1.1078                 1.3458                 1.2507
 IR Inten    --     17.6550                31.6304                 8.1751

                     28                     29                     30
                      A                      A                      A
 Frequencies --   1197.2344              1199.9869              1213.3672
 Red. masses --      2.1920                 1.6015                 1.7029
 Frc consts  --      1.8512                 1.3587                 1.4772
 IR Inten    --      7.0574                 9.7242                40.8135

                     31                     32                     33
                      A                      A                      A
 Frequencies --   1224.6056              1249.8536              1273.8899
 Red. masses --      1.7071                 1.2423                 2.4180
 Frc consts  --      1.5084                 1.1434                 2.3119
 IR Inten    --     29.9619                 1.7076                78.9468

                     34                     35                     36
                      A                      A                      A
 Frequencies --   1288.8437              1310.2596              1332.5759
 Red. masses --      2.6348                 1.7985                 1.6429
 Frc consts  --      2.5787                 1.8192                 1.7189
 IR Inten    --    140.4506                29.8223                29.2234

                     37                     38                     39
                      A                      A                      A
 Frequencies --   1355.2035              1408.3397              1484.9521
 Red. masses --      1.8421                 2.1042                 1.0818
 Frc consts  --      1.9933                 2.4590                 1.4055
 IR Inten    --     31.8899                 8.7095                 0.1009

                     40                     41                     42
                      A                      A                      A
 Frequencies --   1505.0040              1514.1136              3043.3922
 Red. masses --      1.1261                 1.2090                 1.0592
 Frc consts  --      1.5029                 1.6331                 5.7801
 IR Inten    --      2.9248                 9.7051                34.6668

                     43                     44                     45
                      A                      A                      A
 Frequencies --   3053.8049              3055.6042              3081.2127
 Red. masses --      1.0607                 1.0585                 1.1050
 Frc consts  --      5.8279                 5.8228                 6.1810
 IR Inten    --     63.3103                32.3801                 1.0420

                     46                     47                     48
                      A                      A                      A
 Frequencies --   3099.9151              3103.4751              3134.6283
 Red. masses --      1.1050                 1.0878                 1.1055
 Frc consts  --      6.2565                 6.1731                 6.4001
 IR Inten    --     40.9153                41.7552                24.3418

                     49                     50                     51
                      A                      A                      A
 Frequencies --   3139.7276              3804.5065              3807.5693
 Red. masses --      1.0938                 1.0658                 1.0659
 Frc consts  --      6.3528                 9.0892                 9.1042
 IR Inten    --     28.1373                27.4230                27.2581

 - Thermochemistry -
 -------------------
 Temperature   298.150 Kelvin.  Pressure   1.00000 Atm.
 Atom     1 has atomic number  8 and mass  15.99491

 Molecular mass:   126.06808 amu.
 Principal axes and moments of inertia in atomic units:
                           1         2         3
     Eigenvalues --   850.12890 916.597631063.13006
           X            0.99586   0.07661   0.04897
           Y           -0.07998   0.99426   0.07106
           Z           -0.04324  -0.07468   0.99627
 This molecule is an asymmetric top.
 Rotational symmetry number  1.
 Warning -- assumption of classical behavior for rotation
           may cause significant error
 Rotational temperatures (Kelvin)      0.10188     0.09449     0.08147
 Rotational constants (GHZ):           2.12290     1.96896     1.69757
 Zero-point vibrational energy     420307.8 (Joules/Mol)
                                  100.45597 (Kcal/Mol)
 Warning -- explicit consideration of   9 degrees of freedom as
           vibrations may cause significant error
 Vibrational temperatures:    260.59   298.31   312.29   373.32   411.42
          (Kelvin)            493.74   618.08   634.10   714.97   935.46
                              959.17   998.43  1033.35  1081.44  1203.01
                             1242.49  1302.43  1360.90  1383.08  1425.23
                             1433.38  1492.07  1503.45  1566.18  1579.38
                             1612.11  1666.43  1722.55  1726.51  1745.76
                             1761.93  1798.26  1832.84  1854.36  1885.17
                             1917.28  1949.83  2026.28  2136.51  2165.36
                             2178.47  4378.76  4393.74  4396.33  4433.17
                             4460.08  4465.20  4510.03  4517.36  5473.83
                             5478.24

 Zero-point correction=                           0.160087 (Hartree/Particle)
 Thermal correction to Energy=                    0.167888
 Thermal correction to Enthalpy=                  0.168832
 Thermal correction to Gibbs Free Energy=         0.128480
 Sum of electronic and zero-point Energies=           -422.995246
 Sum of electronic and thermal Energies=              -422.987446
 Sum of electronic and thermal Enthalpies=            -422.986501
 Sum of electronic and thermal Free Energies=         -423.026853

                     E (Thermal)             CV                S
                      KCal/Mol        Cal/Mol-Kelvin    Cal/Mol-Kelvin
 Total                  105.351             31.762             84.927
 Electronic               0.000              0.000              0.000
 Translational            0.889              2.981             40.409
 Rotational               0.889              2.981             28.207
 Vibrational            103.574             25.800             16.312
 Vibration     1          0.630              1.865              2.317
 Vibration     2          0.641              1.829              2.067
 Vibration     3          0.646              1.815              1.984
 Vibration     4          0.668              1.747              1.665
 Vibration     5          0.684              1.700              1.498
 Vibration     6          0.722              1.589              1.197
 Vibration     7          0.791              1.406              0.860
 Vibration     8          0.801              1.381              0.824
 Vibration     9          0.852              1.257              0.666

 Normal termination of Gaussian 09 at Mon Jan 27 18:57:06 2020.
