 Gaussian 09, Revision D.01,
 Gaussian 09:  ES64L-G09RevD.01 24-Apr-2013

 -----------------------------
 # b3lyp 6-31G(2df,p) opt Freq
 -----------------------------

 -----
 titel
 -----
 Symbolic Z-matrix:
 Charge =  0 Multiplicity = 1

 SCF Done:  E(RB3LYP) =  -423.128609659     A.U. after   14 cycles
 Optimization completed.
    -- Stationary point found.
 Normal termination of Gaussian 09 at Mon Jan 27 22:02:23 2020.

 ----------------------------------------------------------------------
 #N Geom=AllCheck Guess=TCheck SCRF=Check GenChk RB3LYP/6-31G(2df,p) Fr
 eq
 ----------------------------------------------------------------------

 Structure from the checkpoint file:  "/scratch/puck/g09_1930644c-bce6-46fb-90a6-75de2162202e/Gau-98628.chk"
 -----
 titel
 -----
 Charge =  0 Multiplicity = 1

                         Standard orientation:
 ---------------------------------------------------------------------
 Center     Atomic      Atomic             Coordinates (Angstroms)
 Number     Number       Type             X           Y           Z
 ---------------------------------------------------------------------
      1          6           0        1.963835    1.497399    0.348621
      2          6           0        0.845710    0.609098   -0.109562
      3          6           0       -0.452171    1.100101   -0.780128
      4          6           0       -1.222901    0.051670    0.045986
      5          6           0       -2.563859    0.147156    0.617392
      6          8           0       -2.275387   -0.765643   -0.452221
      7          6           0        0.041772   -0.468710    0.666830
      8          6           0        1.021704   -0.842484   -0.429896
      9          8           0        2.240788   -1.380247   -0.006885
     10          1           0        2.727787    0.916808    0.869732
     11          1           0        2.442621    1.990596   -0.506031
     12          1           0        1.598839    2.281014    1.021756
     13          1           0       -0.713284    2.127974   -0.513260
     14          1           0       -0.507650    0.985661   -1.867708
     15          1           0       -2.779850   -0.316296    1.580043
     16          1           0       -3.205216    0.988987    0.356361
     17          1           0        0.176946   -0.840506    1.676361
     18          1           0        0.649500   -1.245428   -1.375006
     19          1           0        2.082559   -2.287076    0.275144
 ---------------------------------------------------------------------

 SCF Done:  E(RB3LYP) =  -423.128609659     A.U. after    1 cycles

 The electronic state is 1-A.
 Alpha  occ. eigenvalues --  -19.14826 -19.14391 -10.24180 -10.23707 -10.22939
 Alpha  occ. eigenvalues --  -10.20223 -10.18880 -10.18717 -10.17657  -1.06504
 Alpha  occ. eigenvalues --   -1.03405  -0.89109  -0.72469  -0.71319  -0.66141
 Alpha  occ. eigenvalues --   -0.62710  -0.56835  -0.52773  -0.52120  -0.49166
 Alpha  occ. eigenvalues --   -0.48020  -0.45713  -0.43014  -0.40870  -0.40336
 Alpha  occ. eigenvalues --   -0.39647  -0.37877  -0.34970  -0.33245  -0.32025
 Alpha  occ. eigenvalues --   -0.30781  -0.26533  -0.25666  -0.24669
 Alpha virt. eigenvalues --    0.07262   0.08801   0.10160   0.11566   0.11871
 Alpha virt. eigenvalues --    0.13587   0.14059   0.14585   0.15680   0.15938
 Alpha virt. eigenvalues --    0.16489   0.18270   0.19805   0.21438   0.22586

 Mulliken charges:
               1
     1  C   -0.497247
     2  C    0.326347
     3  C   -0.399530
     4  C    0.472239
     5  C   -0.272966
     6  O   -0.279002
     7  C   -0.257935
     8  C    0.054819
     9  O   -0.435102
    10  H    0.140492
    11  H    0.120908
    12  H    0.113620
    13  H    0.110540
    14  H    0.108920
    15  H    0.112545
    16  H    0.112411
    17  H    0.087516
    18  H    0.090727
    19  H    0.290699
 Sum of Mulliken charges =   0.00000

 Dipole moment (field-independent basis, Debye):
    X=              0.1373    Y=              0.4926    Z=              1.2550  Tot=              1.3552
 Quadrupole moment (field-independent basis, Debye-Ang):
   XX=            -58.0774   YY=            -48.7967   ZZ=            -51.9534
   XY=             -4.4045   XZ=             -2.2007   YZ=             -2.0829

  Exact polarizability:  89.422  -1.287  74.460  -3.146  -2.752  66.025
 Approx polarizability: 117.343  -0.592 109.982  -4.376  -2.183 102.736

                      1                      2                      3
                      A                      A                      A
 Frequencies --     97.1907               195.3317               204.3568
 Red. masses --      3.8857                 1.1459                 2.7518
 Frc consts  --      0.0216                 0.0258                 0.0677
 IR Inten    --      2.3810                 0.4190                 3.0463

                      4                      5                      6
                      A                      A                      A
 Frequencies --    234.8243               261.2752               312.3005
 Red. masses --      2.8116                 2.8103                 1.2652
 Frc consts  --      0.0913                 0.1130                 0.0727
 IR Inten    --      9.9342                 0.4212                96.9956

                      7                      8                      9
                      A                      A                      A
 Frequencies --    326.9701               356.5225               421.1242
 Red. masses --      2.5199                 2.3675                 2.7377
 Frc consts  --      0.1587                 0.1773                 0.2861
 IR Inten    --      4.6086                 4.0881                 2.5689

                     10                     11                     12
                      A                      A                      A
 Frequencies --    452.9411               488.7154               579.5783
 Red. masses --      4.6490                 3.0483                 4.7149
 Frc consts  --      0.5619                 0.4290                 0.9331
 IR Inten    --      1.7256                 1.0483                19.2213

                     13                     14                     15
                      A                      A                      A
 Frequencies --    690.6160               793.8630               817.1508
 Red. masses --      3.1796                 3.1961                 3.8431
 Frc consts  --      0.8935                 1.1867                 1.5120
 IR Inten    --      2.0609                 4.5293                13.5000

                     16                     17                     18
                      A                      A                      A
 Frequencies --    836.8297               905.0041               922.2625
 Red. masses --      2.9368                 1.4544                 1.6723
 Frc consts  --      1.2117                 0.7019                 0.8381
 IR Inten    --     31.6741                 3.7208                14.6768

                     19                     20                     21
                      A                      A                      A
 Frequencies --    949.3739               972.1156               998.9546
 Red. masses --      1.8703                 2.1384                 2.1014
 Frc consts  --      0.9932                 1.1907                 1.2356
 IR Inten    --     14.5021                16.7333                 7.6731

                     22                     23                     24
                      A                      A                      A
 Frequencies --   1046.8992              1078.9340              1106.4136
 Red. masses --      2.3854                 1.2229                 1.7690
 Frc consts  --      1.5404                 0.8387                 1.2759
 IR Inten    --      4.7320                 4.0114                25.5093

                     25                     26                     27
                      A                      A                      A
 Frequencies --   1123.2060              1131.8019              1148.3147
 Red. masses --      1.3615                 1.9451                 1.8813
 Frc consts  --      1.0120                 1.4680                 1.4616
 IR Inten    --      3.0217                 1.3883                37.0850

                     28                     29                     30
                      A                      A                      A
 Frequencies --   1164.5833              1183.3940              1218.7910
 Red. masses --      1.5941                 1.7827                 1.7397
 Frc consts  --      1.2738                 1.4709                 1.5226
 IR Inten    --     21.3658                 2.8855                14.2971

                     31                     32                     33
                      A                      A                      A
 Frequencies --   1237.7848              1260.1621              1289.0231
 Red. masses --      2.0329                 2.0012                 1.5067
 Frc consts  --      1.8351                 1.8724                 1.4750
 IR Inten    --     25.1670                 2.8626                65.0036

                     34                     35                     36
                      A                      A                      A
 Frequencies --   1362.2190              1416.8056              1435.9776
 Red. masses --      1.5488                 1.3808                 2.0751
 Frc consts  --      1.6933                 1.6330                 2.5210
 IR Inten    --      5.0914                 3.6520                25.9994

                     37                     38                     39
                      A                      A                      A
 Frequencies --   1461.8663              1483.7541              1491.6079
 Red. masses --      2.2177                 1.1828                 1.0493
 Frc consts  --      2.7924                 1.5342                 1.3755
 IR Inten    --     11.5777                 1.7848                 4.1698

                     40                     41                     42
                      A                      A                      A
 Frequencies --   1499.9279              1539.7765              3026.8781
 Red. masses --      1.1317                 1.6799                 1.0389
 Frc consts  --      1.5001                 2.3467                 5.6082
 IR Inten    --      8.1063                13.2294                35.8805

                     43                     44                     45
                      A                      A                      A
 Frequencies --   3045.1897              3064.2193              3072.2327
 Red. masses --      1.0587                 1.0877                 1.0504
 Frc consts  --      5.7841                 6.0171                 5.8416
 IR Inten    --     31.1275                33.3238                30.4193

                     46                     47                     48
                      A                      A                      A
 Frequencies --   3081.1387              3100.1403              3130.3446
 Red. masses --      1.0999                 1.1066                 1.0975
 Frc consts  --      6.1521                 6.2663                 6.3365
 IR Inten    --     23.4887                18.6765                 8.6247

                     49                     50                     51
                      A                      A                      A
 Frequencies --   3156.5994              3177.7152              3810.1192
 Red. masses --      1.1191                 1.0928                 1.0663
 Frc consts  --      6.5696                 6.5018                 9.1205
 IR Inten    --     22.9435                12.3662                27.5257

 - Thermochemistry -
 -------------------
 Temperature   298.150 Kelvin.  Pressure   1.00000 Atm.
 Atom     1 has atomic number  6 and mass  12.00000

 Molecular mass:   126.06808 amu.
 Principal axes and moments of inertia in atomic units:
                           1         2         3
     Eigenvalues --   567.386521454.165281753.00565
           X            0.99998   0.00416  -0.00435
           Y           -0.00423   0.99988  -0.01463
           Z            0.00429   0.01464   0.99988
 This molecule is an asymmetric top.
 Rotational symmetry number  1.
 Warning -- assumption of classical behavior for rotation
           may cause significant error
 Rotational temperatures (Kelvin)      0.15265     0.05956     0.04941
 Rotational constants (GHZ):           3.18080     1.24108     1.02951
 Zero-point vibrational energy     413687.3 (Joules/Mol)
                                   98.87364 (Kcal/Mol)
 Warning -- explicit consideration of  12 degrees of freedom as
           vibrations may cause significant error
 Vibrational temperatures:    139.84   281.04   294.02   337.86   375.92
          (Kelvin)            449.33   470.44   512.96   605.90   651.68
                              703.15   833.88   993.64  1142.19  1175.70
                             1204.01  1302.10  1326.93  1365.94  1398.66
                             1437.27  1506.25  1552.34  1591.88  1616.04
                             1628.41  1652.17  1675.57  1702.64  1753.57
                             1780.89  1813.09  1854.61  1959.93  2038.46
                             2066.05  2103.30  2134.79  2146.09  2158.06
                             2215.39  4355.00  4381.34  4408.72  4420.25
                             4433.07  4460.40  4503.86  4541.64  4572.02
                             5481.90

 Zero-point correction=                           0.157565 (Hartree/Particle)
 Thermal correction to Energy=                    0.166191
 Thermal correction to Enthalpy=                  0.167135
 Thermal correction to Gibbs Free Energy=         0.124732
 Sum of electronic and zero-point Energies=           -422.971044
 Sum of electronic and thermal Energies=              -422.962419
 Sum of electronic and thermal Enthalpies=            -422.961474
 Sum of electronic and thermal Free Energies=         -423.003877

                     E (Thermal)             CV                S
                      KCal/Mol        Cal/Mol-Kelvin    Cal/Mol-Kelvin
 Total                  104.286             33.493             89.244
 Electronic               0.000              0.000              0.000
 Translational            0.889              2.981             40.409
 Rotational               0.889              2.981             28.760
 Vibrational            102.509             27.531             20.075
 Vibration     1          0.603              1.951              3.510
 Vibration     2          0.636              1.846              2.177
 Vibration     3          0.640              1.834              2.094
 Vibration     4          0.655              1.788              1.842
 Vibration     5          0.669              1.744              1.653
 Vibration     6          0.701              1.650              1.350
 Vibration     7          0.711              1.622              1.275
 Vibration     8          0.732              1.562              1.137
 Vibration     9          0.784              1.424              0.888
 Vibration    10          0.811              1.354              0.787
 Vibration    11          0.845              1.275              0.687
 Vibration    12          0.936              1.075              0.486

 Normal termination of Gaussian 09 at Mon Jan 27 22:51:21 2020.
