 Gaussian 09, Revision D.01,
 Gaussian 09:  ES64L-G09RevD.01 24-Apr-2013

 -----------------------------
 # b3lyp 6-31G(2df,p) opt Freq
 -----------------------------

 -----
 titel
 -----
 Symbolic Z-matrix:
 Charge =  0 Multiplicity = 1

 SCF Done:  E(RB3LYP) =  -423.139247668     A.U. after   13 cycles
 Optimization completed.
    -- Stationary point found.
 Normal termination of Gaussian 09 at Tue Jan 28 13:30:30 2020.

 ----------------------------------------------------------------------
 #N Geom=AllCheck Guess=TCheck SCRF=Check GenChk RB3LYP/6-31G(2df,p) Fr
 eq
 ----------------------------------------------------------------------

 Structure from the checkpoint file:  "/scratch/puck/g09_2518fe73-5eb0-452c-8444-5a70b4882d34/Gau-144850.chk"
 -----
 titel
 -----
 Charge =  0 Multiplicity = 1

                         Standard orientation:
 ---------------------------------------------------------------------
 Center     Atomic      Atomic             Coordinates (Angstroms)
 Number     Number       Type             X           Y           Z
 ---------------------------------------------------------------------
      1          6           0       -3.024094    0.282735   -0.201156
      2          6           0       -1.825411   -0.660655   -0.070012
      3          6           0       -0.625917   -0.007051    0.602591
      4          8           0       -0.203874    1.146734   -0.158526
      5          6           0        1.200228    1.166727   -0.157106
      6          6           0        1.922574   -0.057292   -0.699228
      7          8           0        1.019774   -1.161820   -0.730346
      8          6           0        0.639388   -0.860658    0.652833
      9          6           0        1.790886    0.161413    0.789411
     10          1           0       -3.369321    0.627582    0.780248
     11          1           0       -2.757036    1.163305   -0.790902
     12          1           0       -3.863507   -0.217949   -0.692855
     13          1           0       -2.105407   -1.543002    0.520587
     14          1           0       -1.505012   -1.016929   -1.053429
     15          1           0       -0.891219    0.316284    1.624722
     16          1           0        1.631105    2.152269   -0.287656
     17          1           0        2.770097   -0.065769   -1.375156
     18          1           0        0.607801   -1.752503    1.279710
     19          1           0        2.489378    0.306084    1.601700
 ---------------------------------------------------------------------

 SCF Done:  E(RB3LYP) =  -423.139247668     A.U. after    1 cycles

 The electronic state is 1-A.
 Alpha  occ. eigenvalues --  -19.14104 -19.14100 -10.24485 -10.24123 -10.23851
 Alpha  occ. eigenvalues --  -10.23213 -10.19618 -10.17713 -10.16759  -1.07698
 Alpha  occ. eigenvalues --   -1.01537  -0.83033  -0.78271  -0.72619  -0.64409
 Alpha  occ. eigenvalues --   -0.60959  -0.56952  -0.54829  -0.53871  -0.50066
 Alpha  occ. eigenvalues --   -0.47458  -0.43309  -0.43078  -0.41072  -0.39514
 Alpha  occ. eigenvalues --   -0.38876  -0.36771  -0.35088  -0.33564  -0.33077
 Alpha  occ. eigenvalues --   -0.32157  -0.30094  -0.25523  -0.21736
 Alpha virt. eigenvalues --    0.07020   0.09473   0.11190   0.11912   0.12508
 Alpha virt. eigenvalues --    0.14079   0.14958   0.15343   0.15705   0.16878
 Alpha virt. eigenvalues --    0.17801   0.18267   0.18721   0.21103   0.23704

 Mulliken charges:
               1
     1  C   -0.383848
     2  C   -0.188527
     3  C    0.147207
     4  O   -0.279381
     5  C    0.076247
     6  C    0.060881
     7  O   -0.295283
     8  C    0.036069
     9  C   -0.209921
    10  H    0.108593
    11  H    0.137047
    12  H    0.110000
    13  H    0.089052
    14  H    0.122632
    15  H    0.065618
    16  H    0.108144
    17  H    0.106567
    18  H    0.086858
    19  H    0.102047
 Sum of Mulliken charges =   0.00000

 Dipole moment (field-independent basis, Debye):
    X=              1.0327    Y=              0.1144    Z=              1.5803  Tot=              1.8913
 Quadrupole moment (field-independent basis, Debye-Ang):
   XX=            -49.0588   YY=            -54.7866   ZZ=            -52.2046
   XY=              3.7131   XZ=             -0.1524   YZ=             -2.0939

  Exact polarizability:  87.026   3.262  68.053  -2.473  -1.827  66.838
 Approx polarizability: 108.713   2.842 105.612  -4.387  -1.758 107.148

                      1                      2                      3
                      A                      A                      A
 Frequencies --     97.3686               142.6516               190.6811
 Red. masses --      2.6176                 2.7555                 2.0858
 Frc consts  --      0.0146                 0.0330                 0.0447
 IR Inten    --      0.9930                 1.9586                 1.4741

                      4                      5                      6
                      A                      A                      A
 Frequencies --    244.1022               336.9437               421.6652
 Red. masses --      1.4080                 4.6667                 3.8473
 Frc consts  --      0.0494                 0.3122                 0.4030
 IR Inten    --      1.2016                 3.4225                 1.4963

                      7                      8                      9
                      A                      A                      A
 Frequencies --    497.3100               549.2043               692.4063
 Red. masses --      3.1998                 3.5258                 3.9158
 Frc consts  --      0.4663                 0.6266                 1.1061
 IR Inten    --      2.5610                 4.0616                 1.5492

                     10                     11                     12
                      A                      A                      A
 Frequencies --    735.0196               767.2588               785.3378
 Red. masses --      1.9885                 1.9664                 2.0187
 Frc consts  --      0.6330                 0.6820                 0.7335
 IR Inten    --     12.2381                 3.6511                14.0811

                     13                     14                     15
                      A                      A                      A
 Frequencies --    810.3787               831.7893               851.5238
 Red. masses --      2.8163                 3.2965                 2.2605
 Frc consts  --      1.0897                 1.3438                 0.9657
 IR Inten    --     20.1052                 4.1897                20.6163

                     16                     17                     18
                      A                      A                      A
 Frequencies --    899.6717               914.2284               951.6004
 Red. masses --      2.1988                 1.6345                 2.1329
 Frc consts  --      1.0486                 0.8049                 1.1380
 IR Inten    --      3.4482                 8.2015                26.9202

                     19                     20                     21
                      A                      A                      A
 Frequencies --    997.0622              1013.3677              1024.0632
 Red. masses --      1.9477                 2.1256                 2.6698
 Frc consts  --      1.1408                 1.2861                 1.6496
 IR Inten    --     12.8117                11.0088                16.0194

                     22                     23                     24
                      A                      A                      A
 Frequencies --   1040.2854              1058.5293              1079.4280
 Red. masses --      1.5026                 2.4171                 3.7181
 Frc consts  --      0.9581                 1.5957                 2.5525
 IR Inten    --      1.1680                 2.7839                54.4951

                     25                     26                     27
                      A                      A                      A
 Frequencies --   1101.3019              1111.1627              1131.3945
 Red. masses --      2.0647                 2.4043                 2.6231
 Frc consts  --      1.4754                 1.7491                 1.9783
 IR Inten    --     55.0907                 7.8421                50.5645

                     28                     29                     30
                      A                      A                      A
 Frequencies --   1156.9999              1213.3356              1239.8172
 Red. masses --      2.0184                 1.2968                 2.0599
 Frc consts  --      1.5919                 1.1248                 1.8656
 IR Inten    --      4.5203                 0.7212                 6.9815

                     31                     32                     33
                      A                      A                      A
 Frequencies --   1264.3306              1288.5631              1305.3178
 Red. masses --      1.2820                 1.2307                 1.5382
 Frc consts  --      1.2074                 1.2040                 1.5442
 IR Inten    --      0.3351                 1.2631                 1.0954

                     34                     35                     36
                      A                      A                      A
 Frequencies --   1324.1795              1361.9384              1400.2995
 Red. masses --      1.3711                 1.4256                 2.0616
 Frc consts  --      1.4165                 1.5580                 2.3817
 IR Inten    --     12.6812                 8.3665                10.7423

                     37                     38                     39
                      A                      A                      A
 Frequencies --   1405.7596              1410.5810              1481.7609
 Red. masses --      1.6719                 1.3287                 1.0739
 Frc consts  --      1.9466                 1.5576                 1.3892
 IR Inten    --      4.0348                 0.5339                 1.1109

                     40                     41                     42
                      A                      A                      A
 Frequencies --   1497.8371              1509.5485              2949.7071
 Red. masses --      1.0429                 1.0614                 1.0823
 Frc consts  --      1.3786                 1.4250                 5.5484
 IR Inten    --      4.4820                 4.6305                57.3780

                     43                     44                     45
                      A                      A                      A
 Frequencies --   3026.4200              3035.4369              3086.7093
 Red. masses --      1.0664                 1.0379                 1.0947
 Frc consts  --      5.7548                 5.6345                 6.1451
 IR Inten    --     24.6208                29.7210                 4.4818

                     46                     47                     48
                      A                      A                      A
 Frequencies --   3105.0087              3113.0061              3124.5090
 Red. masses --      1.0988                 1.0908                 1.1012
 Frc consts  --      6.2415                 6.2284                 6.3340
 IR Inten    --     36.5351                28.9059                27.0175

                     49                     50                     51
                      A                      A                      A
 Frequencies --   3178.1250              3190.9373              3208.4794
 Red. masses --      1.0912                 1.0909                 1.1006
 Frc consts  --      6.4935                 6.5447                 6.6753
 IR Inten    --     18.0187                17.4544                13.1930

 - Thermochemistry -
 -------------------
 Temperature   298.150 Kelvin.  Pressure   1.00000 Atm.
 Atom     1 has atomic number  6 and mass  12.00000

 Molecular mass:   126.06808 amu.
 Principal axes and moments of inertia in atomic units:
                           1         2         3
     Eigenvalues --   471.881661355.760781509.84696
           X            0.99991   0.01244   0.00526
           Y           -0.01221   0.99911  -0.04046
           Z           -0.00576   0.04039   0.99917
 This molecule is an asymmetric top.
 Rotational symmetry number  1.
 Warning -- assumption of classical behavior for rotation
           may cause significant error
 Rotational temperatures (Kelvin)      0.18355     0.06389     0.05737
 Rotational constants (GHZ):           3.82456     1.33116     1.19531
 Zero-point vibrational energy     419616.2 (Joules/Mol)
                                  100.29067 (Kcal/Mol)
 Warning -- explicit consideration of   8 degrees of freedom as
           vibrations may cause significant error
 Vibrational temperatures:    140.09   205.24   274.35   351.21   484.79
          (Kelvin)            606.68   715.52   790.18   996.22  1057.53
                             1103.91  1129.92  1165.95  1196.76  1225.15
                             1294.43  1315.37  1369.14  1434.55  1458.01
                             1473.40  1496.74  1522.99  1553.05  1584.53
                             1598.71  1627.82  1664.66  1745.72  1783.82
                             1819.09  1853.95  1878.06  1905.20  1959.52
                             2014.72  2022.57  2029.51  2131.92  2155.05
                             2171.90  4243.97  4354.34  4367.31  4441.08
                             4467.41  4478.92  4495.47  4572.61  4591.04
                             4616.28

 Zero-point correction=                           0.159823 (Hartree/Particle)
 Thermal correction to Energy=                    0.167355
 Thermal correction to Enthalpy=                  0.168299
 Thermal correction to Gibbs Free Energy=         0.127749
 Sum of electronic and zero-point Energies=           -422.979424
 Sum of electronic and thermal Energies=              -422.971893
 Sum of electronic and thermal Enthalpies=            -422.970949
 Sum of electronic and thermal Free Energies=         -423.011499

                     E (Thermal)             CV                S
                      KCal/Mol        Cal/Mol-Kelvin    Cal/Mol-Kelvin
 Total                  105.017             29.801             85.345
 Electronic               0.000              0.000              0.000
 Translational            0.889              2.981             40.409
 Rotational               0.889              2.981             28.359
 Vibrational            103.239             23.840             16.577
 Vibration     1          0.603              1.951              3.506
 Vibration     2          0.616              1.911              2.768
 Vibration     3          0.634              1.853              2.221
 Vibration     4          0.659              1.773              1.773
 Vibration     5          0.718              1.602              1.227
 Vibration     6          0.784              1.423              0.886
 Vibration     7          0.853              1.256              0.665
 Vibration     8          0.904              1.141              0.546

 Optimization completed.
    -- Stationary point found.
 Normal termination of Gaussian 09 at Tue Jan 28 14:13:59 2020.
