 Gaussian 09, Revision D.01,
 Gaussian 09:  ES64L-G09RevD.01 24-Apr-2013

 -----------------------------
 # b3lyp 6-31G(2df,p) opt Freq
 -----------------------------

 -----
 titel
 -----
 Symbolic Z-matrix:
 Charge =  0 Multiplicity = 1

 SCF Done:  E(RB3LYP) =  -423.139968838     A.U. after   13 cycles
 Optimization completed.
    -- Stationary point found.
 Normal termination of Gaussian 09 at Mon Jan 27 17:13:45 2020.

 ----------------------------------------------------------------------
 #N Geom=AllCheck Guess=TCheck SCRF=Check GenChk RB3LYP/6-31G(2df,p) Fr
 eq
 ----------------------------------------------------------------------

 Structure from the checkpoint file:  "/scratch/puck/g09_5b26c19d-8fef-4608-af0e-5d267c3f2e35/Gau-62693.chk"
 -----
 titel
 -----
 Charge =  0 Multiplicity = 1

                         Standard orientation:
 ---------------------------------------------------------------------
 Center     Atomic      Atomic             Coordinates (Angstroms)
 Number     Number       Type             X           Y           Z
 ---------------------------------------------------------------------
      1          6           0       -0.404130    2.212567   -0.089957
      2          6           0       -0.485746    0.713928    0.052226
      3          6           0       -0.882913   -0.037134    1.372900
      4          6           0       -0.255714   -1.240689    0.620723
      5          8           0       -1.149490   -1.435851   -0.485463
      6          6           0       -1.338497   -0.080380   -0.957348
      7          6           0        0.745004   -0.221257    0.073435
      8          6           0        2.148596    0.039291    0.352832
      9          8           0        1.693028   -0.399483   -0.947047
     10          1           0       -1.396810    2.672289   -0.032508
     11          1           0        0.213654    2.653705    0.698715
     12          1           0        0.035078    2.487030   -1.055563
     13          1           0       -0.307752    0.295016    2.239251
     14          1           0       -1.946235   -0.120556    1.605887
     15          1           0        0.003674   -2.195149    1.073334
     16          1           0       -0.969011    0.014597   -1.985205
     17          1           0       -2.402170    0.183846   -0.926363
     18          1           0        2.518829    1.062901    0.390586
     19          1           0        2.742831   -0.688954    0.903085
 ---------------------------------------------------------------------

 SCF Done:  E(RB3LYP) =  -423.139968838     A.U. after    1 cycles

 The electronic state is 1-A.
 Alpha  occ. eigenvalues --  -19.15419 -19.13427 -10.24098 -10.23887 -10.23715
 Alpha  occ. eigenvalues --  -10.22483 -10.20673 -10.19012 -10.18621  -1.07854
 Alpha  occ. eigenvalues --   -1.03680  -0.84037  -0.75001  -0.68991  -0.66839
 Alpha  occ. eigenvalues --   -0.64196  -0.57682  -0.54680  -0.50838  -0.49093
 Alpha  occ. eigenvalues --   -0.47453  -0.46056  -0.42106  -0.41432  -0.40729
 Alpha  occ. eigenvalues --   -0.40019  -0.37241  -0.36359  -0.34489  -0.32494
 Alpha  occ. eigenvalues --   -0.31072  -0.30457  -0.27053  -0.23514
 Alpha virt. eigenvalues --    0.07607   0.08794   0.10760   0.11649   0.12362
 Alpha virt. eigenvalues --    0.13579   0.14306   0.14673   0.15316   0.16114
 Alpha virt. eigenvalues --    0.16983   0.18421   0.19697   0.20494   0.21729

 Mulliken charges:
               1
     1  C   -0.510137
     2  C    0.159398
     3  C   -0.283807
     4  C   -0.014733
     5  O   -0.279551
     6  C   -0.101750
     7  C    0.510662
     8  C   -0.304446
     9  O   -0.295530
    10  H    0.123306
    11  H    0.119989
    12  H    0.131119
    13  H    0.103913
    14  H    0.105585
    15  H    0.087012
    16  H    0.112286
    17  H    0.097355
    18  H    0.118309
    19  H    0.121020
 Sum of Mulliken charges =   0.00000

 Dipole moment (field-independent basis, Debye):
    X=              0.1287    Y=              1.9559    Z=              2.0887  Tot=              2.8644
 Quadrupole moment (field-independent basis, Debye-Ang):
   XX=            -52.4840   YY=            -54.1915   ZZ=            -53.4974
   XY=             -1.6932   XZ=              3.3100   YZ=             -2.9669

  Exact polarizability:  81.888  -0.571  73.208   3.507  -2.800  69.154
 Approx polarizability: 115.019   0.762 104.566   3.421  -0.515 108.620

                      1                      2                      3
                      A                      A                      A
 Frequencies --    163.4732               180.2634               213.0106
 Red. masses --      3.5213                 1.7561                 1.4600
 Frc consts  --      0.0554                 0.0336                 0.0390
 IR Inten    --      1.1802                 0.3976                 0.2375

                      4                      5                      6
                      A                      A                      A
 Frequencies --    250.4002               289.4752               327.8548
 Red. masses --      2.7412                 3.1050                 2.5881
 Frc consts  --      0.1013                 0.1533                 0.1639
 IR Inten    --      4.0492                 1.8351                 1.3878

                      7                      8                      9
                      A                      A                      A
 Frequencies --    420.6804               460.0540               572.3380
 Red. masses --      2.5260                 2.5657                 2.7575
 Frc consts  --      0.2634                 0.3199                 0.5322
 IR Inten    --      0.6091                 2.4936                 2.5122

                     10                     11                     12
                      A                      A                      A
 Frequencies --    605.5681               629.6387               730.9895
 Red. masses --      4.1005                 4.9215                 3.5661
 Frc consts  --      0.8860                 1.1495                 1.1227
 IR Inten    --      1.8748                21.6904                 5.0144

                     13                     14                     15
                      A                      A                      A
 Frequencies --    788.5613               853.9664               887.2444
 Red. masses --      2.4697                 2.5015                 3.6380
 Frc consts  --      0.9048                 1.0748                 1.6873
 IR Inten    --      7.7969                 1.1813                 8.6034

                     16                     17                     18
                      A                      A                      A
 Frequencies --    918.2407               931.9728               943.0380
 Red. masses --      3.4526                 2.4604                 1.6968
 Frc consts  --      1.7152                 1.2591                 0.8891
 IR Inten    --     29.7400                 3.7099                 7.9723

                     19                     20                     21
                      A                      A                      A
 Frequencies --    967.5278               987.0791              1033.1077
 Red. masses --      1.6430                 3.5798                 1.6984
 Frc consts  --      0.9062                 2.0550                 1.0680
 IR Inten    --      3.2040                61.3677                19.9565

                     22                     23                     24
                      A                      A                      A
 Frequencies --   1036.8330              1071.9879              1113.4291
 Red. masses --      2.7907                 1.4108                 1.2838
 Frc consts  --      1.7676                 0.9552                 0.9377
 IR Inten    --     17.4169                 8.0919                 7.4314

                     25                     26                     27
                      A                      A                      A
 Frequencies --   1121.1741              1142.5351              1168.4450
 Red. masses --      1.7906                 1.7683                 1.4967
 Frc consts  --      1.3262                 1.3600                 1.2039
 IR Inten    --      9.8994                 0.5149                 2.6081

                     28                     29                     30
                      A                      A                      A
 Frequencies --   1187.9886              1209.4291              1230.1061
 Red. masses --      1.3466                 1.8636                 2.0038
 Frc consts  --      1.1197                 1.6061                 1.7864
 IR Inten    --      2.0377                 2.5452                 1.4661

                     31                     32                     33
                      A                      A                      A
 Frequencies --   1243.5291              1263.4257              1306.5408
 Red. masses --      1.9257                 1.4630                 2.0225
 Frc consts  --      1.7545                 1.3759                 2.0342
 IR Inten    --      1.1280                 1.2722                15.3808

                     34                     35                     36
                      A                      A                      A
 Frequencies --   1379.0609              1414.3087              1449.3002
 Red. masses --      1.7647                 1.3974                 1.6194
 Frc consts  --      1.9773                 1.6468                 2.0041
 IR Inten    --      1.4901                 2.8116                 7.3036

                     37                     38                     39
                      A                      A                      A
 Frequencies --   1484.1067              1493.2071              1497.2391
 Red. masses --      1.1498                 1.0490                 1.0663
 Frc consts  --      1.4921                 1.3780                 1.4083
 IR Inten    --      2.6673                 6.2620                 8.0600

                     40                     41                     42
                      A                      A                      A
 Frequencies --   1521.7297              1551.8388              3021.7698
 Red. masses --      1.1058                 2.0626                 1.0542
 Frc consts  --      1.5087                 2.9265                 5.6714
 IR Inten    --      0.1891                14.4129                49.7825

                     43                     44                     45
                      A                      A                      A
 Frequencies --   3029.7451              3066.7451              3073.2271
 Red. masses --      1.0365                 1.1100                 1.0565
 Frc consts  --      5.6057                 6.1510                 5.8792
 IR Inten    --     32.8909                23.6214                24.5001

                     46                     47                     48
                      A                      A                      A
 Frequencies --   3082.5330              3094.5504              3099.7310
 Red. masses --      1.0508                 1.1007                 1.1010
 Frc consts  --      5.8830                 6.2102                 6.2328
 IR Inten    --     22.8935                19.2050                20.4598

                     49                     50                     51
                      A                      A                      A
 Frequencies --   3140.8063              3153.0175              3168.1262
 Red. masses --      1.1110                 1.0925                 1.1191
 Frc consts  --      6.4570                 6.3992                 6.6177
 IR Inten    --     20.3445                27.6796                21.9257

 - Thermochemistry -
 -------------------
 Temperature   298.150 Kelvin.  Pressure   1.00000 Atm.
 Atom     1 has atomic number  6 and mass  12.00000

 Molecular mass:   126.06808 amu.
 Principal axes and moments of inertia in atomic units:
                           1         2         3
     Eigenvalues --   786.82763 951.147741209.72740
           X            0.99795  -0.05426   0.03380
           Y            0.05568   0.99755  -0.04232
           Z           -0.03142   0.04411   0.99853
 This molecule is an asymmetric top.
 Rotational symmetry number  1.
 Warning -- assumption of classical behavior for rotation
           may cause significant error
 Rotational temperatures (Kelvin)      0.11008     0.09106     0.07160
 Rotational constants (GHZ):           2.29369     1.89744     1.49186
 Zero-point vibrational energy     418519.2 (Joules/Mol)
                                  100.02849 (Kcal/Mol)
 Warning -- explicit consideration of  10 degrees of freedom as
           vibrations may cause significant error
 Vibrational temperatures:    235.20   259.36   306.47   360.27   416.49
          (Kelvin)            471.71   605.26   661.91   823.47   871.28
                              905.91  1051.73  1134.56  1228.67  1276.55
                             1321.14  1340.90  1356.82  1392.05  1420.18
                             1486.41  1491.77  1542.35  1601.97  1613.12
                             1643.85  1681.13  1709.25  1740.10  1769.85
                             1789.16  1817.79  1879.82  1984.16  2034.87
                             2085.22  2135.30  2148.39  2154.19  2189.43
                             2232.75  4347.65  4359.12  4412.36  4421.68
                             4435.07  4452.36  4459.82  4518.91  4536.48
                             4558.22

 Zero-point correction=                           0.159406 (Hartree/Particle)
 Thermal correction to Energy=                    0.167158
 Thermal correction to Enthalpy=                  0.168102
 Thermal correction to Gibbs Free Energy=         0.127632
 Sum of electronic and zero-point Energies=           -422.980563
 Sum of electronic and thermal Energies=              -422.972811
 Sum of electronic and thermal Enthalpies=            -422.971867
 Sum of electronic and thermal Free Energies=         -423.012336

                     E (Thermal)             CV                S
                      KCal/Mol        Cal/Mol-Kelvin    Cal/Mol-Kelvin
 Total                  104.893             30.909             85.175
 Electronic               0.000              0.000              0.000
 Translational            0.889              2.981             40.409
 Rotational               0.889              2.981             28.295
 Vibrational            103.116             24.947             16.472
 Vibration     1          0.623              1.887              2.509
 Vibration     2          0.629              1.866              2.326
 Vibration     3          0.644              1.821              2.018
 Vibration     4          0.663              1.762              1.728
 Vibration     5          0.686              1.693              1.477
 Vibration     6          0.711              1.620              1.271
 Vibration     7          0.783              1.425              0.890
 Vibration     8          0.818              1.339              0.766
 Vibration     9          0.929              1.091              0.500
 Vibration    10          0.964              1.020              0.440

 Optimization completed.
    -- Stationary point found.
 Normal termination of Gaussian 09 at Mon Jan 27 17:57:42 2020.
