 Gaussian 09, Revision D.01,
 Gaussian 09:  ES64L-G09RevD.01 24-Apr-2013

 -----------------------------
 # b3lyp 6-31G(2df,p) opt Freq
 -----------------------------

 -----
 titel
 -----
 Symbolic Z-matrix:
 Charge =  0 Multiplicity = 1

 SCF Done:  E(RB3LYP) =  -423.162353785     A.U. after   14 cycles
 Optimization completed.
    -- Stationary point found.
 Normal termination of Gaussian 09 at Mon Jan 27 12:10:59 2020.

 ----------------------------------------------------------------------
 #N Geom=AllCheck Guess=TCheck SCRF=Check GenChk RB3LYP/6-31G(2df,p) Fr
 eq
 ----------------------------------------------------------------------

 Structure from the checkpoint file:  "/scratch/puck/g09_dee01461-3a4d-48db-8826-1b5ae2e008b4/Gau-52091.chk"
 -----
 titel
 -----
 Charge =  0 Multiplicity = 1

                         Standard orientation:
 ---------------------------------------------------------------------
 Center     Atomic      Atomic             Coordinates (Angstroms)
 Number     Number       Type             X           Y           Z
 ---------------------------------------------------------------------
      1          6           0       -2.578567    0.328414    0.469089
      2          8           0       -2.313882   -0.629136   -0.559164
      3          6           0       -1.453371    0.502704   -0.460563
      4          6           0       -0.042345    0.243141   -0.038891
      5          6           0        1.005510    1.343326   -0.116133
      6          6           0        2.342823    0.603827    0.137447
      7          6           0        2.116794   -0.846092   -0.359450
      8          6           0        0.628208   -1.059039   -0.185163
      9          8           0        0.132986   -0.619738    1.093286
     10          1           0       -3.485179    0.917179    0.337863
     11          1           0       -2.366639   -0.014573    1.478698
     12          1           0       -1.557255    1.223228   -1.273555
     13          1           0        0.977241    1.787918   -1.119075
     14          1           0        0.829352    2.148717    0.603958
     15          1           0        3.187776    1.090257   -0.355214
     16          1           0        2.549634    0.591016    1.209320
     17          1           0        2.364505   -0.952937   -1.423019
     18          1           0        2.718066   -1.576331    0.190893
     19          1           0        0.115344   -1.921171   -0.600874
 ---------------------------------------------------------------------

 SCF Done:  E(RB3LYP) =  -423.162353785     A.U. after    1 cycles

 The electronic state is 1-A.
 Alpha  occ. eigenvalues --  -19.15142 -19.14640 -10.24115 -10.23776 -10.23184
 Alpha  occ. eigenvalues --  -10.22996 -10.18985 -10.18678 -10.18549  -1.08010
 Alpha  occ. eigenvalues --   -1.06041  -0.80905  -0.73862  -0.69212  -0.66348
 Alpha  occ. eigenvalues --   -0.62337  -0.57455  -0.55688  -0.52900  -0.49138
 Alpha  occ. eigenvalues --   -0.47167  -0.45122  -0.43303  -0.41587  -0.39257
 Alpha  occ. eigenvalues --   -0.36756  -0.36565  -0.35865  -0.35081  -0.34347
 Alpha  occ. eigenvalues --   -0.32215  -0.27970  -0.27219  -0.25499
 Alpha virt. eigenvalues --    0.07720   0.09040   0.10743   0.11072   0.12226
 Alpha virt. eigenvalues --    0.13011   0.14080   0.14495   0.16078   0.17232
 Alpha virt. eigenvalues --    0.17313   0.18338   0.19205   0.19453   0.21043

 Mulliken charges:
               1
     1  C   -0.173785
     2  O   -0.233091
     3  C   -0.040641
     4  C    0.416233
     5  C   -0.298057
     6  C   -0.215453
     7  C   -0.246305
     8  C    0.003558
     9  O   -0.304628
    10  H    0.112690
    11  H    0.132765
    12  H    0.089560
    13  H    0.103215
    14  H    0.109069
    15  H    0.099568
    16  H    0.121825
    17  H    0.104400
    18  H    0.110992
    19  H    0.108083
 Sum of Mulliken charges =   0.00000

 Dipole moment (field-independent basis, Debye):
    X=              1.0536    Y=              1.7198    Z=             -0.8035  Tot=              2.1710
 Quadrupole moment (field-independent basis, Debye-Ang):
   XX=            -51.6913   YY=            -52.0709   ZZ=            -54.0199
   XY=             -3.9902   XZ=             -2.7910   YZ=              0.1872

  Exact polarizability:  89.311  -4.084  71.102  -4.114  -0.116  63.724
 Approx polarizability: 110.969  -4.119 108.166  -6.270  -0.280 105.019

                      1                      2                      3
                      A                      A                      A
 Frequencies --     74.3150               161.2541               179.8528
 Red. masses --      3.8270                 2.6060                 4.2550
 Frc consts  --      0.0125                 0.0399                 0.0811
 IR Inten    --      2.5573                 2.8364                 1.2355

                      4                      5                      6
                      A                      A                      A
 Frequencies --    226.6226               310.6813               354.7958
 Red. masses --      1.8625                 2.5282                 4.7253
 Frc consts  --      0.0564                 0.1438                 0.3505
 IR Inten    --      0.7791                 2.1261                 1.5004

                      7                      8                      9
                      A                      A                      A
 Frequencies --    443.2706               506.3190               642.3049
 Red. masses --      3.8654                 3.4941                 2.7104
 Frc consts  --      0.4475                 0.5278                 0.6588
 IR Inten    --     11.1122                 6.2863                12.7578

                     10                     11                     12
                      A                      A                      A
 Frequencies --    658.6068               692.7294               814.9288
 Red. masses --      2.4630                 3.1799                 2.2038
 Frc consts  --      0.6295                 0.8991                 0.8623
 IR Inten    --      2.6739                 5.0053                 2.6234

                     13                     14                     15
                      A                      A                      A
 Frequencies --    849.4388               875.4745               888.4582
 Red. masses --      5.0456                 3.5045                 1.8720
 Frc consts  --      2.1450                 1.5826                 0.8706
 IR Inten    --     11.2520                14.0957                18.5922

                     16                     17                     18
                      A                      A                      A
 Frequencies --    895.9358               909.3029               945.4528
 Red. masses --      2.5860                 2.8798                 2.1824
 Frc consts  --      1.2230                 1.4029                 1.1494
 IR Inten    --      7.9321                17.0023                10.5233

                     19                     20                     21
                      A                      A                      A
 Frequencies --    959.8128              1020.1038              1034.6618
 Red. masses --      2.1535                 1.9046                 1.7545
 Frc consts  --      1.1689                 1.1677                 1.1066
 IR Inten    --     11.1805                10.9206                 0.6452

                     22                     23                     24
                      A                      A                      A
 Frequencies --   1043.9355              1100.2153              1132.6849
 Red. masses --      1.7785                 1.2276                 1.9142
 Frc consts  --      1.1419                 0.8755                 1.4470
 IR Inten    --      5.2609                 2.5456                 0.4521

                     25                     26                     27
                      A                      A                      A
 Frequencies --   1143.7772              1165.3158              1169.2726
 Red. masses --      1.6428                 1.3711                 1.3496
 Frc consts  --      1.2663                 1.0970                 1.0871
 IR Inten    --      5.2026                 1.0399                 0.7285

                     28                     29                     30
                      A                      A                      A
 Frequencies --   1185.6800              1212.0514              1256.0942
 Red. masses --      1.5307                 1.5765                 1.3120
 Frc consts  --      1.2679                 1.3645                 1.2197
 IR Inten    --      4.3848                 2.8863                 0.9886

                     31                     32                     33
                      A                      A                      A
 Frequencies --   1279.6645              1292.4723              1326.3208
 Red. masses --      1.5655                 1.3639                 1.9302
 Frc consts  --      1.5104                 1.3424                 2.0005
 IR Inten    --      6.9214                 3.4197                 7.2157

                     34                     35                     36
                      A                      A                      A
 Frequencies --   1329.5865              1348.6739              1427.5929
 Red. masses --      1.3871                 1.3826                 1.8642
 Frc consts  --      1.4448                 1.4817                 2.2385
 IR Inten    --      2.3023                 0.3023                 4.1672

                     37                     38                     39
                      A                      A                      A
 Frequencies --   1460.3946              1480.1709              1487.1146
 Red. masses --      2.3823                 1.0931                 1.2624
 Frc consts  --      2.9936                 1.4111                 1.6449
 IR Inten    --      6.6979                 1.5751                 1.2736

                     40                     41                     42
                      A                      A                      A
 Frequencies --   1500.6859              1517.4928              3031.2833
 Red. masses --      1.1149                 1.4490                 1.0630
 Frc consts  --      1.4794                 1.9660                 5.7551
 IR Inten    --      1.5762                 1.9257                29.2798

                     43                     44                     45
                      A                      A                      A
 Frequencies --   3035.5214              3072.6870              3081.7043
 Red. masses --      1.0636                 1.0728                 1.0960
 Frc consts  --      5.7742                 5.9676                 6.1324
 IR Inten    --     26.4768                12.8046                20.0280

                     46                     47                     48
                      A                      A                      A
 Frequencies --   3084.8607              3091.1046              3099.7873
 Red. masses --      1.0899                 1.0557                 1.0827
 Frc consts  --      6.1109                 5.9432                 6.1297
 IR Inten    --     33.7507                26.8742                28.9843

                     49                     50                     51
                      A                      A                      A
 Frequencies --   3122.0973              3168.2303              3191.9897
 Red. masses --      1.1057                 1.0911                 1.1187
 Frc consts  --      6.3502                 6.4529                 6.7158
 IR Inten    --     27.7311                13.1782                15.4587

 - Thermochemistry -
 -------------------
 Temperature   298.150 Kelvin.  Pressure   1.00000 Atm.
 Atom     1 has atomic number  6 and mass  12.00000

 Molecular mass:   126.06808 amu.
 Principal axes and moments of inertia in atomic units:
                           1         2         3
     Eigenvalues --   448.634611501.815591655.97041
           X            0.99986  -0.01047  -0.01269
           Y            0.01064   0.99986   0.01328
           Z            0.01255  -0.01342   0.99983
 This molecule is an asymmetric top.
 Rotational symmetry number  1.
 Warning -- assumption of classical behavior for rotation
           may cause significant error
 Rotational temperatures (Kelvin)      0.19306     0.05767     0.05230
 Rotational constants (GHZ):           4.02274     1.20171     1.08984
 Zero-point vibrational energy     420384.4 (Joules/Mol)
                                  100.47428 (Kcal/Mol)
 Warning -- explicit consideration of   8 degrees of freedom as
           vibrations may cause significant error
 Vibrational temperatures:    106.92   232.01   258.77   326.06   447.00
          (Kelvin)            510.47   637.77   728.48   924.13   947.59
                              996.68  1172.50  1222.15  1259.61  1278.29
                             1289.05  1308.28  1360.29  1380.95  1467.70
                             1488.65  1501.99  1582.96  1629.68  1645.64
                             1676.63  1682.32  1705.93  1743.87  1807.24
                             1841.15  1859.58  1908.28  1912.98  1940.44
                             2053.99  2101.18  2129.63  2139.62  2159.15
                             2183.33  4361.34  4367.43  4420.91  4433.88
                             4438.42  4447.40  4459.90  4492.00  4558.37
                             4592.56

 Zero-point correction=                           0.160116 (Hartree/Particle)
 Thermal correction to Energy=                    0.167893
 Thermal correction to Enthalpy=                  0.168837
 Thermal correction to Gibbs Free Energy=         0.127626
 Sum of electronic and zero-point Energies=           -423.002238
 Sum of electronic and thermal Energies=              -422.994461
 Sum of electronic and thermal Enthalpies=            -422.993516
 Sum of electronic and thermal Free Energies=         -423.034728

                     E (Thermal)             CV                S
                      KCal/Mol        Cal/Mol-Kelvin    Cal/Mol-Kelvin
 Total                  105.355             30.156             86.737
 Electronic               0.000              0.000              0.000
 Translational            0.889              2.981             40.409
 Rotational               0.889              2.981             28.502
 Vibrational            103.577             24.194             17.826
 Vibration     1          0.599              1.966              4.036
 Vibration     2          0.622              1.890              2.535
 Vibration     3          0.629              1.867              2.330
 Vibration     4          0.650              1.800              1.906
 Vibration     5          0.700              1.653              1.359
 Vibration     6          0.731              1.565              1.145
 Vibration     7          0.803              1.376              0.816
 Vibration     8          0.862              1.236              0.643

 Optimization completed.
    -- Stationary point found.
 Normal termination of Gaussian 09 at Mon Jan 27 12:56:25 2020.
