 Gaussian 09, Revision D.01,
 Gaussian 09:  ES64L-G09RevD.01 24-Apr-2013

 -----------------------------
 # b3lyp 6-31G(2df,p) opt Freq
 -----------------------------

 -----
 titel
 -----
 Symbolic Z-matrix:
 Charge =  0 Multiplicity = 1

 SCF Done:  E(RB3LYP) =  -423.167757159     A.U. after   14 cycles
 Optimization completed.
    -- Stationary point found.
 Normal termination of Gaussian 09 at Tue Jan 28 02:57:23 2020.

 ----------------------------------------------------------------------
 #N Geom=AllCheck Guess=TCheck SCRF=Check GenChk RB3LYP/6-31G(2df,p) Fr
 eq
 ----------------------------------------------------------------------

 Structure from the checkpoint file:  "/scratch/puck/g09_0360aa98-d075-4c6b-8254-6b5674afcb1d/Gau-44358.chk"
 -----
 titel
 -----
 Charge =  0 Multiplicity = 1

                         Standard orientation:
 ---------------------------------------------------------------------
 Center     Atomic      Atomic             Coordinates (Angstroms)
 Number     Number       Type             X           Y           Z
 ---------------------------------------------------------------------
      1          6           0        2.526685   -1.374123    0.141132
      2          6           0        1.998518   -0.007884   -0.240769
      3          6           0        1.332250    0.851882    0.863260
      4          6           0        0.085721    0.713080    0.001767
      5          6           0       -0.964967    1.683961   -0.357633
      6          6           0       -1.337464    0.423986    0.448845
      7          6           0       -2.101503   -0.640132   -0.238191
      8          8           0       -2.889925   -1.373509    0.308197
      9          8           0        0.739638   -0.086461   -0.974862
     10          1           0        3.454914   -1.275571    0.714673
     11          1           0        1.796800   -1.919186    0.747324
     12          1           0        2.739530   -1.964672   -0.755148
     13          1           0        2.737749    0.540987   -0.836551
     14          1           0        1.276996    0.373562    1.843471
     15          1           0        1.717585    1.867255    0.971328
     16          1           0       -1.017644    2.637286    0.156794
     17          1           0       -1.284000    1.700782   -1.395652
     18          1           0       -1.563314    0.539587    1.504108
     19          1           0       -1.891766   -0.724888   -1.327493
 ---------------------------------------------------------------------

 SCF Done:  E(RB3LYP) =  -423.167757159     A.U. after    1 cycles

 The electronic state is 1-A.
 Alpha  occ. eigenvalues --  -19.14681 -19.12496 -10.26219 -10.26101 -10.24861
 Alpha  occ. eigenvalues --  -10.20405 -10.20239 -10.20083 -10.18550  -1.05647
 Alpha  occ. eigenvalues --   -1.03236  -0.86858  -0.77416  -0.72470  -0.66329
 Alpha  occ. eigenvalues --   -0.61453  -0.57745  -0.54259  -0.50979  -0.49479
 Alpha  occ. eigenvalues --   -0.48519  -0.44337  -0.42841  -0.42075  -0.40449
 Alpha  occ. eigenvalues --   -0.39478  -0.38765  -0.37509  -0.37103  -0.34528
 Alpha  occ. eigenvalues --   -0.32066  -0.29462  -0.25292  -0.23435
 Alpha virt. eigenvalues --   -0.01370   0.06943   0.08802   0.10410   0.10648
 Alpha virt. eigenvalues --    0.12307   0.13542   0.14554   0.15168   0.15755
 Alpha virt. eigenvalues --    0.16450   0.17450   0.18473   0.19298   0.23204

 Mulliken charges:
               1
     1  C   -0.398476
     2  C    0.156803
     3  C   -0.381948
     4  C    0.450407
     5  C   -0.376182
     6  C   -0.189818
     7  C    0.173164
     8  O   -0.274842
     9  O   -0.316643
    10  H    0.119678
    11  H    0.128148
    12  H    0.132723
    13  H    0.085938
    14  H    0.120391
    15  H    0.118403
    16  H    0.129656
    17  H    0.135504
    18  H    0.106262
    19  H    0.080832
 Sum of Mulliken charges =   0.00000

 Dipole moment (field-independent basis, Debye):
    X=              3.2080    Y=              2.5599    Z=              0.5641  Tot=              4.1428
 Quadrupole moment (field-independent basis, Debye-Ang):
   XX=            -58.2024   YY=            -53.6120   ZZ=            -52.8938
   XY=             -6.3277   XZ=              3.2021   YZ=              1.1058

  Exact polarizability:  90.672   3.264  77.197  -1.049  -0.586  66.943
 Approx polarizability: 119.764  12.556 112.738  -6.152  -3.976 104.222

                      1                      2                      3
                      A                      A                      A
 Frequencies --     38.4761               103.3218               143.5415
 Red. masses --      4.0483                 5.0774                 3.4686
 Frc consts  --      0.0035                 0.0319                 0.0421
 IR Inten    --      0.8439                 3.5211                 1.8743

                      4                      5                      6
                      A                      A                      A
 Frequencies --    185.9697               233.7367               308.9294
 Red. masses --      2.1729                 1.1433                 2.2140
 Frc consts  --      0.0443                 0.0368                 0.1245
 IR Inten    --      2.6536                 0.9826                 1.6073

                      7                      8                      9
                      A                      A                      A
 Frequencies --    342.1538               387.8086               401.7019
 Red. masses --      2.8805                 2.2043                 3.1398
 Frc consts  --      0.1987                 0.1953                 0.2985
 IR Inten    --      2.8584                 3.1258                 1.3931

                     10                     11                     12
                      A                      A                      A
 Frequencies --    451.5370               536.9187               573.1480
 Red. masses --      3.6523                 3.0370                 4.2882
 Frc consts  --      0.4387                 0.5158                 0.8300
 IR Inten    --     10.3390                 3.4945                 5.0459

                     13                     14                     15
                      A                      A                      A
 Frequencies --    779.3054               819.3456               843.4404
 Red. masses --      2.7762                 2.1826                 1.3179
 Frc consts  --      0.9934                 0.8633                 0.5524
 IR Inten    --      4.1808                28.7017                21.9212

                     16                     17                     18
                      A                      A                      A
 Frequencies --    878.4238               899.0371               922.5995
 Red. masses --      2.3111                 2.3574                 2.4716
 Frc consts  --      1.0507                 1.1226                 1.2395
 IR Inten    --      8.4123                 3.3772                15.3378

                     19                     20                     21
                      A                      A                      A
 Frequencies --    928.9908               975.7638              1038.7345
 Red. masses --      1.4214                 2.5435                 2.1196
 Frc consts  --      0.7228                 1.4268                 1.3475
 IR Inten    --     20.3515                68.5281                21.7910

                     22                     23                     24
                      A                      A                      A
 Frequencies --   1048.2762              1063.4430              1078.8837
 Red. masses --      1.4103                 1.8464                 2.2376
 Frc consts  --      0.9131                 1.2303                 1.5345
 IR Inten    --     11.1194                29.1534                95.9742

                     25                     26                     27
                      A                      A                      A
 Frequencies --   1101.0530              1128.0480              1167.3947
 Red. masses --      1.7463                 1.7587                 1.9279
 Frc consts  --      1.2473                 1.3185                 1.5480
 IR Inten    --     13.5459                18.5380                29.4626

                     28                     29                     30
                      A                      A                      A
 Frequencies --   1193.9801              1210.1942              1246.0565
 Red. masses --      1.8422                 1.7178                 1.5102
 Frc consts  --      1.5473                 1.4823                 1.3816
 IR Inten    --      8.4669                 5.4578                 1.9210

                     31                     32                     33
                      A                      A                      A
 Frequencies --   1274.3546              1321.7627              1372.5010
 Red. masses --      1.5845                 1.6727                 1.5125
 Frc consts  --      1.5161                 1.7218                 1.6786
 IR Inten    --     16.5978                23.0392                45.0782

                     34                     35                     36
                      A                      A                      A
 Frequencies --   1399.6755              1413.3934              1444.1224
 Red. masses --      1.3667                 1.4113                 1.2420
 Frc consts  --      1.5776                 1.6611                 1.5261
 IR Inten    --      5.6423                10.2735                 4.1620

                     37                     38                     39
                      A                      A                      A
 Frequencies --   1476.0113              1482.5934              1493.6625
 Red. masses --      1.3820                 1.0563                 1.0921
 Frc consts  --      1.7739                 1.3680                 1.4355
 IR Inten    --     19.8611                 5.1785                 8.1990

                     40                     41                     42
                      A                      A                      A
 Frequencies --   1498.2582              1812.4653              2887.8188
 Red. masses --      1.4223                 9.8134                 1.0825
 Frc consts  --      1.8811                18.9938                 5.3188
 IR Inten    --      7.8804               264.5557                69.5643

                     43                     44                     45
                      A                      A                      A
 Frequencies --   3029.7977              3035.4667              3073.4508
 Red. masses --      1.0838                 1.0371                 1.0590
 Frc consts  --      5.8618                 5.6301                 5.8936
 IR Inten    --     42.3649                14.9926                20.7996

                     46                     47                     48
                      A                      A                      A
 Frequencies --   3108.1149              3116.9259              3126.5990
 Red. masses --      1.1006                 1.1030                 1.0538
 Frc consts  --      6.2644                 6.3135                 6.0697
 IR Inten    --     19.2720                19.9266                 6.1021

                     49                     50                     51
                      A                      A                      A
 Frequencies --   3129.2232              3168.8392              3218.9137
 Red. masses --      1.1085                 1.0896                 1.1167
 Frc consts  --      6.3950                 6.4465                 6.8171
 IR Inten    --     17.9728                 3.7391                 2.5460

 - Thermochemistry -
 -------------------
 Temperature   298.150 Kelvin.  Pressure   1.00000 Atm.
 Atom     1 has atomic number  6 and mass  12.00000

 Molecular mass:   126.06808 amu.
 Principal axes and moments of inertia in atomic units:
                           1         2         3
     Eigenvalues --   629.121251648.745781964.30039
           X            0.99898  -0.04289   0.01394
           Y            0.04276   0.99904   0.00950
           Z           -0.01433  -0.00889   0.99986
 This molecule is an asymmetric top.
 Rotational symmetry number  1.
 Warning -- assumption of classical behavior for rotation
           may cause significant error
 Rotational temperatures (Kelvin)      0.13767     0.05253     0.04409
 Rotational constants (GHZ):           2.86867     1.09461     0.91877
 Zero-point vibrational energy     412198.2 (Joules/Mol)
                                   98.51774 (Kcal/Mol)
 Warning -- explicit consideration of  12 degrees of freedom as
           vibrations may cause significant error
 Vibrational temperatures:     55.36   148.66   206.52   267.57   336.29
          (Kelvin)            444.48   492.28   557.97   577.96   649.66
                              772.51   824.63  1121.25  1178.85  1213.52
                             1263.85  1293.51  1327.41  1336.61  1403.90
                             1494.51  1508.23  1530.06  1552.27  1584.17
                             1623.01  1679.62  1717.87  1741.20  1792.80
                             1833.51  1901.72  1974.72  2013.82  2033.56
                             2077.77  2123.65  2133.12  2149.04  2155.66
                             2607.73  4154.92  4359.20  4367.35  4422.00
                             4471.88  4484.56  4498.47  4502.25  4559.25
                             4631.29

 Zero-point correction=                           0.156998 (Hartree/Particle)
 Thermal correction to Energy=                    0.165991
 Thermal correction to Enthalpy=                  0.166935
 Thermal correction to Gibbs Free Energy=         0.122509
 Sum of electronic and zero-point Energies=           -423.010759
 Sum of electronic and thermal Energies=              -423.001767
 Sum of electronic and thermal Enthalpies=            -423.000822
 Sum of electronic and thermal Free Energies=         -423.045248

                     E (Thermal)             CV                S
                      KCal/Mol        Cal/Mol-Kelvin    Cal/Mol-Kelvin
 Total                  104.161             33.202             93.502
 Electronic               0.000              0.000              0.000
 Translational            0.889              2.981             40.409
 Rotational               0.889              2.981             29.101
 Vibrational            102.383             27.240             23.993
 Vibration     1          0.594              1.982              5.336
 Vibration     2          0.605              1.947              3.391
 Vibration     3          0.616              1.910              2.756
 Vibration     4          0.632              1.859              2.268
 Vibration     5          0.654              1.789              1.850
 Vibration     6          0.698              1.657              1.368
 Vibration     7          0.721              1.591              1.202
 Vibration     8          0.756              1.496              1.009
 Vibration     9          0.767              1.466              0.956
 Vibration    10          0.810              1.357              0.791
 Vibration    11          0.892              1.168              0.572
 Vibration    12          0.929              1.089              0.498

 Optimization completed.
    -- Stationary point found.
 Normal termination of Gaussian 09 at Tue Jan 28 04:39:11 2020.
