 Gaussian 09, Revision D.01,
 Gaussian 09:  ES64L-G09RevD.01 24-Apr-2013

 -----------------------------
 # b3lyp 6-31G(2df,p) opt Freq
 -----------------------------

 -----
 titel
 -----
 Symbolic Z-matrix:
 Charge =  0 Multiplicity = 1

 SCF Done:  E(RB3LYP) =  -423.157031962     A.U. after   14 cycles
 Optimization completed.
    -- Stationary point found.
 Normal termination of Gaussian 09 at Tue Jan 28 09:15:26 2020.

 ----------------------------------------------------------------------
 #N Geom=AllCheck Guess=TCheck SCRF=Check GenChk RB3LYP/6-31G(2df,p) Fr
 eq
 ----------------------------------------------------------------------

 Structure from the checkpoint file:  "/scratch/puck/g09_dc135a02-b9f4-4fdf-b266-c843efa9b596/Gau-57775.chk"
 -----
 titel
 -----
 Charge =  0 Multiplicity = 1

                         Standard orientation:
 ---------------------------------------------------------------------
 Center     Atomic      Atomic             Coordinates (Angstroms)
 Number     Number       Type             X           Y           Z
 ---------------------------------------------------------------------
      1          6           0        2.764005   -0.090215   -0.146259
      2          6           0        1.526048   -0.996012   -0.201682
      3          6           0        0.268084   -0.291721    0.227074
      4          6           0       -0.115997    0.316027    1.626588
      5          6           0       -1.391403    0.613371    0.765274
      6          6           0       -1.214911   -0.829250    0.224605
      7          8           0       -1.847467   -1.084654   -0.997464
      8          6           0       -0.372923    1.000342   -0.323543
      9          8           0       -0.153500    1.857868   -1.120863
     10          1           0        2.622955    0.794746   -0.773169
     11          1           0        2.959419    0.248935    0.876306
     12          1           0        3.653337   -0.621380   -0.497523
     13          1           0        1.383720   -1.356687   -1.229123
     14          1           0        1.682317   -1.887070    0.420373
     15          1           0       -0.264163   -0.422781    2.418484
     16          1           0        0.455988    1.175206    1.976076
     17          1           0       -2.312166    1.099243    1.077014
     18          1           0       -1.399927   -1.611878    0.972230
     19          1           0       -1.551153   -1.939293   -1.326378
 ---------------------------------------------------------------------

 SCF Done:  E(RB3LYP) =  -423.157031962     A.U. after    1 cycles

 The electronic state is 1-A.
 Alpha  occ. eigenvalues --  -19.15254 -19.13065 -10.26883 -10.25556 -10.21019
 Alpha  occ. eigenvalues --  -10.20923 -10.20750 -10.19347 -10.17841  -1.04804
 Alpha  occ. eigenvalues --   -1.03584  -0.91635  -0.77689  -0.66992  -0.66241
 Alpha  occ. eigenvalues --   -0.63521  -0.59943  -0.53783  -0.48730  -0.47813
 Alpha  occ. eigenvalues --   -0.45990  -0.45318  -0.43469  -0.40886  -0.39733
 Alpha  occ. eigenvalues --   -0.37966  -0.37577  -0.35926  -0.35350  -0.34196
 Alpha  occ. eigenvalues --   -0.32381  -0.32134  -0.27473  -0.23469
 Alpha virt. eigenvalues --    0.01635   0.06759   0.08921   0.10929   0.12369
 Alpha virt. eigenvalues --    0.13466   0.14409   0.15065   0.15727   0.16018
 Alpha virt. eigenvalues --    0.16616   0.17294   0.18990   0.20267   0.21251

 Mulliken charges:
               1
     1  C   -0.386558
     2  C   -0.325591
     3  C    0.161746
     4  C   -0.290095
     5  C   -0.202318
     6  C    0.101565
     7  O   -0.435683
     8  C    0.434516
     9  O   -0.333974
    10  H    0.147050
    11  H    0.117563
    12  H    0.114208
    13  H    0.106152
    14  H    0.099607
    15  H    0.106217
    16  H    0.121942
    17  H    0.097857
    18  H    0.075706
    19  H    0.290088
 Sum of Mulliken charges =   0.00000

 Dipole moment (field-independent basis, Debye):
    X=              0.6922    Y=             -3.1516    Z=              2.1474  Tot=              3.8759
 Quadrupole moment (field-independent basis, Debye-Ang):
   XX=            -54.3413   YY=            -53.1166   ZZ=            -53.7633
   XY=              0.6260   XZ=             -1.8356   YZ=              5.4357

  Exact polarizability:  80.124  -0.359  74.172  -2.290  -0.591  73.144
 Approx polarizability: 107.614   0.665 114.849  -2.022  -6.820 115.458

                      1                      2                      3
                      A                      A                      A
 Frequencies --     70.8079               133.9054               154.9475
 Red. masses --      2.5028                 3.8853                 6.0267
 Frc consts  --      0.0074                 0.0410                 0.0853
 IR Inten    --      1.1914                 1.5115                 1.6016

                      4                      5                      6
                      A                      A                      A
 Frequencies --    189.3355               249.1976               271.3037
 Red. masses --      1.7250                 1.2497                 1.4378
 Frc consts  --      0.0364                 0.0457                 0.0624
 IR Inten    --      1.6407                69.5052                27.5819

                      7                      8                      9
                      A                      A                      A
 Frequencies --    284.3335               343.5015               470.3713
 Red. masses --      2.6150                 3.4688                 3.0494
 Frc consts  --      0.1246                 0.2412                 0.3975
 IR Inten    --     15.5562                 5.9900                 0.9288

                     10                     11                     12
                      A                      A                      A
 Frequencies --    477.4061               566.6594               666.7204
 Red. masses --      3.2929                 4.3536                 3.1395
 Frc consts  --      0.4422                 0.8237                 0.8222
 IR Inten    --      3.3227                 9.8107                 3.3275

                     13                     14                     15
                      A                      A                      A
 Frequencies --    700.2439               764.8612               784.5081
 Red. masses --      3.5383                 3.4692                 3.2384
 Frc consts  --      1.0222                 1.1958                 1.1743
 IR Inten    --      1.6007                 4.3051                12.4824

                     16                     17                     18
                      A                      A                      A
 Frequencies --    808.5336               832.1159               913.1570
 Red. masses --      1.6240                 3.5841                 2.0598
 Frc consts  --      0.6255                 1.4622                 1.0120
 IR Inten    --      5.2555                 7.2526                 0.9941

                     19                     20                     21
                      A                      A                      A
 Frequencies --    933.6504               971.2275               997.6251
 Red. masses --      2.5314                 2.0438                 1.8155
 Frc consts  --      1.3001                 1.1359                 1.0646
 IR Inten    --     16.9690                 9.2519                 8.1914

                     22                     23                     24
                      A                      A                      A
 Frequencies --   1035.0160              1043.2804              1069.4505
 Red. masses --      1.5339                 1.1894                 1.5979
 Frc consts  --      0.9682                 0.7628                 1.0768
 IR Inten    --      7.8776                 2.3749                 2.3691

                     25                     26                     27
                      A                      A                      A
 Frequencies --   1108.6884              1143.2604              1164.0975
 Red. masses --      1.6817                 2.2569                 2.3523
 Frc consts  --      1.2179                 1.7380                 1.8781
 IR Inten    --      0.7963                21.0802                69.0308

                     28                     29                     30
                      A                      A                      A
 Frequencies --   1182.6265              1203.3298              1224.6451
 Red. masses --      1.9321                 1.7923                 1.7796
 Frc consts  --      1.5921                 1.5290                 1.5725
 IR Inten    --      7.7337                72.9400                 7.2807

                     31                     32                     33
                      A                      A                      A
 Frequencies --   1282.0590              1304.6793              1338.2902
 Red. masses --      1.2904                 1.2638                 1.6725
 Frc consts  --      1.2497                 1.2675                 1.7648
 IR Inten    --     33.4261                 2.1675                10.5530

                     34                     35                     36
                      A                      A                      A
 Frequencies --   1387.0449              1412.9188              1426.3786
 Red. masses --      2.8624                 1.2408                 1.3410
 Frc consts  --      3.2446                 1.4594                 1.6075
 IR Inten    --      4.7091                 3.2740                 7.6494

                     37                     38                     39
                      A                      A                      A
 Frequencies --   1481.7786              1500.6552              1510.0173
 Red. masses --      1.0708                 1.0405                 1.0667
 Frc consts  --      1.3852                 1.3805                 1.4331
 IR Inten    --      0.7254                 7.1227                 3.3604

                     40                     41                     42
                      A                      A                      A
 Frequencies --   1513.4906              1916.0600              3013.1987
 Red. masses --      1.1383                12.3142                 1.0592
 Frc consts  --      1.5363                26.6364                 5.6661
 IR Inten    --      1.8718               323.5860                25.1750

                     43                     44                     45
                      A                      A                      A
 Frequencies --   3021.5703              3040.2137              3045.9626
 Red. masses --      1.0842                 1.0388                 1.0979
 Frc consts  --      5.8321                 5.6570                 6.0013
 IR Inten    --     43.8193                20.6606                19.5290

                     46                     47                     48
                      A                      A                      A
 Frequencies --   3066.4473              3107.7132              3121.3501
 Red. masses --      1.0568                 1.1014                 1.1024
 Frc consts  --      5.8546                 6.2674                 6.3283
 IR Inten    --     25.0239                31.8503                20.7850

                     49                     50                     51
                      A                      A                      A
 Frequencies --   3146.2667              3160.8256              3820.4553
 Red. masses --      1.1089                 1.0942                 1.0662
 Frc consts  --      6.4672                 6.4411                 9.1685
 IR Inten    --     16.6188                23.3054                31.2773

 - Thermochemistry -
 -------------------
 Temperature   298.150 Kelvin.  Pressure   1.00000 Atm.
 Atom     1 has atomic number  6 and mass  12.00000

 Molecular mass:   126.06808 amu.
 Principal axes and moments of inertia in atomic units:
                           1         2         3
     Eigenvalues --   797.961841272.519191396.46680
           X            0.99974  -0.00704  -0.02182
           Y            0.00961   0.99275   0.11977
           Z            0.02082  -0.11995   0.99256
 This molecule is an asymmetric top.
 Rotational symmetry number  1.
 Warning -- assumption of classical behavior for rotation
           may cause significant error
 Rotational temperatures (Kelvin)      0.10854     0.06806     0.06202
 Rotational constants (GHZ):           2.26169     1.41824     1.29236
 Zero-point vibrational energy     414961.7 (Joules/Mol)
                                   99.17823 (Kcal/Mol)
 Warning -- explicit consideration of  11 degrees of freedom as
           vibrations may cause significant error
 Vibrational temperatures:    101.88   192.66   222.93   272.41   358.54
          (Kelvin)            390.34   409.09   494.22   676.76   686.88
                              815.30   959.26  1007.49  1100.46  1128.73
                             1163.30  1197.23  1313.83  1343.31  1397.38
                             1435.36  1489.16  1501.05  1538.70  1595.15
                             1644.89  1674.87  1701.53  1731.32  1761.99
                             1844.59  1877.14  1925.50  1995.65  2032.87
                             2052.24  2131.95  2159.11  2172.58  2177.57
                             2756.78  4335.32  4347.36  4374.18  4382.46
                             4411.93  4471.30  4490.92  4526.77  4547.72
                             5496.78

 Zero-point correction=                           0.158051 (Hartree/Particle)
 Thermal correction to Energy=                    0.166995
 Thermal correction to Enthalpy=                  0.167939
 Thermal correction to Gibbs Free Energy=         0.124394
 Sum of electronic and zero-point Energies=           -422.998981
 Sum of electronic and thermal Energies=              -422.990037
 Sum of electronic and thermal Enthalpies=            -422.989093
 Sum of electronic and thermal Free Energies=         -423.032638

                     E (Thermal)             CV                S
                      KCal/Mol        Cal/Mol-Kelvin    Cal/Mol-Kelvin
 Total                  104.791             33.569             91.649
 Electronic               0.000              0.000              0.000
 Translational            0.889              2.981             40.409
 Rotational               0.889              2.981             28.741
 Vibrational            103.013             27.607             22.500
 Vibration     1          0.598              1.968              4.131
 Vibration     2          0.613              1.919              2.889
 Vibration     3          0.620              1.897              2.611
 Vibration     4          0.633              1.855              2.234
 Vibration     5          0.662              1.764              1.736
 Vibration     6          0.675              1.726              1.588
 Vibration     7          0.683              1.703              1.507
 Vibration     8          0.722              1.588              1.196
 Vibration     9          0.827              1.316              0.737
 Vibration    10          0.834              1.300              0.717
 Vibration    11          0.923              1.103              0.511

 Optimization completed.
    -- Stationary point found.
 Normal termination of Gaussian 09 at Tue Jan 28 10:01:46 2020.
