 Gaussian 09, Revision D.01,
 Gaussian 09:  ES64L-G09RevD.01 24-Apr-2013

 -----------------------------
 # b3lyp 6-31G(2df,p) opt Freq
 -----------------------------

 -----
 titel
 -----
 Symbolic Z-matrix:
 Charge =  0 Multiplicity = 1

 SCF Done:  E(RB3LYP) =  -423.167040732     A.U. after   14 cycles
 Optimization completed.
    -- Stationary point found.
 Normal termination of Gaussian 09 at Tue Jan 28 08:13:31 2020.

 ----------------------------------------------------------------------
 #N Geom=AllCheck Guess=TCheck SCRF=Check GenChk RB3LYP/6-31G(2df,p) Fr
 eq
 ----------------------------------------------------------------------

 Structure from the checkpoint file:  "/scratch/puck/g09_19d9828b-ea2a-4c3a-b315-d434bd1ba795/Gau-43495.chk"
 -----
 titel
 -----
 Charge =  0 Multiplicity = 1

                         Standard orientation:
 ---------------------------------------------------------------------
 Center     Atomic      Atomic             Coordinates (Angstroms)
 Number     Number       Type             X           Y           Z
 ---------------------------------------------------------------------
      1          6           0       -0.331560    1.966655   -0.458355
      2          6           0       -0.611988    0.747988    0.422195
      3          8           0       -2.021498    0.486291    0.452874
      4          6           0       -2.304631   -0.822733   -0.025122
      5          6           0       -0.967306   -1.419939   -0.341811
      6          6           0        0.003340   -0.549281   -0.068493
      7          6           0        1.448890   -0.817951   -0.180223
      8          6           0        2.451152   -0.258939    0.748312
      9          8           0        2.323553    0.255638   -0.572777
     10          1           0       -0.890075    2.828074   -0.081524
     11          1           0        0.735545    2.199247   -0.464871
     12          1           0       -0.648671    1.769617   -1.486867
     13          1           0       -0.283684    0.970425    1.451242
     14          1           0       -2.844691   -1.396022    0.745829
     15          1           0       -2.964839   -0.772282   -0.906101
     16          1           0       -0.838501   -2.426530   -0.721366
     17          1           0        1.694203   -1.770182   -0.650749
     18          1           0        2.136089    0.411222    1.546145
     19          1           0        3.360799   -0.823796    0.948468
 ---------------------------------------------------------------------

 SCF Done:  E(RB3LYP) =  -423.167040732     A.U. after    1 cycles

 The electronic state is 1-A.
 Alpha  occ. eigenvalues --  -19.15989 -19.13127 -10.25051 -10.24192 -10.23535
 Alpha  occ. eigenvalues --  -10.23112 -10.19535 -10.19038 -10.16551  -1.07813
 Alpha  occ. eigenvalues --   -1.03073  -0.80595  -0.76265  -0.69564  -0.66567
 Alpha  occ. eigenvalues --   -0.63937  -0.58699  -0.55344  -0.51728  -0.49740
 Alpha  occ. eigenvalues --   -0.47209  -0.44419  -0.43276  -0.42333  -0.39825
 Alpha  occ. eigenvalues --   -0.38990  -0.37832  -0.37136  -0.34122  -0.33635
 Alpha  occ. eigenvalues --   -0.31695  -0.27860  -0.26379  -0.23118
 Alpha virt. eigenvalues --    0.00194   0.09083   0.10261   0.10812   0.11688
 Alpha virt. eigenvalues --    0.13049   0.13242   0.14909   0.15473   0.16801
 Alpha virt. eigenvalues --    0.17756   0.18284   0.19184   0.20046   0.21789

 Mulliken charges:
               1
     1  C   -0.390670
     2  C    0.032790
     3  O   -0.280851
     4  C   -0.112295
     5  C   -0.230489
     6  C    0.326730
     7  C   -0.029224
     8  C   -0.189053
     9  O   -0.226334
    10  H    0.118259
    11  H    0.134670
    12  H    0.115567
    13  H    0.077358
    14  H    0.105679
    15  H    0.106921
    16  H    0.102918
    17  H    0.095931
    18  H    0.121285
    19  H    0.120811
 Sum of Mulliken charges =   0.00000

 Dipole moment (field-independent basis, Debye):
    X=              0.5556    Y=             -1.9601    Z=              0.6933  Tot=              2.1521
 Quadrupole moment (field-independent basis, Debye-Ang):
   XX=            -55.2334   YY=            -50.5615   ZZ=            -53.3657
   XY=              0.6459   XZ=              5.1808   YZ=              1.4984

  Exact polarizability:  97.779   9.495  79.093   6.865   5.163  60.882
 Approx polarizability: 136.860  21.765 116.510   9.566   9.195  95.983

                      1                      2                      3
                      A                      A                      A
 Frequencies --     49.6171                84.6360               172.7066
 Red. masses --      3.6104                 3.1289                 2.9759
 Frc consts  --      0.0052                 0.0132                 0.0523
 IR Inten    --      3.1090                 2.9694                 4.3173

                      4                      5                      6
                      A                      A                      A
 Frequencies --    183.8751               239.9396               281.5309
 Red. masses --      3.5047                 1.1057                 2.4615
 Frc consts  --      0.0698                 0.0375                 0.1150
 IR Inten    --      0.3072                 1.7418                 0.6335

                      7                      8                      9
                      A                      A                      A
 Frequencies --    341.5915               403.1503               434.2367
 Red. masses --      3.2935                 4.2126                 3.1810
 Frc consts  --      0.2264                 0.4034                 0.3534
 IR Inten    --      1.8770                 1.7760                 0.9118

                     10                     11                     12
                      A                      A                      A
 Frequencies --    595.8395               648.0111               767.9623
 Red. masses --      2.8440                 4.1000                 4.1235
 Frc consts  --      0.5949                 1.0144                 1.4328
 IR Inten    --      4.1322                11.8787                 2.7645

                     13                     14                     15
                      A                      A                      A
 Frequencies --    799.1926               816.1866               854.3157
 Red. masses --      3.3856                 1.9537                 2.1982
 Frc consts  --      1.2741                 0.7668                 0.9453
 IR Inten    --      3.5389                27.5068                 9.3101

                     16                     17                     18
                      A                      A                      A
 Frequencies --    872.0494               897.2675               953.1640
 Red. masses --      2.8408                 2.5124                 2.1328
 Frc consts  --      1.2728                 1.1917                 1.1417
 IR Inten    --     13.0676                20.3460                11.7556

                     19                     20                     21
                      A                      A                      A
 Frequencies --    990.3623              1038.6539              1044.2228
 Red. masses --      1.7547                 2.3002                 1.8604
 Frc consts  --      1.0140                 1.4621                 1.1952
 IR Inten    --      6.9198                 9.6162                 9.4036

                     22                     23                     24
                      A                      A                      A
 Frequencies --   1078.2381              1099.8001              1113.6350
 Red. masses --      1.4609                 1.2876                 3.3699
 Frc consts  --      1.0007                 0.9176                 2.4624
 IR Inten    --     10.8734                 2.1589                50.8924

                     25                     26                     27
                      A                      A                      A
 Frequencies --   1122.4368              1150.3415              1169.9010
 Red. masses --      2.5466                 1.4247                 1.3368
 Frc consts  --      1.8903                 1.1108                 1.0780
 IR Inten    --     37.7700                 0.2138                 1.6805

                     28                     29                     30
                      A                      A                      A
 Frequencies --   1196.7776              1213.9528              1274.2767
 Red. masses --      1.1218                 1.9639                 1.5945
 Frc consts  --      0.9467                 1.7052                 1.5254
 IR Inten    --      0.7287                 8.9174                 2.3017

                     31                     32                     33
                      A                      A                      A
 Frequencies --   1300.3578              1363.8829              1371.1074
 Red. masses --      1.4513                 1.3626                 2.3944
 Frc consts  --      1.4459                 1.4934                 2.6521
 IR Inten    --     10.7772                 4.3927                14.3751

                     34                     35                     36
                      A                      A                      A
 Frequencies --   1382.6166              1401.1151              1418.9342
 Red. masses --      1.4564                 1.2926                 1.6942
 Frc consts  --      1.6404                 1.4951                 2.0098
 IR Inten    --     14.0969                 9.4037                13.2022

                     37                     38                     39
                      A                      A                      A
 Frequencies --   1485.7231              1496.0642              1521.8731
 Red. masses --      1.0480                 1.0603                 1.0902
 Frc consts  --      1.3630                 1.3982                 1.4877
 IR Inten    --      3.8423                 0.9601                 1.9978

                     40                     41                     42
                      A                      A                      A
 Frequencies --   1525.5221              1717.6227              2955.8731
 Red. masses --      1.2392                 7.7266                 1.0806
 Frc consts  --      1.6991                13.4306                 5.5629
 IR Inten    --      0.9784                 0.2916                71.6236

                     43                     44                     45
                      A                      A                      A
 Frequencies --   2968.7764              2981.3826              3045.0420
 Red. masses --      1.0571                 1.1055                 1.0347
 Frc consts  --      5.4894                 5.7897                 5.6525
 IR Inten    --     76.8973                48.8301                16.8547

                     46                     47                     48
                      A                      A                      A
 Frequencies --   3085.7516              3109.7284              3118.4764
 Red. masses --      1.0500                 1.0883                 1.1026
 Frc consts  --      5.8906                 6.2008                 6.3178
 IR Inten    --     27.7060                21.1542                23.0119

                     49                     50                     51
                      A                      A                      A
 Frequencies --   3138.7957              3174.3209              3207.0205
 Red. masses --      1.1012                 1.1193                 1.0949
 Frc consts  --      6.3924                 6.6452                 6.6351
 IR Inten    --      9.2867                25.3040                 7.8495

 - Thermochemistry -
 -------------------
 Temperature   298.150 Kelvin.  Pressure   1.00000 Atm.
 Atom     1 has atomic number  6 and mass  12.00000

 Molecular mass:   126.06808 amu.
 Principal axes and moments of inertia in atomic units:
                           1         2         3
     Eigenvalues --   586.086681429.233461787.79973
           X            0.99979   0.00454   0.02013
           Y           -0.00453   0.99999  -0.00035
           Z           -0.02014   0.00026   0.99980
 This molecule is an asymmetric top.
 Rotational symmetry number  1.
 Warning -- assumption of classical behavior for rotation
           may cause significant error
 Rotational temperatures (Kelvin)      0.14778     0.06060     0.04845
 Rotational constants (GHZ):           3.07931     1.26273     1.00948
 Zero-point vibrational energy     416646.5 (Joules/Mol)
                                   99.58091 (Kcal/Mol)
 Warning -- explicit consideration of  10 degrees of freedom as
           vibrations may cause significant error
 Vibrational temperatures:     71.39   121.77   248.49   264.55   345.22
          (Kelvin)            405.06   491.47   580.04   624.77   857.28
                              932.34  1104.93  1149.86  1174.31  1229.17
                             1254.68  1290.97  1371.39  1424.91  1494.39
                             1502.40  1551.34  1582.37  1602.27  1614.93
                             1655.08  1683.22  1721.89  1746.61  1833.40
                             1870.92  1962.32  1972.72  1989.27  2015.89
                             2041.53  2137.62  2152.50  2189.63  2194.88
                             2471.27  4252.84  4271.40  4289.54  4381.13
                             4439.70  4474.20  4486.79  4516.02  4567.13
                             4614.18

 Zero-point correction=                           0.158692 (Hartree/Particle)
 Thermal correction to Energy=                    0.167332
 Thermal correction to Enthalpy=                  0.168276
 Thermal correction to Gibbs Free Energy=         0.124674
 Sum of electronic and zero-point Energies=           -423.008348
 Sum of electronic and thermal Energies=              -422.999709
 Sum of electronic and thermal Enthalpies=            -422.998765
 Sum of electronic and thermal Free Energies=         -423.042367

                     E (Thermal)             CV                S
                      KCal/Mol        Cal/Mol-Kelvin    Cal/Mol-Kelvin
 Total                  105.002             31.793             91.769
 Electronic               0.000              0.000              0.000
 Translational            0.889              2.981             40.409
 Rotational               0.889              2.981             28.795
 Vibrational            103.225             25.831             22.565
 Vibration     1          0.595              1.978              4.833
 Vibration     2          0.601              1.960              3.780
 Vibration     3          0.626              1.876              2.406
 Vibration     4          0.631              1.862              2.289
 Vibration     5          0.657              1.779              1.803
 Vibration     6          0.681              1.708              1.524
 Vibration     7          0.721              1.592              1.205
 Vibration     8          0.769              1.463              0.951
 Vibration     9          0.795              1.396              0.845
 Vibration    10          0.954              1.041              0.457

 Optimization completed.
    -- Stationary point found.
 Normal termination of Gaussian 09 at Tue Jan 28 08:57:42 2020.
