 Gaussian 09, Revision D.01,
 Gaussian 09:  ES64L-G09RevD.01 24-Apr-2013

 -----------------------------
 # b3lyp 6-31G(2df,p) opt Freq
 -----------------------------

 -----
 titel
 -----
 Symbolic Z-matrix:
 Charge =  0 Multiplicity = 1

 SCF Done:  E(RB3LYP) =  -423.163963590     A.U. after   14 cycles
 Optimization completed.
    -- Stationary point found.
 Normal termination of Gaussian 09 at Tue Jan 28 14:12:42 2020.

 ----------------------------------------------------------------------
 #N Geom=AllCheck Guess=TCheck SCRF=Check GenChk RB3LYP/6-31G(2df,p) Fr
 eq
 ----------------------------------------------------------------------

 Structure from the checkpoint file:  "/scratch/puck/g09_12a148d8-838b-460a-bfe9-2624e5cb5189/Gau-122955.chk"
 -----
 titel
 -----
 Charge =  0 Multiplicity = 1

                         Standard orientation:
 ---------------------------------------------------------------------
 Center     Atomic      Atomic             Coordinates (Angstroms)
 Number     Number       Type             X           Y           Z
 ---------------------------------------------------------------------
      1          6           0        2.803596   -0.307234    0.133487
      2          8           0        1.704936    0.347652   -0.459572
      3          6           0        0.511757   -0.376822   -0.393967
      4          6           0       -0.232573   -0.413061    0.983248
      5          6           0       -1.520268   -1.134575    0.491976
      6          8           0       -1.743853   -0.594888   -0.820357
      7          6           0       -0.670153    0.359996   -1.048608
      8          6           0       -0.874723    1.522361   -0.092679
      9          6           0       -0.610228    1.050767    1.129993
     10          1           0        2.967951   -1.304238   -0.304703
     11          1           0        3.685514    0.309698   -0.053863
     12          1           0        2.680976   -0.424380    1.220247
     13          1           0        0.646667   -1.383241   -0.818696
     14          1           0        0.262187   -0.894793    1.825850
     15          1           0       -1.376203   -2.220088    0.417559
     16          1           0       -2.384266   -0.935602    1.136167
     17          1           0       -0.619351    0.566846   -2.115563
     18          1           0       -1.262926    2.494430   -0.365319
     19          1           0       -0.733654    1.560656    2.077049
 ---------------------------------------------------------------------

 SCF Done:  E(RB3LYP) =  -423.163963590     A.U. after    1 cycles

 The electronic state is 1-A.
 Alpha  occ. eigenvalues --  -19.14335 -19.13214 -10.23336 -10.22967 -10.22700
 Alpha  occ. eigenvalues --  -10.22604 -10.19498 -10.18293 -10.17680  -1.04440
 Alpha  occ. eigenvalues --   -1.02420  -0.83275  -0.74302  -0.72286  -0.66749
 Alpha  occ. eigenvalues --   -0.61158  -0.57354  -0.53310  -0.52325  -0.50349
 Alpha  occ. eigenvalues --   -0.46893  -0.44629  -0.43060  -0.42567  -0.41295
 Alpha  occ. eigenvalues --   -0.38228  -0.37548  -0.36268  -0.34879  -0.32277
 Alpha  occ. eigenvalues --   -0.30248  -0.26204  -0.24924  -0.23594
 Alpha virt. eigenvalues --    0.00842   0.08699   0.10483   0.12582   0.13255
 Alpha virt. eigenvalues --    0.14049   0.14953   0.15910   0.16280   0.16812
 Alpha virt. eigenvalues --    0.17118   0.18119   0.19521   0.20304   0.21992

 Mulliken charges:
               1
     1  C   -0.242684
     2  O   -0.253549
     3  C    0.168430
     4  C   -0.156016
     5  C   -0.075930
     6  O   -0.282788
     7  C    0.016475
     8  C   -0.059247
     9  C   -0.072740
    10  H    0.105175
    11  H    0.129659
    12  H    0.107523
    13  H    0.069576
    14  H    0.068290
    15  H    0.098340
    16  H    0.101095
    17  H    0.078463
    18  H    0.101685
    19  H    0.098243
 Sum of Mulliken charges =   0.00000

 Dipole moment (field-independent basis, Debye):
    X=              1.1783    Y=             -0.5688    Z=              1.4851  Tot=              1.9792
 Quadrupole moment (field-independent basis, Debye-Ang):
   XX=            -54.0796   YY=            -51.6277   ZZ=            -51.5614
   XY=             -3.2655   XZ=             -1.1748   YZ=             -1.2936

  Exact polarizability:  76.653  -1.720  74.859   0.065  -2.158  73.529
 Approx polarizability: 101.569  -0.500 112.170   4.595  -7.337 121.660

                      1                      2                      3
                      A                      A                      A
 Frequencies --     75.2768               171.4213               192.5327
 Red. masses --      2.4383                 1.4921                 2.0366
 Frc consts  --      0.0081                 0.0258                 0.0445
 IR Inten    --      1.2471                 0.3273                 0.7048

                      4                      5                      6
                      A                      A                      A
 Frequencies --    288.8595               298.6280               371.3213
 Red. masses --      2.8430                 3.1384                 4.0567
 Frc consts  --      0.1398                 0.1649                 0.3295
 IR Inten    --      0.5665                 8.0255                 2.7053

                      7                      8                      9
                      A                      A                      A
 Frequencies --    432.1436               505.4956               541.9273
 Red. masses --      2.9248                 3.2113                 4.2631
 Frc consts  --      0.3218                 0.4835                 0.7377
 IR Inten    --      5.5082                 2.8685                 1.9995

                     10                     11                     12
                      A                      A                      A
 Frequencies --    705.8868               745.6362               794.3043
 Red. masses --      4.8551                 1.6370                 3.8177
 Frc consts  --      1.4253                 0.5362                 1.4191
 IR Inten    --      3.0343                25.5785                 7.8648

                     13                     14                     15
                      A                      A                      A
 Frequencies --    839.0284               869.7391               894.9090
 Red. masses --      5.5051                 2.1050                 3.2388
 Frc consts  --      2.2833                 0.9382                 1.5283
 IR Inten    --      1.1360                 0.7547                37.8614

                     16                     17                     18
                      A                      A                      A
 Frequencies --    920.4229               935.5172               951.3441
 Red. masses --      2.3898                 2.2106                 1.8258
 Frc consts  --      1.1929                 1.1399                 0.9736
 IR Inten    --      5.6742                14.6872                10.2379

                     19                     20                     21
                      A                      A                      A
 Frequencies --    956.4213               995.5039              1022.6504
 Red. masses --      2.6570                 2.7531                 2.0295
 Frc consts  --      1.4320                 1.6075                 1.2505
 IR Inten    --      7.8733                39.5816                14.2517

                     22                     23                     24
                      A                      A                      A
 Frequencies --   1047.1530              1068.1924              1124.6154
 Red. masses --      2.5374                 1.8213                 1.3136
 Frc consts  --      1.6393                 1.2244                 0.9788
 IR Inten    --      2.3613                11.7550                 1.3156

                     25                     26                     27
                      A                      A                      A
 Frequencies --   1162.9060              1170.9749              1181.7775
 Red. masses --      2.5565                 1.5322                 1.2787
 Frc consts  --      2.0370                 1.2379                 1.0522
 IR Inten    --    119.7235                 2.9990                 3.3070

                     28                     29                     30
                      A                      A                      A
 Frequencies --   1210.6513              1237.7951              1250.7209
 Red. masses --      1.3866                 1.9526                 1.6518
 Frc consts  --      1.1974                 1.7626                 1.5224
 IR Inten    --      5.8958                84.8921                 7.3279

                     31                     32                     33
                      A                      A                      A
 Frequencies --   1266.5158              1289.1961              1304.2188
 Red. masses --      1.3618                 1.2461                 1.7658
 Frc consts  --      1.2871                 1.2202                 1.7697
 IR Inten    --      9.9095                 0.1007                 7.3724

                     34                     35                     36
                      A                      A                      A
 Frequencies --   1351.9705              1369.2531              1401.7637
 Red. masses --      1.4239                 1.5941                 1.2863
 Frc consts  --      1.5334                 1.7609                 1.4892
 IR Inten    --     10.5480                 5.5991                33.2853

                     37                     38                     39
                      A                      A                      A
 Frequencies --   1483.0882              1489.6023              1508.2094
 Red. masses --      1.1183                 1.0870                 1.0611
 Frc consts  --      1.4492                 1.4210                 1.4221
 IR Inten    --      3.2428                 2.6854                 6.5270

                     40                     41                     42
                      A                      A                      A
 Frequencies --   1522.5634              1639.1002              2976.1396
 Red. masses --      1.0917                 5.6891                 1.0395
 Frc consts  --      1.4911                 9.0054                 5.4247
 IR Inten    --      0.3821                 1.5573                46.4451

                     43                     44                     45
                      A                      A                      A
 Frequencies --   2994.1493              3014.7995              3026.0072
 Red. masses --      1.0816                 1.0578                 1.1015
 Frc consts  --      5.7131                 5.6646                 5.9428
 IR Inten    --     49.8313                73.1695                46.8040

                     46                     47                     48
                      A                      A                      A
 Frequencies --   3057.8273              3116.7050              3124.8436
 Red. masses --      1.1083                 1.0961                 1.0883
 Frc consts  --      6.1056                 6.2733                 6.2613
 IR Inten    --     41.0409                28.4048                30.1705

                     49                     50                     51
                      A                      A                      A
 Frequencies --   3147.2299              3203.4878              3231.4230
 Red. masses --      1.0907                 1.0870                 1.1063
 Frc consts  --      6.3653                 6.5726                 6.8060
 IR Inten    --     23.0367                 7.0170                12.6285

 - Thermochemistry -
 -------------------
 Temperature   298.150 Kelvin.  Pressure   1.00000 Atm.
 Atom     1 has atomic number  6 and mass  12.00000

 Molecular mass:   126.06808 amu.
 Principal axes and moments of inertia in atomic units:
                           1         2         3
     Eigenvalues --   590.655801270.242711323.68391
           X            0.99973  -0.02335  -0.00178
           Y            0.02305   0.99452  -0.10198
           Z            0.00415   0.10192   0.99478
 This molecule is an asymmetric top.
 Rotational symmetry number  1.
 Warning -- assumption of classical behavior for rotation
           may cause significant error
 Rotational temperatures (Kelvin)      0.14664     0.06819     0.06543
 Rotational constants (GHZ):           3.05549     1.42078     1.36342
 Zero-point vibrational energy     421575.1 (Joules/Mol)
                                  100.75886 (Kcal/Mol)
 Warning -- explicit consideration of   9 degrees of freedom as
           vibrations may cause significant error
 Vibrational temperatures:    108.31   246.64   277.01   415.60   429.66
          (Kelvin)            534.25   621.76   727.29   779.71  1015.61
                             1072.80  1142.83  1207.17  1251.36  1287.57
                             1324.28  1346.00  1368.77  1376.08  1432.31
                             1471.36  1506.62  1536.89  1618.07  1673.16
                             1684.77  1700.31  1741.86  1780.91  1799.51
                             1822.23  1854.86  1876.48  1945.18  1970.05
                             2016.82  2133.83  2143.20  2169.97  2190.63
                             2358.30  4282.00  4307.91  4337.62  4353.74
                             4399.53  4484.24  4495.95  4528.16  4609.10
                             4649.29

 Zero-point correction=                           0.160569 (Hartree/Particle)
 Thermal correction to Energy=                    0.168244
 Thermal correction to Enthalpy=                  0.169188
 Thermal correction to Gibbs Free Energy=         0.128317
 Sum of electronic and zero-point Energies=           -423.003394
 Sum of electronic and thermal Energies=              -422.995720
 Sum of electronic and thermal Enthalpies=            -422.994776
 Sum of electronic and thermal Free Energies=         -423.035646

                     E (Thermal)             CV                S
                      KCal/Mol        Cal/Mol-Kelvin    Cal/Mol-Kelvin
 Total                  105.575             30.015             86.020
 Electronic               0.000              0.000              0.000
 Translational            0.889              2.981             40.409
 Rotational               0.889              2.981             28.387
 Vibrational            103.797             24.054             17.225
 Vibration     1          0.599              1.965              4.010
 Vibration     2          0.626              1.878              2.420
 Vibration     3          0.635              1.850              2.203
 Vibration     4          0.685              1.694              1.481
 Vibration     5          0.692              1.676              1.425
 Vibration     6          0.743              1.531              1.074
 Vibration     7          0.793              1.400              0.852
 Vibration     8          0.861              1.238              0.645
 Vibration     9          0.897              1.157              0.561

 Optimization completed.
    -- Stationary point found.
 Normal termination of Gaussian 09 at Tue Jan 28 14:59:51 2020.
