 Gaussian 09, Revision D.01,
 Gaussian 09:  ES64L-G09RevD.01 24-Apr-2013

 -----------------------------
 # b3lyp 6-31G(2df,p) opt Freq
 -----------------------------

 -----
 titel
 -----
 Symbolic Z-matrix:
 Charge =  0 Multiplicity = 1

 SCF Done:  E(RB3LYP) =  -423.220389596     A.U. after   14 cycles
 Optimization completed.
    -- Stationary point found.
 Normal termination of Gaussian 09 at Mon Jan 27 10:21:24 2020.

 ----------------------------------------------------------------------
 #N Geom=AllCheck Guess=TCheck SCRF=Check GenChk RB3LYP/6-31G(2df,p) Fr
 eq
 ----------------------------------------------------------------------

 Structure from the checkpoint file:  "/scratch/puck/g09_2cb24b62-cf51-41a2-bbd7-ae07449b8e10/Gau-14502.chk"
 -----
 titel
 -----
 Charge =  0 Multiplicity = 1

                         Standard orientation:
 ---------------------------------------------------------------------
 Center     Atomic      Atomic             Coordinates (Angstroms)
 Number     Number       Type             X           Y           Z
 ---------------------------------------------------------------------
      1          6           0        2.468079   -0.789055   -1.009313
      2          6           0        1.894549    0.259275   -0.050034
      3          8           0        2.397342    0.063061    1.275768
      4          6           0        0.392137    0.309037   -0.076308
      5          6           0       -0.387351    1.408096   -0.247122
      6          8           0       -1.708321    1.084714   -0.186843
      7          6           0       -1.785355   -0.259449    0.033860
      8          6           0       -3.148322   -0.843551    0.137370
      9          6           0       -0.532133   -0.782768    0.107526
     10          1           0        2.170068   -0.581497   -2.041840
     11          1           0        3.559554   -0.790457   -0.947125
     12          1           0        2.110378   -1.792452   -0.751834
     13          1           0        2.276474    1.245263   -0.338176
     14          1           0        1.940861   -0.698322    1.649247
     15          1           0       -0.163884    2.448820   -0.416398
     16          1           0       -3.715007   -0.396361    0.961898
     17          1           0       -3.725248   -0.682728   -0.780396
     18          1           0       -3.078860   -1.919109    0.313724
     19          1           0       -0.296125   -1.824867    0.263627
 ---------------------------------------------------------------------

 SCF Done:  E(RB3LYP) =  -423.220389596     A.U. after    1 cycles

 The electronic state is 1-A.
 Alpha  occ. eigenvalues --  -19.19796 -19.12747 -10.23483 -10.23364 -10.22215
 Alpha  occ. eigenvalues --  -10.19329 -10.17998 -10.17639 -10.17278  -1.10170
 Alpha  occ. eigenvalues --   -1.00932  -0.80447  -0.78007  -0.73610  -0.68659
 Alpha  occ. eigenvalues --   -0.63185  -0.57603  -0.55460  -0.51846  -0.46772
 Alpha  occ. eigenvalues --   -0.45781  -0.44824  -0.42684  -0.40764  -0.40374
 Alpha  occ. eigenvalues --   -0.40238  -0.39415  -0.38243  -0.36762  -0.35154
 Alpha  occ. eigenvalues --   -0.32229  -0.26960  -0.26147  -0.21648
 Alpha virt. eigenvalues --    0.01663   0.06820   0.08507   0.10593   0.11946
 Alpha virt. eigenvalues --    0.12519   0.14272   0.14868   0.17000   0.17464
 Alpha virt. eigenvalues --    0.17799   0.19173   0.19887   0.20404   0.23772

 Mulliken charges:
               1
     1  C   -0.393112
     2  C    0.008046
     3  O   -0.427899
     4  C    0.271379
     5  C   -0.132725
     6  O   -0.181651
     7  C    0.383148
     8  C   -0.488412
     9  C   -0.405470
    10  H    0.118333
    11  H    0.121643
    12  H    0.108159
    13  H    0.087818
    14  H    0.277234
    15  H    0.134951
    16  H    0.140036
    17  H    0.139602
    18  H    0.134834
    19  H    0.104086
 Sum of Mulliken charges =   0.00000

 Dipole moment (field-independent basis, Debye):
    X=             -1.2030    Y=             -1.3222    Z=             -0.5849  Tot=              1.8809
 Quadrupole moment (field-independent basis, Debye-Ang):
   XX=            -54.6372   YY=            -49.3314   ZZ=            -54.7608
   XY=              1.0741   XZ=             -3.3884   YZ=             -3.0052

  Exact polarizability: 102.509   2.380  78.316  -1.740  -4.149  56.657
 Approx polarizability: 139.066  -1.615 127.602   1.554  -9.648  85.339

                      1                      2                      3
                      A                      A                      A
 Frequencies --     48.1595               107.1893               129.1261
 Red. masses --      3.4252                 2.0153                 1.3747
 Frc consts  --      0.0047                 0.0136                 0.0135
 IR Inten    --      0.3593                 0.4276                 0.7513

                      4                      5                      6
                      A                      A                      A
 Frequencies --    159.5641               209.1340               242.9409
 Red. masses --      2.4079                 1.2692                 2.2935
 Frc consts  --      0.0361                 0.0327                 0.0798
 IR Inten    --     12.9489                84.2573                16.6085

                      7                      8                      9
                      A                      A                      A
 Frequencies --    259.6373               323.3535               362.2406
 Red. masses --      1.1942                 3.5897                 2.9665
 Frc consts  --      0.0474                 0.2211                 0.2293
 IR Inten    --      2.0303                 4.9132                 3.6203

                     10                     11                     12
                      A                      A                      A
 Frequencies --    442.5602               499.8920               609.8258
 Red. masses --      4.9910                 3.0850                 3.0713
 Frc consts  --      0.5759                 0.4542                 0.6730
 IR Inten    --      2.4404                 7.2564                 0.9738

                     13                     14                     15
                      A                      A                      A
 Frequencies --    637.6242               687.8783               722.2405
 Red. masses --      4.0922                 2.5749                 2.9118
 Frc consts  --      0.9803                 0.7179                 0.8949
 IR Inten    --      4.3342                12.1885                13.2122

                     16                     17                     18
                      A                      A                      A
 Frequencies --    755.4987               812.0942               894.8078
 Red. masses --      1.4852                 1.5018                 2.5429
 Frc consts  --      0.4995                 0.5835                 1.1996
 IR Inten    --      0.9633                24.8376                25.0283

                     19                     20                     21
                      A                      A                      A
 Frequencies --    943.1588               983.7461              1010.5181
 Red. masses --      2.7852                 3.3560                 1.6114
 Frc consts  --      1.4598                 1.9135                 0.9695
 IR Inten    --     23.5842                 6.8801                28.6182

                     22                     23                     24
                      A                      A                      A
 Frequencies --   1017.8692              1064.7430              1087.8320
 Red. masses --      1.9046                 1.4783                 1.8198
 Frc consts  --      1.1626                 0.9875                 1.2688
 IR Inten    --     10.0602                 2.1166                56.3225

                     25                     26                     27
                      A                      A                      A
 Frequencies --   1090.4061              1161.8247              1183.3991
 Red. masses --      3.0511                 2.5651                 2.5144
 Frc consts  --      2.1374                 2.0401                 2.0746
 IR Inten    --     55.2041                31.7810                 5.2039

                     28                     29                     30
                      A                      A                      A
 Frequencies --   1224.9608              1277.3021              1296.0518
 Red. masses --      1.4994                 1.5594                 2.5131
 Frc consts  --      1.3256                 1.4989                 2.4872
 IR Inten    --      3.8536                10.8370                 7.6381

                     31                     32                     33
                      A                      A                      A
 Frequencies --   1354.8413              1399.9135              1408.7407
 Red. masses --      1.6714                 1.3141                 2.1335
 Frc consts  --      1.8076                 1.5173                 2.4947
 IR Inten    --      9.1779                 5.6594                17.9348

                     34                     35                     36
                      A                      A                      A
 Frequencies --   1416.4458              1421.4670              1472.8463
 Red. masses --      1.2553                 1.3081                 1.0424
 Frc consts  --      1.4838                 1.5573                 1.3324
 IR Inten    --     16.2296                29.2777                 5.3036

                     37                     38                     39
                      A                      A                      A
 Frequencies --   1489.4092              1490.8355              1492.7626
 Red. masses --      1.1107                 1.0748                 1.0558
 Frc consts  --      1.4516                 1.4074                 1.3862
 IR Inten    --      3.9468                10.3825                 1.8526

                     40                     41                     42
                      A                      A                      A
 Frequencies --   1587.6858              1655.5414              3031.8165
 Red. masses --      5.3982                 6.4770                 1.0381
 Frc consts  --      8.0174                10.4593                 5.6219
 IR Inten    --     41.3019                 6.5281                32.1165

                     43                     44                     45
                      A                      A                      A
 Frequencies --   3032.8898              3046.2404              3082.4561
 Red. masses --      1.0369                 1.0837                 1.1002
 Frc consts  --      5.6197                 5.9250                 6.1591
 IR Inten    --     11.7479                21.0321                14.1187

                     46                     47                     48
                      A                      A                      A
 Frequencies --   3103.2220              3121.2145              3130.2958
 Red. masses --      1.0999                 1.1024                 1.0984
 Frc consts  --      6.2407                 6.3277                 6.3416
 IR Inten    --     33.9369                26.2988                 9.7796

                     49                     50                     51
                      A                      A                      A
 Frequencies --   3242.2786              3272.5500              3810.5418
 Red. masses --      1.0960                 1.0979                 1.0661
 Frc consts  --      6.7885                 6.9276                 9.1203
 IR Inten    --      2.8727                 0.1916                12.7545

 - Thermochemistry -
 -------------------
 Temperature   298.150 Kelvin.  Pressure   1.00000 Atm.
 Atom     1 has atomic number  6 and mass  12.00000

 Molecular mass:   126.06808 amu.
 Principal axes and moments of inertia in atomic units:
                           1         2         3
     Eigenvalues --   495.753581921.365372058.23917
           X            0.99977   0.00890  -0.01956
           Y           -0.00902   0.99994  -0.00596
           Z            0.01950   0.00614   0.99979
 This molecule is an asymmetric top.
 Rotational symmetry number  1.
 Warning -- assumption of classical behavior for rotation
           may cause significant error
 Rotational temperatures (Kelvin)      0.17471     0.04508     0.04208
 Rotational constants (GHZ):           3.64040     0.93930     0.87684
 Zero-point vibrational energy     414563.3 (Joules/Mol)
                                   99.08301 (Kcal/Mol)
 Warning -- explicit consideration of  12 degrees of freedom as
           vibrations may cause significant error
 Vibrational temperatures:     69.29   154.22   185.78   229.58   300.90
          (Kelvin)            349.54   373.56   465.23   521.18   636.74
                              719.23   877.40   917.40   989.70  1039.14
                             1086.99  1168.42  1287.43  1356.99  1415.39
                             1453.91  1464.48  1531.93  1565.15  1568.85
                             1671.60  1702.65  1762.44  1837.75  1864.73
                             1949.31  2014.16  2026.86  2037.95  2045.17
                             2119.09  2142.92  2144.98  2147.75  2284.32
                             2381.95  4362.10  4363.65  4382.85  4434.96
                             4464.84  4490.73  4503.79  4664.91  4708.46
                             5482.51

 Zero-point correction=                           0.157899 (Hartree/Particle)
 Thermal correction to Energy=                    0.167463
 Thermal correction to Enthalpy=                  0.168408
 Thermal correction to Gibbs Free Energy=         0.123021
 Sum of electronic and zero-point Energies=           -423.062491
 Sum of electronic and thermal Energies=              -423.052926
 Sum of electronic and thermal Enthalpies=            -423.051982
 Sum of electronic and thermal Free Energies=         -423.097369

                     E (Thermal)             CV                S
                      KCal/Mol        Cal/Mol-Kelvin    Cal/Mol-Kelvin
 Total                  105.085             34.665             95.524
 Electronic               0.000              0.000              0.000
 Translational            0.889              2.981             40.409
 Rotational               0.889              2.981             29.063
 Vibrational            103.307             28.704             26.053
 Vibration     1          0.595              1.978              4.892
 Vibration     2          0.606              1.943              3.319
 Vibration     3          0.612              1.924              2.959
 Vibration     4          0.621              1.892              2.555
 Vibration     5          0.642              1.827              2.051
 Vibration     6          0.659              1.774              1.781
 Vibration     7          0.668              1.746              1.664
 Vibration     8          0.708              1.629              1.293
 Vibration     9          0.736              1.550              1.112
 Vibration    10          0.802              1.377              0.819
 Vibration    11          0.855              1.250              0.658
 Vibration    12          0.969              1.011              0.433

 Normal termination of Gaussian 09 at Mon Jan 27 10:57:48 2020.
