 Gaussian 09, Revision D.01,
 Gaussian 09:  ES64L-G09RevD.01 24-Apr-2013

 -----------------------------
 # b3lyp 6-31G(2df,p) opt Freq
 -----------------------------

 -----
 titel
 -----
 Symbolic Z-matrix:
 Charge =  0 Multiplicity = 1

 SCF Done:  E(RB3LYP) =  -423.160854425     A.U. after   14 cycles
 Optimization completed.
    -- Stationary point found.
 Normal termination of Gaussian 09 at Mon Jan 27 22:56:40 2020.

 ----------------------------------------------------------------------
 #N Geom=AllCheck Guess=TCheck SCRF=Check GenChk RB3LYP/6-31G(2df,p) Fr
 eq
 ----------------------------------------------------------------------

 Structure from the checkpoint file:  "/scratch/puck/g09_fb33b997-74e4-4ed5-b19c-449befed50dc/Gau-65259.chk"
 -----
 titel
 -----
 Charge =  0 Multiplicity = 1

                         Standard orientation:
 ---------------------------------------------------------------------
 Center     Atomic      Atomic             Coordinates (Angstroms)
 Number     Number       Type             X           Y           Z
 ---------------------------------------------------------------------
      1          6           0        2.945872    0.090662   -0.036277
      2          6           0        1.598107   -0.448150    0.396136
      3          6           0        0.630014   -0.883771   -0.687344
      4          6           0       -0.606716   -1.530729   -0.053718
      5          6           0       -0.886895   -0.218994    0.739228
      6          6           0       -2.149285    0.506674    0.332334
      7          8           0       -2.940325    0.118691   -0.488832
      8          6           0        0.384991    0.395492    0.097660
      9          8           0        0.458592    1.703141   -0.349331
     10          1           0        3.379974    0.743454    0.730137
     11          1           0        3.653258   -0.726306   -0.211317
     12          1           0        2.862125    0.671246   -0.958857
     13          1           0        1.615117   -1.023371    1.323075
     14          1           0        0.955208   -1.003461   -1.713687
     15          1           0       -1.413909   -1.724092   -0.761930
     16          1           0       -0.421262   -2.423995    0.549954
     17          1           0       -0.862354   -0.266892    1.836777
     18          1           0       -2.305805    1.474175    0.859062
     19          1           0        0.894988    2.237489    0.323969
 ---------------------------------------------------------------------

 SCF Done:  E(RB3LYP) =  -423.160854425     A.U. after    1 cycles

 The electronic state is 1-A.
 Alpha  occ. eigenvalues --  -19.15994 -19.13806 -10.26796 -10.24904 -10.19844
 Alpha  occ. eigenvalues --  -10.19814 -10.19177 -10.18597 -10.18513  -1.04717
 Alpha  occ. eigenvalues --   -1.04225  -0.89620  -0.77176  -0.70397  -0.66910
 Alpha  occ. eigenvalues --   -0.59220  -0.58512  -0.53912  -0.50638  -0.48794
 Alpha  occ. eigenvalues --   -0.48199  -0.44535  -0.42987  -0.41487  -0.39856
 Alpha  occ. eigenvalues --   -0.39399  -0.37762  -0.36898  -0.35650  -0.33562
 Alpha  occ. eigenvalues --   -0.31644  -0.26881  -0.25611  -0.24523
 Alpha virt. eigenvalues --   -0.01968   0.06243   0.10500   0.10756   0.11436
 Alpha virt. eigenvalues --    0.13177   0.13783   0.14779   0.15476   0.16475
 Alpha virt. eigenvalues --    0.17011   0.18428   0.19752   0.20577   0.22058

 Mulliken charges:
               1
     1  C   -0.432638
     2  C   -0.073404
     3  C   -0.107949
     4  C   -0.257054
     5  C   -0.184683
     6  C    0.153487
     7  O   -0.238585
     8  C    0.384576
     9  O   -0.458411
    10  H    0.111303
    11  H    0.123969
    12  H    0.133173
    13  H    0.074477
    14  H    0.094885
    15  H    0.135925
    16  H    0.096169
    17  H    0.078574
    18  H    0.076313
    19  H    0.289873
 Sum of Mulliken charges =   0.00000

 Dipole moment (field-independent basis, Debye):
    X=              2.7605    Y=              0.3817    Z=              2.3820  Tot=              3.6660
 Quadrupole moment (field-independent basis, Debye-Ang):
   XX=            -59.5529   YY=            -50.9391   ZZ=            -52.1763
   XY=              0.8873   XZ=             -3.1800   YZ=              3.1787

  Exact polarizability:  90.748   0.043  74.124   2.014   4.136  65.304
 Approx polarizability: 117.653   1.458 110.723   9.284   7.805 106.933

                      1                      2                      3
                      A                      A                      A
 Frequencies --     69.7006               123.9833               176.1113
 Red. masses --      6.1065                 3.8838                 1.3253
 Frc consts  --      0.0175                 0.0352                 0.0242
 IR Inten    --      3.0062                 1.1601                 6.9730

                      4                      5                      6
                      A                      A                      A
 Frequencies --    191.4217               228.8881               257.0159
 Red. masses --      1.9926                 2.4124                 2.6116
 Frc consts  --      0.0430                 0.0745                 0.1016
 IR Inten    --      0.6380                 0.1760                 1.0108

                      7                      8                      9
                      A                      A                      A
 Frequencies --    269.8265               324.5775               382.8027
 Red. masses --      1.3291                 2.8039                 2.8028
 Frc consts  --      0.0570                 0.1740                 0.2420
 IR Inten    --     99.2629                 6.5575                 7.9749

                     10                     11                     12
                      A                      A                      A
 Frequencies --    417.3084               525.3294               641.0196
 Red. masses --      3.0945                 3.2346                 4.3490
 Frc consts  --      0.3175                 0.5259                 1.0529
 IR Inten    --      1.2981                 4.4315                10.0993

                     13                     14                     15
                      A                      A                      A
 Frequencies --    688.9676               733.0968               789.9479
 Red. masses --      2.5758                 3.7832                 2.5147
 Frc consts  --      0.7204                 1.1979                 0.9246
 IR Inten    --      0.6115                 6.1578                 3.5736

                     16                     17                     18
                      A                      A                      A
 Frequencies --    844.1864               886.4386               940.1941
 Red. masses --      3.4152                 1.6854                 1.8287
 Frc consts  --      1.4340                 0.7803                 0.9524
 IR Inten    --     14.7657                 9.7757                 2.6435

                     19                     20                     21
                      A                      A                      A
 Frequencies --    976.3544               989.8984              1013.6372
 Red. masses --      1.5268                 1.4537                 1.5617
 Frc consts  --      0.8575                 0.8393                 0.9454
 IR Inten    --      0.3676                 5.6219                 5.8728

                     22                     23                     24
                      A                      A                      A
 Frequencies --   1039.3814              1048.7238              1072.7608
 Red. masses --      2.5528                 1.7232                 2.2098
 Frc consts  --      1.6248                 1.1167                 1.4983
 IR Inten    --      8.6712                31.7024                19.8775

                     25                     26                     27
                      A                      A                      A
 Frequencies --   1113.9064              1144.5251              1176.2296
 Red. masses --      2.0388                 1.6445                 1.6297
 Frc consts  --      1.4905                 1.2692                 1.3285
 IR Inten    --      7.6552                 0.3925                16.4619

                     28                     29                     30
                      A                      A                      A
 Frequencies --   1194.3633              1201.5644              1241.5642
 Red. masses --      1.3491                 1.8898                 1.7700
 Frc consts  --      1.1339                 1.6076                 1.6076
 IR Inten    --      0.3296                47.7026                21.8496

                     31                     32                     33
                      A                      A                      A
 Frequencies --   1272.1243              1291.5299              1338.8353
 Red. masses --      1.6147                 1.4424                 1.7080
 Frc consts  --      1.5395                 1.4176                 1.8038
 IR Inten    --     27.5262                42.1727                30.0143

                     34                     35                     36
                      A                      A                      A
 Frequencies --   1362.1774              1415.4799              1422.8026
 Red. masses --      1.7314                 1.3062                 1.2102
 Frc consts  --      1.8928                 1.5420                 1.4434
 IR Inten    --      3.3674                 1.5598                11.6519

                     37                     38                     39
                      A                      A                      A
 Frequencies --   1432.6868              1488.7263              1494.7149
 Red. masses --      2.6378                 1.1320                 1.0480
 Frc consts  --      3.1900                 1.4781                 1.3796
 IR Inten    --      9.5373                 6.8436                 2.4988

                     40                     41                     42
                      A                      A                      A
 Frequencies --   1507.5861              1826.2819              2882.9914
 Red. masses --      1.1103                10.3643                 1.0828
 Frc consts  --      1.4868                20.3669                 5.3024
 IR Inten    --      8.9245               154.7173               120.2114

                     43                     44                     45
                      A                      A                      A
 Frequencies --   3012.2881              3030.4399              3057.5507
 Red. masses --      1.0832                 1.0381                 1.0628
 Frc consts  --      5.7912                 5.6171                 5.8538
 IR Inten    --     37.3173                37.0568                40.1000

                     46                     47                     48
                      A                      A                      A
 Frequencies --   3083.9091              3088.9656              3119.6855
 Red. masses --      1.0882                 1.0986                 1.0999
 Frc consts  --      6.0975                 6.1763                 6.3070
 IR Inten    --     17.2811                24.0409                22.5344

                     49                     50                     51
                      A                      A                      A
 Frequencies --   3129.0802              3188.9527              3786.5304
 Red. masses --      1.1031                 1.0929                 1.0663
 Frc consts  --      6.3634                 6.5484                 9.0077
 IR Inten    --      5.6178                10.8085                22.2650

 - Thermochemistry -
 -------------------
 Temperature   298.150 Kelvin.  Pressure   1.00000 Atm.
 Atom     1 has atomic number  6 and mass  12.00000

 Molecular mass:   126.06808 amu.
 Principal axes and moments of inertia in atomic units:
                           1         2         3
     Eigenvalues --   516.545451536.549761819.89331
           X            0.99996   0.00485  -0.00764
           Y           -0.00467   0.99972   0.02320
           Z            0.00775  -0.02316   0.99970
 This molecule is an asymmetric top.
 Rotational symmetry number  1.
 Warning -- assumption of classical behavior for rotation
           may cause significant error
 Rotational temperatures (Kelvin)      0.16768     0.05637     0.04759
 Rotational constants (GHZ):           3.49387     1.17454     0.99167
 Zero-point vibrational energy     412335.2 (Joules/Mol)
                                   98.55048 (Kcal/Mol)
 Warning -- explicit consideration of  11 degrees of freedom as
           vibrations may cause significant error
 Vibrational temperatures:    100.28   178.38   253.38   275.41   329.32
          (Kelvin)            369.79   388.22   466.99   550.77   600.41
                              755.83   922.28   991.27  1054.76  1136.56
                             1214.59  1275.39  1352.73  1404.75  1424.24
                             1458.40  1495.44  1508.88  1543.46  1602.66
                             1646.71  1692.33  1718.42  1728.78  1786.33
                             1830.30  1858.22  1926.28  1959.87  2036.56
                             2047.09  2061.31  2141.94  2150.56  2169.08
                             2627.61  4147.98  4334.01  4360.12  4399.13
                             4437.05  4444.33  4488.53  4502.04  4588.19
                             5447.97

 Zero-point correction=                           0.157050 (Hartree/Particle)
 Thermal correction to Energy=                    0.166209
 Thermal correction to Enthalpy=                  0.167153
 Thermal correction to Gibbs Free Energy=         0.123184
 Sum of electronic and zero-point Energies=           -423.003804
 Sum of electronic and thermal Energies=              -422.994645
 Sum of electronic and thermal Enthalpies=            -422.993701
 Sum of electronic and thermal Free Energies=         -423.037670

                     E (Thermal)             CV                S
                      KCal/Mol        Cal/Mol-Kelvin    Cal/Mol-Kelvin
 Total                  104.298             33.953             92.540
 Electronic               0.000              0.000              0.000
 Translational            0.889              2.981             40.409
 Rotational               0.889              2.981             28.759
 Vibrational            102.520             27.992             23.373
 Vibration     1          0.598              1.969              4.162
 Vibration     2          0.610              1.929              3.037
 Vibration     3          0.628              1.872              2.369
 Vibration     4          0.634              1.852              2.214
 Vibration     5          0.652              1.797              1.888
 Vibration     6          0.667              1.751              1.682
 Vibration     7          0.674              1.729              1.597
 Vibration     8          0.709              1.626              1.287
 Vibration     9          0.752              1.507              1.028
 Vibration    10          0.780              1.433              0.901
 Vibration    11          0.880              1.194              0.598

 Optimization completed.
    -- Stationary point found.
 Normal termination of Gaussian 09 at Mon Jan 27 23:38:49 2020.
