 Gaussian 09, Revision D.01,
 Gaussian 09:  ES64L-G09RevD.01 24-Apr-2013

 -----------------------------
 # b3lyp 6-31G(2df,p) opt Freq
 -----------------------------

 -----
 titel
 -----
 Symbolic Z-matrix:
 Charge =  0 Multiplicity = 1

 SCF Done:  E(RB3LYP) =  -423.142613928     A.U. after   15 cycles
 Optimization completed.
    -- Stationary point found.
 Normal termination of Gaussian 09 at Mon Jan 27 14:25:48 2020.

 ----------------------------------------------------------------------
 #N Geom=AllCheck Guess=TCheck SCRF=Check GenChk RB3LYP/6-31G(2df,p) Fr
 eq
 ----------------------------------------------------------------------

 Structure from the checkpoint file:  "/scratch/puck/g09_a536a9d6-9c91-48f0-9fe2-efc6e491b7f0/Gau-54642.chk"
 -----
 titel
 -----
 Charge =  0 Multiplicity = 1

                         Standard orientation:
 ---------------------------------------------------------------------
 Center     Atomic      Atomic             Coordinates (Angstroms)
 Number     Number       Type             X           Y           Z
 ---------------------------------------------------------------------
      1          6           0        1.297650    1.296157    0.875673
      2          6           0        0.722044    0.095230    0.116800
      3          6           0        0.247848   -1.010229    1.077537
      4          8           0       -0.277135    0.479549   -0.834332
      5          6           0       -1.505197    0.997256   -0.350192
      6          6           0       -2.534661   -0.021968   -0.129677
      7          6           0       -3.396535   -0.843824    0.031548
      8          6           0        1.808059   -0.523025   -0.773770
      9          8           0        2.945512   -0.697081   -0.425819
     10          1           0        0.610715    1.658558    1.645941
     11          1           0        2.229867    0.997011    1.360404
     12          1           0        1.514918    2.113768    0.182858
     13          1           0       -0.539568   -0.642864    1.740982
     14          1           0       -0.147690   -1.866600    0.525046
     15          1           0        1.091158   -1.341860    1.689365
     16          1           0       -1.363218    1.585289    0.565876
     17          1           0       -1.856734    1.695136   -1.119064
     18          1           0       -4.156282   -1.571462    0.178201
     19          1           0        1.434569   -0.824301   -1.775916
 ---------------------------------------------------------------------

 SCF Done:  E(RB3LYP) =  -423.142613928     A.U. after    1 cycles

 The electronic state is 1-A.
 Alpha  occ. eigenvalues --  -19.15548 -19.14592 -10.27043 -10.26370 -10.25380
 Alpha  occ. eigenvalues --  -10.19010 -10.18655 -10.18435 -10.18419  -1.05720
 Alpha  occ. eigenvalues --   -1.04342  -0.80980  -0.76707  -0.70600  -0.70148
 Alpha  occ. eigenvalues --   -0.64295  -0.55628  -0.53777  -0.51840  -0.48765
 Alpha  occ. eigenvalues --   -0.48160  -0.45109  -0.44266  -0.42611  -0.41493
 Alpha  occ. eigenvalues --   -0.40384  -0.38421  -0.37594  -0.36071  -0.33268
 Alpha  occ. eigenvalues --   -0.28838  -0.27529  -0.27126  -0.25340
 Alpha virt. eigenvalues --   -0.02714   0.02839   0.04658   0.08195   0.11732
 Alpha virt. eigenvalues --    0.11964   0.12612   0.14586   0.15121   0.15853
 Alpha virt. eigenvalues --    0.17390   0.18064   0.18782   0.19426   0.20129

 Mulliken charges:
               1
     1  C   -0.422894
     2  C    0.264010
     3  C   -0.424117
     4  O   -0.279451
     5  C   -0.246142
     6  C    0.329715
     7  C   -0.463392
     8  C    0.144042
     9  O   -0.258667
    10  H    0.115160
    11  H    0.146151
    12  H    0.126666
    13  H    0.128298
    14  H    0.133763
    15  H    0.135828
    16  H    0.126353
    17  H    0.143434
    18  H    0.204453
    19  H    0.096789
 Sum of Mulliken charges =   0.00000

 Dipole moment (field-independent basis, Debye):
    X=             -2.2646    Y=              0.6993    Z=              0.9819  Tot=              2.5654
 Quadrupole moment (field-independent basis, Debye-Ang):
   XX=            -59.5995   YY=            -49.9739   ZZ=            -53.2317
   XY=              3.6581   XZ=              0.1967   YZ=             -0.2937

  Exact polarizability:  96.095   8.686  72.092   0.099  -0.493  63.984
 Approx polarizability: 134.991  16.908 109.031  -0.365  -2.919  96.000

                      1                      2                      3
                      A                      A                      A
 Frequencies --     27.8605                54.0135                94.5065
 Red. masses --      3.7819                 3.6356                 3.5530
 Frc consts  --      0.0017                 0.0062                 0.0187
 IR Inten    --      0.3941                 7.3796                 3.7019

                      4                      5                      6
                      A                      A                      A
 Frequencies --    195.9510               210.3642               225.9601
 Red. masses --      2.1150                 2.6608                 1.6652
 Frc consts  --      0.0478                 0.0694                 0.0501
 IR Inten    --      1.1114                 2.6651                 1.6509

                      7                      8                      9
                      A                      A                      A
 Frequencies --    264.5438               294.0406               297.8648
 Red. masses --      1.1114                 2.0440                 2.7892
 Frc consts  --      0.0458                 0.1041                 0.1458
 IR Inten    --      1.2685                 1.5514                 2.4660

                     10                     11                     12
                      A                      A                      A
 Frequencies --    327.0514               365.5306               385.1850
 Red. masses --      2.7692                 2.5365                 3.8500
 Frc consts  --      0.1745                 0.1997                 0.3366
 IR Inten    --      5.1035                 0.8887                 0.3853

                     13                     14                     15
                      A                      A                      A
 Frequencies --    437.4220               595.4438               607.7783
 Red. masses --      3.8050                 4.6811                 4.2672
 Frc consts  --      0.4290                 0.9779                 0.9287
 IR Inten    --      5.8745                 9.7832                12.6443

                     16                     17                     18
                      A                      A                      A
 Frequencies --    621.2899               679.4049               752.4625
 Red. masses --      1.2189                 1.2428                 3.6504
 Frc consts  --      0.2772                 0.3380                 1.2178
 IR Inten    --     41.2155                36.8808                 3.4221

                     19                     20                     21
                      A                      A                      A
 Frequencies --    862.8955               911.5751               931.8728
 Red. masses --      2.5591                 1.9361                 3.8700
 Frc consts  --      1.1227                 0.9479                 1.9800
 IR Inten    --     32.0957                 0.8088                13.4606

                     22                     23                     24
                      A                      A                      A
 Frequencies --    952.0888               983.8136              1035.7953
 Red. masses --      1.4730                 1.7930                 1.6065
 Frc consts  --      0.7867                 1.0225                 1.0155
 IR Inten    --      4.7110                21.8392                 2.8132

                     25                     26                     27
                      A                      A                      A
 Frequencies --   1041.0382              1088.7727              1193.5614
 Red. masses --      1.8297                 5.1772                 2.5491
 Frc consts  --      1.1683                 3.6160                 2.1396
 IR Inten    --      1.2895               125.9359                93.2737

                     28                     29                     30
                      A                      A                      A
 Frequencies --   1202.4761              1258.6041              1306.9099
 Red. masses --      3.0128                 2.1757                 1.3129
 Frc consts  --      2.5667                 2.0306                 1.3212
 IR Inten    --     59.9923                 1.6938                14.5835

                     31                     32                     33
                      A                      A                      A
 Frequencies --   1380.2710              1389.3894              1396.1391
 Red. masses --      1.2052                 1.2303                 1.2452
 Frc consts  --      1.3528                 1.3993                 1.4301
 IR Inten    --      6.0786                15.3096                11.4814

                     34                     35                     36
                      A                      A                      A
 Frequencies --   1412.3380              1475.4838              1478.8818
 Red. masses --      1.2237                 1.0726                 1.0460
 Frc consts  --      1.4381                 1.3758                 1.3478
 IR Inten    --     27.8457                 3.4142                 0.8349

                     37                     38                     39
                      A                      A                      A
 Frequencies --   1482.8189              1499.8316              1505.3401
 Red. masses --      1.0529                 1.0587                 1.0634
 Frc consts  --      1.3640                 1.4031                 1.4198
 IR Inten    --      0.5665                10.4423                 7.3921

                     40                     41                     42
                      A                      A                      A
 Frequencies --   1839.3087              2235.1020              2911.0246
 Red. masses --     10.7165                 5.8788                 1.0854
 Frc consts  --     21.3606                17.3033                 5.4192
 IR Inten    --    137.4364                 2.1961                79.1416

                     43                     44                     45
                      A                      A                      A
 Frequencies --   3020.6552              3043.9105              3047.8154
 Red. masses --      1.0594                 1.0341                 1.0357
 Frc consts  --      5.6950                 5.6452                 5.6684
 IR Inten    --     20.1471                13.9685                11.2767

                     46                     47                     48
                      A                      A                      A
 Frequencies --   3059.6613              3117.2334              3122.1682
 Red. masses --      1.0999                 1.1022                 1.1021
 Frc consts  --      6.0667                 6.3105                 6.3299
 IR Inten    --     12.6102                12.6374                19.2992

                     49                     50                     51
                      A                      A                      A
 Frequencies --   3128.3251              3135.3570              3502.8687
 Red. masses --      1.1027                 1.1009                 1.1631
 Frc consts  --      6.3581                 6.3766                 8.4086
 IR Inten    --     11.5339                12.8392                60.5862

 - Thermochemistry -
 -------------------
 Temperature   298.150 Kelvin.  Pressure   1.00000 Atm.
 Atom     1 has atomic number  6 and mass  12.00000

 Molecular mass:   126.06808 amu.
 Principal axes and moments of inertia in atomic units:
                           1         2         3
     Eigenvalues --   542.341631945.873632048.16076
           X            0.99987   0.01405   0.00750
           Y           -0.01415   0.99980   0.01392
           Z           -0.00730  -0.01402   0.99988
 This molecule is an asymmetric top.
 Rotational symmetry number  1.
 Warning -- assumption of classical behavior for rotation
           may cause significant error
 Rotational temperatures (Kelvin)      0.15970     0.04451     0.04229
 Rotational constants (GHZ):           3.32768     0.92747     0.88115
 Zero-point vibrational energy     403081.7 (Joules/Mol)
                                   96.33884 (Kcal/Mol)
 Warning -- explicit consideration of  15 degrees of freedom as
           vibrations may cause significant error
 Vibrational temperatures:     40.09    77.71   135.97   281.93   302.67
          (Kelvin)            325.11   380.62   423.06   428.56   470.55
                              525.92   554.19   629.35   856.71   874.46
                              893.90   977.51  1082.62  1241.51  1311.55
                             1340.76  1369.84  1415.49  1490.28  1497.82
                             1566.50  1717.27  1730.09  1810.85  1880.35
                             1985.90  1999.02  2008.73  2032.04  2122.89
                             2127.78  2133.44  2157.92  2165.85  2646.35
                             3215.81  4188.31  4346.04  4379.50  4385.12
                             4402.16  4485.00  4492.10  4500.96  4511.07
                             5039.84

 Zero-point correction=                           0.153526 (Hartree/Particle)
 Thermal correction to Energy=                    0.164224
 Thermal correction to Enthalpy=                  0.165168
 Thermal correction to Gibbs Free Energy=         0.116866
 Sum of electronic and zero-point Energies=           -422.989088
 Sum of electronic and thermal Energies=              -422.978390
 Sum of electronic and thermal Enthalpies=            -422.977446
 Sum of electronic and thermal Free Energies=         -423.025748

                     E (Thermal)             CV                S
                      KCal/Mol        Cal/Mol-Kelvin    Cal/Mol-Kelvin
 Total                  103.052             38.011            101.661
 Electronic               0.000              0.000              0.000
 Translational            0.889              2.981             40.409
 Rotational               0.889              2.981             29.159
 Vibrational            101.275             32.050             32.093
 Vibration     1          0.593              1.984              5.976
 Vibration     2          0.596              1.976              4.665
 Vibration     3          0.603              1.953              3.565
 Vibration     4          0.636              1.846              2.171
 Vibration     5          0.643              1.825              2.041
 Vibration     6          0.650              1.801              1.911
 Vibration     7          0.671              1.738              1.632
 Vibration     8          0.689              1.685              1.451
 Vibration     9          0.691              1.678              1.429
 Vibration    10          0.711              1.621              1.275
 Vibration    11          0.739              1.543              1.098
 Vibration    12          0.754              1.502              1.019
 Vibration    13          0.798              1.389              0.835
 Vibration    14          0.953              1.041              0.458
 Vibration    15          0.967              1.015              0.436

 Optimization completed.
    -- Stationary point found.
 Normal termination of Gaussian 09 at Mon Jan 27 15:03:15 2020.
