 Gaussian 09, Revision D.01,
 Gaussian 09:  ES64L-G09RevD.01 24-Apr-2013

 -----------------------------
 # b3lyp 6-31G(2df,p) opt Freq
 -----------------------------

 -----
 titel
 -----
 Symbolic Z-matrix:
 Charge =  0 Multiplicity = 1

 SCF Done:  E(RB3LYP) =  -423.127488821     A.U. after   14 cycles
 Optimization completed.
    -- Stationary point found.
 Normal termination of Gaussian 09 at Mon Jan 27 22:52:56 2020.

 ----------------------------------------------------------------------
 #N Geom=AllCheck Guess=TCheck SCRF=Check GenChk RB3LYP/6-31G(2df,p) Fr
 eq
 ----------------------------------------------------------------------

 Structure from the checkpoint file:  "/scratch/puck/g09_c34456c9-4278-4454-bc76-7ae2d888e387/Gau-183119.chk"
 -----
 titel
 -----
 Charge =  0 Multiplicity = 1

                         Standard orientation:
 ---------------------------------------------------------------------
 Center     Atomic      Atomic             Coordinates (Angstroms)
 Number     Number       Type             X           Y           Z
 ---------------------------------------------------------------------
      1          6           0        0.959446    1.860198   -0.313808
      2          6           0        0.458623    0.521971    0.145859
      3          6           0        1.379245   -0.630710    0.436765
      4          8           0        2.686240   -0.452590   -0.028562
      5          6           0        0.305575   -0.826741   -0.607653
      6          6           0       -1.010718   -1.089003    0.093460
      7          8           0       -2.155291   -0.584119   -0.619927
      8          6           0       -2.116966    0.667362    0.099916
      9          6           0       -0.855022    0.259659    0.882454
     10          1           0        0.235444    2.362346   -0.964129
     11          1           0        1.149955    2.518056    0.543093
     12          1           0        1.896645    1.747740   -0.862598
     13          1           0        1.312361   -1.153813    1.395372
     14          1           0        2.999512   -1.297123   -0.367924
     15          1           0        0.553744   -1.074087   -1.633745
     16          1           0       -1.202110   -2.073708    0.531163
     17          1           0       -2.026095    1.532918   -0.567414
     18          1           0       -3.011737    0.792453    0.722877
     19          1           0       -0.876415    0.362465    1.969258
 ---------------------------------------------------------------------

 SCF Done:  E(RB3LYP) =  -423.127488821     A.U. after    1 cycles

 The electronic state is 1-A.
 Alpha  occ. eigenvalues --  -19.14897 -19.12844 -10.23800 -10.23522 -10.22821
 Alpha  occ. eigenvalues --  -10.20013 -10.19364 -10.18755 -10.17497  -1.03966
 Alpha  occ. eigenvalues --   -1.03246  -0.88314  -0.72918  -0.72192  -0.67579
 Alpha  occ. eigenvalues --   -0.60674  -0.58028  -0.52239  -0.50802  -0.50225
 Alpha  occ. eigenvalues --   -0.48449  -0.44990  -0.42431  -0.41801  -0.40582
 Alpha  occ. eigenvalues --   -0.40133  -0.37551  -0.34475  -0.33313  -0.31153
 Alpha  occ. eigenvalues --   -0.29459  -0.27302  -0.25115  -0.23699
 Alpha virt. eigenvalues --    0.07191   0.08045   0.09904   0.11080   0.12567
 Alpha virt. eigenvalues --    0.12946   0.13424   0.15245   0.16291   0.16902
 Alpha virt. eigenvalues --    0.18020   0.19136   0.20281   0.20542   0.21606

 Mulliken charges:
               1
     1  C   -0.507984
     2  C    0.340399
     3  C    0.036626
     4  O   -0.433634
     5  C   -0.186421
     6  C    0.110648
     7  O   -0.293904
     8  C   -0.084764
     9  C   -0.169540
    10  H    0.117817
    11  H    0.118103
    12  H    0.141552
    13  H    0.077705
    14  H    0.290721
    15  H    0.093048
    16  H    0.074892
    17  H    0.101829
    18  H    0.100131
    19  H    0.072777
 Sum of Mulliken charges =   0.00000

 Dipole moment (field-independent basis, Debye):
    X=              0.8375    Y=             -0.4198    Z=              0.7782  Tot=              1.2179
 Quadrupole moment (field-independent basis, Debye-Ang):
   XX=            -56.9927   YY=            -49.4945   ZZ=            -52.7676
   XY=             -6.4610   XZ=             -4.4860   YZ=             -0.1140

  Exact polarizability:  84.158  -3.431  76.761  -2.804   0.135  64.056
 Approx polarizability: 113.229  -3.653 113.270  -0.571   4.217 100.897

                      1                      2                      3
                      A                      A                      A
 Frequencies --    139.7689               183.0292               189.4771
 Red. masses --      3.1323                 1.3281                 2.2628
 Frc consts  --      0.0361                 0.0262                 0.0479
 IR Inten    --      2.4401                 0.4513                 1.9977

                      4                      5                      6
                      A                      A                      A
 Frequencies --    250.4132               257.9474               288.5517
 Red. masses --      2.7959                 1.9887                 1.6147
 Frc consts  --      0.1033                 0.0780                 0.0792
 IR Inten    --     27.3260                16.7428                53.0510

                      7                      8                      9
                      A                      A                      A
 Frequencies --    343.3068               416.2195               446.9323
 Red. masses --      2.2138                 2.9028                 5.1823
 Frc consts  --      0.1537                 0.2963                 0.6099
 IR Inten    --     19.5754                 1.8355                 0.8251

                     10                     11                     12
                      A                      A                      A
 Frequencies --    527.0908               639.0835               710.6033
 Red. masses --      3.6589                 3.8553                 3.0200
 Frc consts  --      0.5989                 0.9277                 0.8985
 IR Inten    --      6.2062                 2.9416                 1.4967

                     13                     14                     15
                      A                      A                      A
 Frequencies --    805.3476               827.0566               884.9723
 Red. masses --      2.1216                 2.5269                 2.3750
 Frc consts  --      0.8107                 1.0184                 1.0959
 IR Inten    --      2.7956                 3.8866                 5.5828

                     16                     17                     18
                      A                      A                      A
 Frequencies --    902.6224               940.5173               982.5523
 Red. masses --      3.1582                 1.6043                 2.3241
 Frc consts  --      1.5160                 0.8361                 1.3219
 IR Inten    --      6.8371                 4.2875                12.4084

                     19                     20                     21
                      A                      A                      A
 Frequencies --   1004.9889              1016.4865              1030.6625
 Red. masses --      1.7973                 4.2302                 1.8869
 Frc consts  --      1.0695                 2.5752                 1.1809
 IR Inten    --      9.6267                59.3226                59.1317

                     22                     23                     24
                      A                      A                      A
 Frequencies --   1043.0431              1073.8353              1083.4302
 Red. masses --      2.4473                 2.9523                 1.2355
 Frc consts  --      1.5687                 2.0058                 0.8545
 IR Inten    --     17.2264                 8.3720                 7.8114

                     25                     26                     27
                      A                      A                      A
 Frequencies --   1119.6519              1143.1368              1164.8876
 Red. masses --      2.0495                 2.2938                 1.3297
 Frc consts  --      1.5138                 1.7660                 1.0631
 IR Inten    --      5.0557                16.9056                 1.5777

                     28                     29                     30
                      A                      A                      A
 Frequencies --   1187.4805              1204.6164              1222.2123
 Red. masses --      1.7403                 1.8117                 1.7643
 Frc consts  --      1.4459                 1.5490                 1.5528
 IR Inten    --     19.0518                11.5244                13.1598

                     31                     32                     33
                      A                      A                      A
 Frequencies --   1254.0305              1285.4089              1313.2241
 Red. masses --      1.6816                 1.2986                 1.8170
 Frc consts  --      1.5580                 1.2642                 1.8462
 IR Inten    --      0.5603                80.6425                 0.5226

                     34                     35                     36
                      A                      A                      A
 Frequencies --   1315.7425              1355.2505              1366.0018
 Red. masses --      1.4183                 1.7093                 1.5508
 Frc consts  --      1.4466                 1.8498                 1.7050
 IR Inten    --      1.0135                 2.7744                10.5508

                     37                     38                     39
                      A                      A                      A
 Frequencies --   1415.1648              1451.9198              1492.5263
 Red. masses --      1.4072                 2.4802                 1.0476
 Frc consts  --      1.6605                 3.0805                 1.3750
 IR Inten    --      2.8299                 5.8637                 5.3467

                     40                     41                     42
                      A                      A                      A
 Frequencies --   1495.1135              1522.6744              3011.4035
 Red. masses --      1.0848                 1.0970                 1.0558
 Frc consts  --      1.4287                 1.4985                 5.6413
 IR Inten    --      5.6794                 1.5708                73.4898

                     43                     44                     45
                      A                      A                      A
 Frequencies --   3027.5654              3044.6255              3053.8141
 Red. masses --      1.0403                 1.0870                 1.1086
 Frc consts  --      5.6183                 5.9368                 6.0912
 IR Inten    --     39.8488                33.3624                48.2811

                     46                     47                     48
                      A                      A                      A
 Frequencies --   3057.2336              3083.4837              3088.2974
 Red. masses --      1.0871                 1.0985                 1.0897
 Frc consts  --      5.9865                 6.1534                 6.1236
 IR Inten    --     53.5015                19.4315                63.0831

                     49                     50                     51
                      A                      A                      A
 Frequencies --   3130.8678              3180.0298              3811.0794
 Red. masses --      1.0973                 1.0926                 1.0664
 Frc consts  --      6.3371                 6.5101                 9.1257
 IR Inten    --      7.7126                11.8926                28.1304

 - Thermochemistry -
 -------------------
 Temperature   298.150 Kelvin.  Pressure   1.00000 Atm.
 Atom     1 has atomic number  6 and mass  12.00000

 Molecular mass:   126.06808 amu.
 Principal axes and moments of inertia in atomic units:
                           1         2         3
     Eigenvalues --   532.565961318.894751597.56663
           X            0.99980  -0.01201  -0.01569
           Y            0.01153   0.99946  -0.03072
           Z            0.01605   0.03054   0.99940
 This molecule is an asymmetric top.
 Rotational symmetry number  1.
 Warning -- assumption of classical behavior for rotation
           may cause significant error
 Rotational temperatures (Kelvin)      0.16263     0.06567     0.05422
 Rotational constants (GHZ):           3.38877     1.36837     1.12968
 Zero-point vibrational energy     417409.3 (Joules/Mol)
                                   99.76321 (Kcal/Mol)
 Warning -- explicit consideration of  10 degrees of freedom as
           vibrations may cause significant error
 Vibrational temperatures:    201.10   263.34   272.61   360.29   371.13
          (Kelvin)            415.16   493.94   598.85   643.04   758.37
                              919.50  1022.40  1158.71  1189.95  1273.28
                             1298.67  1353.19  1413.67  1445.95  1462.50
                             1482.89  1500.70  1545.01  1558.81  1610.93
                             1644.72  1676.01  1708.52  1733.17  1758.49
                             1804.27  1849.41  1889.43  1893.06  1949.90
                             1965.37  2036.10  2088.99  2147.41  2151.13
                             2190.79  4332.73  4355.99  4380.53  4393.75
                             4398.67  4436.44  4443.37  4504.61  4575.35
                             5483.29

 Zero-point correction=                           0.158983 (Hartree/Particle)
 Thermal correction to Energy=                    0.167157
 Thermal correction to Enthalpy=                  0.168101
 Thermal correction to Gibbs Free Energy=         0.126673
 Sum of electronic and zero-point Energies=           -422.968506
 Sum of electronic and thermal Energies=              -422.960332
 Sum of electronic and thermal Enthalpies=            -422.959387
 Sum of electronic and thermal Free Energies=         -423.000816

                     E (Thermal)             CV                S
                      KCal/Mol        Cal/Mol-Kelvin    Cal/Mol-Kelvin
 Total                  104.893             31.864             87.194
 Electronic               0.000              0.000              0.000
 Translational            0.889              2.981             40.409
 Rotational               0.889              2.981             28.508
 Vibrational            103.115             25.902             18.277
 Vibration     1          0.615              1.914              2.807
 Vibration     2          0.631              1.863              2.297
 Vibration     3          0.633              1.854              2.233
 Vibration     4          0.663              1.762              1.728
 Vibration     5          0.667              1.749              1.676
 Vibration     6          0.685              1.695              1.482
 Vibration     7          0.722              1.589              1.197
 Vibration     8          0.779              1.435              0.905
 Vibration     9          0.806              1.368              0.805
 Vibration    10          0.882              1.190              0.594

 Normal termination of Gaussian 09 at Mon Jan 27 23:37:14 2020.
