 Gaussian 09, Revision D.01,
 Gaussian 09:  ES64L-G09RevD.01 24-Apr-2013

 -----------------------------
 # b3lyp 6-31G(2df,p) opt Freq
 -----------------------------

 -----
 titel
 -----
 Symbolic Z-matrix:
 Charge =  0 Multiplicity = 1

 SCF Done:  E(RB3LYP) =  -423.180055487     A.U. after   14 cycles
 Optimization completed.
    -- Stationary point found.
 Normal termination of Gaussian 09 at Mon Jan 27 13:50:51 2020.

 ----------------------------------------------------------------------
 #N Geom=AllCheck Guess=TCheck SCRF=Check GenChk RB3LYP/6-31G(2df,p) Fr
 eq
 ----------------------------------------------------------------------

 Structure from the checkpoint file:  "/scratch/puck/g09_e2937254-2fae-4759-9e70-0ec42e431e65/Gau-137634.chk"
 -----
 titel
 -----
 Charge =  0 Multiplicity = 1

                         Standard orientation:
 ---------------------------------------------------------------------
 Center     Atomic      Atomic             Coordinates (Angstroms)
 Number     Number       Type             X           Y           Z
 ---------------------------------------------------------------------
      1          8           0       -2.745212    0.462999   -0.111345
      2          6           0       -1.735662   -0.149145   -0.351384
      3          6           0       -0.565999   -0.290248    0.598831
      4          6           0       -0.022632   -1.735567    0.578882
      5          8           0        0.905537   -1.770236   -0.491465
      6          6           0        1.640707   -0.557894   -0.422730
      7          6           0        0.649359    0.503160    0.072337
      8          6           0        1.131179    1.761733    0.740952
      9          6           0        0.497373    1.835034   -0.624971
     10          1           0       -1.583468   -0.655967   -1.331848
     11          1           0       -0.882362    0.036667    1.592131
     12          1           0        0.462861   -1.969370    1.539534
     13          1           0       -0.786561   -2.493971    0.383611
     14          1           0        2.482702   -0.658272    0.281823
     15          1           0        2.044243   -0.353226   -1.418467
     16          1           0        0.569017    2.142492    1.587171
     17          1           0        2.204560    1.909158    0.816259
     18          1           0       -0.496338    2.264157   -0.700190
     19          1           0        1.136797    2.033781   -1.479046
 ---------------------------------------------------------------------

 SCF Done:  E(RB3LYP) =  -423.180055487     A.U. after    1 cycles

 The electronic state is 1-A.
 Alpha  occ. eigenvalues --  -19.15047 -19.13892 -10.26898 -10.24155 -10.23691
 Alpha  occ. eigenvalues --  -10.21435 -10.20279 -10.19697 -10.19620  -1.05139
 Alpha  occ. eigenvalues --   -1.04468  -0.87547  -0.78136  -0.71918  -0.64047
 Alpha  occ. eigenvalues --   -0.61238  -0.58711  -0.56087  -0.51027  -0.49626
 Alpha  occ. eigenvalues --   -0.47783  -0.46867  -0.43945  -0.43140  -0.42189
 Alpha  occ. eigenvalues --   -0.39797  -0.38392  -0.36948  -0.35834  -0.32929
 Alpha  occ. eigenvalues --   -0.30390  -0.29684  -0.26656  -0.24450
 Alpha virt. eigenvalues --   -0.02104   0.07970   0.08820   0.09825   0.10043
 Alpha virt. eigenvalues --    0.12946   0.13915   0.14153   0.15173   0.16646
 Alpha virt. eigenvalues --    0.16949   0.18445   0.19177   0.20326   0.21936

 Mulliken charges:
               1
     1  O   -0.267357
     2  C    0.170301
     3  C   -0.178622
     4  C   -0.116435
     5  O   -0.243211
     6  C   -0.148467
     7  C    0.313945
     8  C   -0.315396
     9  C   -0.315399
    10  H    0.086551
    11  H    0.094189
    12  H    0.101098
    13  H    0.118773
    14  H    0.094215
    15  H    0.114424
    16  H    0.122842
    17  H    0.115491
    18  H    0.135880
    19  H    0.117180
 Sum of Mulliken charges =   0.00000

 Dipole moment (field-independent basis, Debye):
    X=              2.2938    Y=              0.1212    Z=              0.7331  Tot=              2.4111
 Quadrupole moment (field-independent basis, Debye-Ang):
   XX=            -60.1970   YY=            -55.0015   ZZ=            -51.5273
   XY=              5.0819   XZ=             -0.0962   YZ=             -2.1519

  Exact polarizability:  82.087   0.779  76.570   0.104  -0.583  68.030
 Approx polarizability: 119.191  -4.275 107.780  -1.452   1.946 104.381

                      1                      2                      3
                      A                      A                      A
 Frequencies --     43.0966                71.3134               181.4621
 Red. masses --      2.8476                 5.5997                 4.5305
 Frc consts  --      0.0031                 0.0168                 0.0879
 IR Inten    --      0.3395                 6.2952                 7.3579

                      4                      5                      6
                      A                      A                      A
 Frequencies --    226.3219               270.1115               333.1940
 Red. masses --      2.3177                 2.2401                 2.0612
 Frc consts  --      0.0699                 0.0963                 0.1348
 IR Inten    --      3.2711                 2.1855                 0.8228

                      7                      8                      9
                      A                      A                      A
 Frequencies --    343.0264               428.8831               465.0654
 Red. masses --      2.0960                 4.5772                 3.1952
 Frc consts  --      0.1453                 0.4961                 0.4072
 IR Inten    --      0.4644                 1.6828                13.8345

                     10                     11                     12
                      A                      A                      A
 Frequencies --    514.2854               698.5061               782.6346
 Red. masses --      4.7124                 4.5147                 1.0551
 Frc consts  --      0.7343                 1.2978                 0.3808
 IR Inten    --      3.1950                 8.0955                 0.2454

                     13                     14                     15
                      A                      A                      A
 Frequencies --    813.1367               878.8515               905.2616
 Red. masses --      3.4290                 3.1237                 1.8628
 Frc consts  --      1.3358                 1.4215                 0.8994
 IR Inten    --      2.2666                 2.4307                12.2992

                     16                     17                     18
                      A                      A                      A
 Frequencies --    928.9630               940.7179               966.9575
 Red. masses --      1.4706                 1.9754                 2.7105
 Frc consts  --      0.7477                 1.0300                 1.4932
 IR Inten    --      2.2841                 3.5482                30.1440

                     19                     20                     21
                      A                      A                      A
 Frequencies --    970.5452               984.4055              1057.1495
 Red. masses --      2.1282                 2.8622                 1.5365
 Frc consts  --      1.1811                 1.6342                 1.0117
 IR Inten    --     13.2769                10.9707                 3.1530

                     22                     23                     24
                      A                      A                      A
 Frequencies --   1068.3722              1086.0204              1100.8665
 Red. masses --      1.4864                 1.5838                 2.5562
 Frc consts  --      0.9996                 1.1006                 1.8252
 IR Inten    --      2.1031                 3.5135                29.2291

                     25                     26                     27
                      A                      A                      A
 Frequencies --   1115.1693              1145.2414              1193.5682
 Red. masses --      3.2108                 2.2908                 1.2960
 Frc consts  --      2.3526                 1.7703                 1.0878
 IR Inten    --     43.2506                39.3416                 0.1056

                     28                     29                     30
                      A                      A                      A
 Frequencies --   1210.1073              1231.9906              1259.7479
 Red. masses --      1.2561                 1.5260                 1.7757
 Frc consts  --      1.0837                 1.3647                 1.6603
 IR Inten    --     12.1453                 3.7520                 2.3178

                     31                     32                     33
                      A                      A                      A
 Frequencies --   1271.5693              1302.1944              1330.2780
 Red. masses --      1.3976                 1.5090                 1.7310
 Frc consts  --      1.3314                 1.5076                 1.8049
 IR Inten    --      2.3757                 1.1417                 1.0093

                     34                     35                     36
                      A                      A                      A
 Frequencies --   1360.5241              1402.6357              1421.3581
 Red. masses --      1.5214                 1.4435                 1.2418
 Frc consts  --      1.6593                 1.6733                 1.4781
 IR Inten    --      2.1810                10.4480                 6.7582

                     37                     38                     39
                      A                      A                      A
 Frequencies --   1469.1801              1500.4539              1508.4668
 Red. masses --      1.0860                 1.2434                 1.1662
 Frc consts  --      1.3811                 1.6494                 1.5634
 IR Inten    --      2.3936                 0.1544                 1.5446

                     40                     41                     42
                      A                      A                      A
 Frequencies --   1522.2189              1826.9683              2874.7373
 Red. masses --      1.1042                10.0878                 1.0826
 Frc consts  --      1.5075                19.8385                 5.2711
 IR Inten    --      0.7542               180.2033                76.6671

                     43                     44                     45
                      A                      A                      A
 Frequencies --   2966.9101              2981.4120              3082.1785
 Red. masses --      1.0706                 1.0705                 1.0920
 Frc consts  --      5.5524                 5.6062                 6.1120
 IR Inten    --     56.5260                67.6046                32.3714

                     46                     47                     48
                      A                      A                      A
 Frequencies --   3086.2169              3089.4496              3122.1981
 Red. masses --      1.0942                 1.0868                 1.0525
 Frc consts  --      6.1402                 6.1116                 6.0450
 IR Inten    --     19.4004                11.2083                15.4555

                     49                     50                     51
                      A                      A                      A
 Frequencies --   3128.2161              3203.2354              3218.9810
 Red. masses --      1.0566                 1.1178                 1.1159
 Frc consts  --      6.0919                 6.7576                 6.8127
 IR Inten    --      8.5916                 0.8000                10.9706

 - Thermochemistry -
 -------------------
 Temperature   298.150 Kelvin.  Pressure   1.00000 Atm.
 Atom     1 has atomic number  8 and mass  15.99491

 Molecular mass:   126.06808 amu.
 Principal axes and moments of inertia in atomic units:
                           1         2         3
     Eigenvalues --   876.880701048.257481623.73900
           X            0.99106   0.13344   0.00116
           Y           -0.13341   0.99096  -0.01434
           Z           -0.00306   0.01406   0.99990
 This molecule is an asymmetric top.
 Rotational symmetry number  1.
 Warning -- assumption of classical behavior for rotation
           may cause significant error
 Rotational temperatures (Kelvin)      0.09877     0.08263     0.05334
 Rotational constants (GHZ):           2.05814     1.72166     1.11147
 Zero-point vibrational energy     418001.3 (Joules/Mol)
                                   99.90470 (Kcal/Mol)
 Warning -- explicit consideration of  10 degrees of freedom as
           vibrations may cause significant error
 Vibrational temperatures:     62.01   102.60   261.08   325.63   388.63
          (Kelvin)            479.39   493.54   617.07   669.12   739.94
                             1004.99  1126.04  1169.92  1264.47  1302.47
                             1336.57  1353.48  1391.23  1396.40  1416.34
                             1521.00  1537.15  1562.54  1583.90  1604.48
                             1647.74  1717.28  1741.07  1772.56  1812.49
                             1829.50  1873.56  1913.97  1957.49  2018.08
                             2045.01  2113.82  2158.82  2170.34  2190.13
                             2628.60  4136.10  4268.72  4289.58  4434.56
                             4440.37  4445.02  4492.14  4500.80  4608.74
                             4631.39

 Zero-point correction=                           0.159208 (Hartree/Particle)
 Thermal correction to Energy=                    0.167640
 Thermal correction to Enthalpy=                  0.168584
 Thermal correction to Gibbs Free Energy=         0.125244
 Sum of electronic and zero-point Energies=           -423.020847
 Sum of electronic and thermal Energies=              -423.012416
 Sum of electronic and thermal Enthalpies=            -423.011472
 Sum of electronic and thermal Free Energies=         -423.054812

                     E (Thermal)             CV                S
                      KCal/Mol        Cal/Mol-Kelvin    Cal/Mol-Kelvin
 Total                  105.195             31.310             91.217
 Electronic               0.000              0.000              0.000
 Translational            0.889              2.981             40.409
 Rotational               0.889              2.981             28.792
 Vibrational            103.418             25.349             22.017
 Vibration     1          0.595              1.980              5.111
 Vibration     2          0.598              1.968              4.117
 Vibration     3          0.630              1.865              2.313
 Vibration     4          0.650              1.801              1.908
 Vibration     5          0.674              1.728              1.595
 Vibration     6          0.715              1.609              1.245
 Vibration     7          0.722              1.589              1.198
 Vibration     8          0.790              1.407              0.862
 Vibration     9          0.823              1.328              0.752
 Vibration    10          0.869              1.218              0.623

 Optimization completed.
    -- Stationary point found.
 Normal termination of Gaussian 09 at Mon Jan 27 14:52:02 2020.
