 Gaussian 09, Revision D.01,
 Gaussian 09:  ES64L-G09RevD.01 24-Apr-2013

 -----------------------------
 # b3lyp 6-31G(2df,p) opt Freq
 -----------------------------

 -----
 titel
 -----
 Symbolic Z-matrix:
 Charge =  0 Multiplicity = 1

 SCF Done:  E(RB3LYP) =  -423.131738192     A.U. after   14 cycles
 Optimization completed.
    -- Stationary point found.
 Normal termination of Gaussian 09 at Tue Jan 28 04:02:17 2020.

 ----------------------------------------------------------------------
 #N Geom=AllCheck Guess=TCheck SCRF=Check GenChk RB3LYP/6-31G(2df,p) Fr
 eq
 ----------------------------------------------------------------------

 Structure from the checkpoint file:  "/scratch/puck/g09_7be23ab1-e936-4b12-a08f-632914a5cae5/Gau-117269.chk"
 -----
 titel
 -----
 Charge =  0 Multiplicity = 1

                         Standard orientation:
 ---------------------------------------------------------------------
 Center     Atomic      Atomic             Coordinates (Angstroms)
 Number     Number       Type             X           Y           Z
 ---------------------------------------------------------------------
      1          8           0       -1.817243    1.585883   -0.131254
      2          6           0       -1.451830    0.351246    0.422151
      3          6           0       -1.923276   -0.951080   -0.257370
      4          8           0       -0.577461   -1.460454   -0.286159
      5          6           0       -0.023446   -0.211233    0.183858
      6          6           0        1.040012   -0.249238    1.318996
      7          6           0        1.993473    0.539175    0.413796
      8          6           0        2.232213   -0.229547   -0.850764
      9          6           0        0.950714    0.549616   -0.710148
     10          1           0       -1.674222    1.546414   -1.083155
     11          1           0       -1.707229    0.410962    1.483009
     12          1           0       -2.604082   -1.599249    0.305733
     13          1           0       -2.334324   -0.793537   -1.265833
     14          1           0        0.706852    0.299184    2.204452
     15          1           0        1.372542   -1.248141    1.618181
     16          1           0        2.635932    1.349997    0.731474
     17          1           0        2.952564    0.201679   -1.538373
     18          1           0        2.208856   -1.316170   -0.847266
     19          1           0        0.693580    1.351801   -1.392028
 ---------------------------------------------------------------------

 SCF Done:  E(RB3LYP) =  -423.131738192     A.U. after    1 cycles

 The electronic state is 1-A.
 Alpha  occ. eigenvalues --  -19.14878 -19.13171 -10.23750 -10.23598 -10.22781
 Alpha  occ. eigenvalues --  -10.19522 -10.19062 -10.18771 -10.18295  -1.04821
 Alpha  occ. eigenvalues --   -1.02021  -0.89296  -0.73408  -0.71447  -0.66143
 Alpha  occ. eigenvalues --   -0.61289  -0.57553  -0.54652  -0.52274  -0.49097
 Alpha  occ. eigenvalues --   -0.46813  -0.45855  -0.43239  -0.41153  -0.39779
 Alpha  occ. eigenvalues --   -0.39335  -0.37982  -0.35437  -0.33865  -0.30496
 Alpha  occ. eigenvalues --   -0.29347  -0.27001  -0.25656  -0.24564
 Alpha virt. eigenvalues --    0.06503   0.07791   0.09931   0.10696   0.12522
 Alpha virt. eigenvalues --    0.13201   0.13765   0.14518   0.15683   0.17114
 Alpha virt. eigenvalues --    0.18482   0.18782   0.20014   0.20783   0.22148

 Mulliken charges:
               1
     1  O   -0.420208
     2  C    0.003749
     3  C   -0.119290
     4  O   -0.317541
     5  C    0.405391
     6  C   -0.318588
     7  C   -0.032752
     8  C   -0.286974
     9  C   -0.109702
    10  H    0.284353
    11  H    0.102183
    12  H    0.107847
    13  H    0.089304
    14  H    0.106755
    15  H    0.105867
    16  H    0.089283
    17  H    0.111846
    18  H    0.122703
    19  H    0.075776
 Sum of Mulliken charges =   0.00000

 Dipole moment (field-independent basis, Debye):
    X=              0.1518    Y=              0.6020    Z=             -0.3964  Tot=              0.7366
 Quadrupole moment (field-independent basis, Debye-Ang):
   XX=            -51.4358   YY=            -57.7343   ZZ=            -49.7894
   XY=              3.1746   XZ=              0.8653   YZ=             -2.9231

  Exact polarizability:  86.251   3.221  67.328  -0.152  -1.642  71.508
 Approx polarizability: 112.194   0.909 103.290   1.563  -1.370 107.888

                      1                      2                      3
                      A                      A                      A
 Frequencies --     60.4866               120.8285               177.8553
 Red. masses --      2.7781                 3.5671                 3.6094
 Frc consts  --      0.0060                 0.0307                 0.0673
 IR Inten    --      3.8659                 0.3117                 0.3564

                      4                      5                      6
                      A                      A                      A
 Frequencies --    258.0441               319.9957               363.7824
 Red. masses --      2.9377                 1.2299                 2.4084
 Frc consts  --      0.1153                 0.0742                 0.1878
 IR Inten    --      4.3583                94.8302                 8.0226

                      7                      8                      9
                      A                      A                      A
 Frequencies --    406.3716               484.4209               507.7262
 Red. masses --      2.5248                 2.6971                 4.2076
 Frc consts  --      0.2456                 0.3729                 0.6391
 IR Inten    --      7.0432                 9.0286                 3.0159

                     10                     11                     12
                      A                      A                      A
 Frequencies --    556.8905               738.8379               755.1751
 Red. masses --      3.4279                 2.9126                 2.3688
 Frc consts  --      0.6263                 0.9368                 0.7959
 IR Inten    --     12.2959                 3.0262                10.5064

                     13                     14                     15
                      A                      A                      A
 Frequencies --    792.4272               839.5794               873.1385
 Red. masses --      1.7620                 2.1944                 2.3908
 Frc consts  --      0.6519                 0.9114                 1.0739
 IR Inten    --     12.6981                 0.6597                24.4696

                     16                     17                     18
                      A                      A                      A
 Frequencies --    913.8581               930.3892               967.5367
 Red. masses --      1.7262                 2.2745                 1.5125
 Frc consts  --      0.8494                 1.1600                 0.8342
 IR Inten    --     16.3525                15.7159                 3.9419

                     19                     20                     21
                      A                      A                      A
 Frequencies --    976.4804              1016.5639              1020.6475
 Red. masses --      1.9005                 3.6260                 2.1052
 Frc consts  --      1.0677                 2.2077                 1.2921
 IR Inten    --      7.5012               113.6531                24.0915

                     22                     23                     24
                      A                      A                      A
 Frequencies --   1039.8392              1058.6648              1083.1828
 Red. masses --      2.1189                 1.1936                 1.4693
 Frc consts  --      1.3499                 0.7882                 1.0157
 IR Inten    --      8.0891                 0.9781                 4.7554

                     25                     26                     27
                      A                      A                      A
 Frequencies --   1105.1609              1115.7183              1130.2749
 Red. masses --      2.5382                 2.2342                 2.2705
 Frc consts  --      1.8265                 1.6386                 1.7090
 IR Inten    --     16.2071                24.6712                51.6153

                     28                     29                     30
                      A                      A                      A
 Frequencies --   1154.0105              1158.5354              1200.6743
 Red. masses --      1.2612                 1.6526                 1.7562
 Frc consts  --      0.9896                 1.3069                 1.4917
 IR Inten    --      4.2064                59.5366                19.8941

                     31                     32                     33
                      A                      A                      A
 Frequencies --   1228.8118              1246.2922              1262.2503
 Red. masses --      2.3025                 1.6126                 1.5803
 Frc consts  --      2.0484                 1.4757                 1.4835
 IR Inten    --     15.1379                 6.2403                 0.4602

                     34                     35                     36
                      A                      A                      A
 Frequencies --   1294.4358              1317.9881              1340.9956
 Red. masses --      1.6196                 1.8685                 1.5023
 Frc consts  --      1.5989                 1.9123                 1.5917
 IR Inten    --      5.3424                 6.5393                 2.7765

                     37                     38                     39
                      A                      A                      A
 Frequencies --   1364.4964              1438.6842              1472.2502
 Red. masses --      2.3027                 1.2860                 1.1156
 Frc consts  --      2.5260                 1.5682                 1.4248
 IR Inten    --      9.6151                56.3857                 1.6701

                     40                     41                     42
                      A                      A                      A
 Frequencies --   1494.9562              1521.3529              2990.4150
 Red. masses --      1.1959                 1.1059                 1.0644
 Frc consts  --      1.5747                 1.5082                 5.6080
 IR Inten    --      2.2882                 2.0823                75.9044

                     43                     44                     45
                      A                      A                      A
 Frequencies --   3047.5976              3057.4480              3086.8911
 Red. masses --      1.0581                 1.0990                 1.0891
 Frc consts  --      5.7904                 6.0530                 6.1146
 IR Inten    --     31.1745                33.5513                35.0846

                     46                     47                     48
                      A                      A                      A
 Frequencies --   3102.5989              3116.3953              3172.5084
 Red. masses --      1.1072                 1.0550                 1.0910
 Frc consts  --      6.2794                 6.0370                 6.4695
 IR Inten    --     18.4349                17.7798                16.3651

                     49                     50                     51
                      A                      A                      A
 Frequencies --   3195.4206              3207.7999              3805.3984
 Red. masses --      1.1001                 1.1091                 1.0658
 Frc consts  --      6.6179                 6.7242                 9.0933
 IR Inten    --      8.4978                18.2883                13.4832

 - Thermochemistry -
 -------------------
 Temperature   298.150 Kelvin.  Pressure   1.00000 Atm.
 Atom     1 has atomic number  8 and mass  15.99491

 Molecular mass:   126.06808 amu.
 Principal axes and moments of inertia in atomic units:
                           1         2         3
     Eigenvalues --   604.946001291.320081462.34037
           X            0.99985   0.01750  -0.00152
           Y           -0.01755   0.99898  -0.04149
           Z            0.00079   0.04151   0.99914
 This molecule is an asymmetric top.
 Rotational symmetry number  1.
 Warning -- assumption of classical behavior for rotation
           may cause significant error
 Rotational temperatures (Kelvin)      0.14318     0.06707     0.05923
 Rotational constants (GHZ):           2.98331     1.39759     1.23415
 Zero-point vibrational energy     418047.5 (Joules/Mol)
                                   99.91575 (Kcal/Mol)
 Warning -- explicit consideration of  10 degrees of freedom as
           vibrations may cause significant error
 Vibrational temperatures:     87.03   173.85   255.89   371.27   460.40
          (Kelvin)            523.40   584.68   696.97   730.50   801.24
                             1063.02  1086.53  1140.12  1207.97  1256.25
                             1314.84  1338.62  1392.07  1404.94  1462.61
                             1468.48  1496.09  1523.18  1558.46  1590.08
                             1605.27  1626.21  1660.36  1666.87  1727.50
                             1767.98  1793.13  1816.09  1862.40  1896.29
                             1929.39  1963.20  2069.94  2118.24  2150.91
                             2188.88  4302.53  4384.81  4398.98  4441.34
                             4463.94  4483.79  4564.53  4597.49  4615.30
                             5475.11

 Zero-point correction=                           0.159226 (Hartree/Particle)
 Thermal correction to Energy=                    0.167289
 Thermal correction to Enthalpy=                  0.168233
 Thermal correction to Gibbs Free Energy=         0.126330
 Sum of electronic and zero-point Energies=           -422.972512
 Sum of electronic and thermal Energies=              -422.964449
 Sum of electronic and thermal Enthalpies=            -422.963505
 Sum of electronic and thermal Free Energies=         -423.005408

                     E (Thermal)             CV                S
                      KCal/Mol        Cal/Mol-Kelvin    Cal/Mol-Kelvin
 Total                  104.976             31.324             88.193
 Electronic               0.000              0.000              0.000
 Translational            0.889              2.981             40.409
 Rotational               0.889              2.981             28.526
 Vibrational            103.198             25.363             19.259
 Vibration     1          0.597              1.973              4.441
 Vibration     2          0.609              1.932              3.087
 Vibration     3          0.628              1.870              2.351
 Vibration     4          0.667              1.749              1.675
 Vibration     5          0.706              1.635              1.310
 Vibration     6          0.737              1.547              1.106
 Vibration     7          0.771              1.456              0.940
 Vibration     8          0.841              1.285              0.698
 Vibration     9          0.863              1.233              0.639
 Vibration    10          0.912              1.125              0.530

 Optimization completed.
    -- Stationary point found.
 Normal termination of Gaussian 09 at Tue Jan 28 04:42:53 2020.
