 Gaussian 09, Revision D.01,
 Gaussian 09:  ES64L-G09RevD.01 24-Apr-2013

 -----------------------------
 # b3lyp 6-31G(2df,p) opt Freq
 -----------------------------

 -----
 titel
 -----
 Symbolic Z-matrix:
 Charge =  0 Multiplicity = 1

 SCF Done:  E(RB3LYP) =  -423.203653701     A.U. after   14 cycles
 Optimization completed.
    -- Stationary point found.
 Normal termination of Gaussian 09 at Mon Jan 27 22:08:44 2020.

 ----------------------------------------------------------------------
 #N Geom=AllCheck Guess=TCheck SCRF=Check GenChk RB3LYP/6-31G(2df,p) Fr
 eq
 ----------------------------------------------------------------------

 Structure from the checkpoint file:  "/scratch/puck/g09_c5545327-1093-47a2-8b00-ef6d5fcf0cb5/Gau-51382.chk"
 -----
 titel
 -----
 Charge =  0 Multiplicity = 1

                         Standard orientation:
 ---------------------------------------------------------------------
 Center     Atomic      Atomic             Coordinates (Angstroms)
 Number     Number       Type             X           Y           Z
 ---------------------------------------------------------------------
      1          6           0       -0.207564    2.120032    0.026741
      2          6           0       -0.257981    0.696106   -0.517124
      3          6           0       -1.473944   -0.113405   -0.027399
      4          8           0       -2.577588    0.332333    0.148695
      5          6           0       -1.045032   -1.568204    0.206777
      6          6           0        0.399131   -1.655054   -0.319295
      7          6           0        0.914052   -0.225105   -0.198379
      8          6           0        2.324974    0.143983   -0.293333
      9          8           0        1.672826    0.075205    0.982013
     10          1           0        0.524210    2.729418   -0.511210
     11          1           0       -1.191350    2.583509   -0.079755
     12          1           0        0.065901    2.114269    1.084097
     13          1           0       -0.365676    0.721873   -1.613937
     14          1           0       -1.085339   -1.745208    1.288331
     15          1           0       -1.749931   -2.262206   -0.256774
     16          1           0        1.030589   -2.347422    0.240757
     17          1           0        0.408051   -1.962364   -1.371600
     18          1           0        3.073279   -0.627083   -0.475514
     19          1           0        2.606545    1.144783   -0.617988
 ---------------------------------------------------------------------

 SCF Done:  E(RB3LYP) =  -423.203653701     A.U. after    1 cycles

 The electronic state is 1-A.
 Alpha  occ. eigenvalues --  -19.15487 -19.13215 -10.26915 -10.24878 -10.23839
 Alpha  occ. eigenvalues --  -10.20074 -10.19809 -10.19603 -10.17849  -1.07506
 Alpha  occ. eigenvalues --   -1.04298  -0.83819  -0.76465  -0.69130  -0.65890
 Alpha  occ. eigenvalues --   -0.65723  -0.56929  -0.53100  -0.49947  -0.48473
 Alpha  occ. eigenvalues --   -0.47661  -0.44747  -0.43373  -0.41642  -0.40332
 Alpha  occ. eigenvalues --   -0.39341  -0.38478  -0.36763  -0.35629  -0.34708
 Alpha  occ. eigenvalues --   -0.33886  -0.30900  -0.27227  -0.23985
 Alpha virt. eigenvalues --   -0.01905   0.08076   0.09389   0.10507   0.11028
 Alpha virt. eigenvalues --    0.12940   0.13844   0.14970   0.16074   0.16443
 Alpha virt. eigenvalues --    0.17095   0.18386   0.19289   0.20359   0.22092

 Mulliken charges:
               1
     1  C   -0.412861
     2  C   -0.177557
     3  C    0.402755
     4  O   -0.317956
     5  C   -0.324158
     6  C   -0.299562
     7  C    0.412633
     8  C   -0.259572
     9  O   -0.264818
    10  H    0.112920
    11  H    0.139479
    12  H    0.141071
    13  H    0.110235
    14  H    0.145983
    15  H    0.130943
    16  H    0.119974
    17  H    0.110864
    18  H    0.113746
    19  H    0.115877
 Sum of Mulliken charges =   0.00000

 Dipole moment (field-independent basis, Debye):
    X=              2.1130    Y=             -1.1887    Z=             -1.9844  Tot=              3.1330
 Quadrupole moment (field-independent basis, Debye-Ang):
   XX=            -60.3635   YY=            -49.9542   ZZ=            -53.2275
   XY=              2.1990   XZ=             -2.2403   YZ=             -0.6964

  Exact polarizability:  86.068   0.620  79.266  -2.854  -0.948  59.215
 Approx polarizability: 122.552  -1.955 105.473  -3.370  -0.743  99.156

                      1                      2                      3
                      A                      A                      A
 Frequencies --     58.9009               120.4566               176.6296
 Red. masses --      4.4224                 2.2148                 1.0784
 Frc consts  --      0.0090                 0.0189                 0.0198
 IR Inten    --      3.2752                 3.1031                 0.3066

                      4                      5                      6
                      A                      A                      A
 Frequencies --    235.1021               245.5820               291.2926
 Red. masses --      3.3876                 2.8015                 3.0081
 Frc consts  --      0.1103                 0.0995                 0.1504
 IR Inten    --      1.9729                 2.5285                 1.1410

                      7                      8                      9
                      A                      A                      A
 Frequencies --    374.4955               445.6500               493.3702
 Red. masses --      2.6662                 4.0423                 3.8782
 Frc consts  --      0.2203                 0.4730                 0.5562
 IR Inten    --      8.8655                 2.5393                 3.6153

                     10                     11                     12
                      A                      A                      A
 Frequencies --    507.7737               573.1348               627.1610
 Red. masses --      3.3222                 2.3831                 4.1429
 Frc consts  --      0.5047                 0.4612                 0.9601
 IR Inten    --      2.0638                 4.2461                 5.5773

                     13                     14                     15
                      A                      A                      A
 Frequencies --    706.2745               740.0189               815.2963
 Red. masses --      3.0221                 3.2003                 2.1545
 Frc consts  --      0.8882                 1.0326                 0.8438
 IR Inten    --      1.3090                 5.3859                 7.1019

                     16                     17                     18
                      A                      A                      A
 Frequencies --    851.8082               890.4251               967.5319
 Red. masses --      2.3503                 1.5312                 2.3312
 Frc consts  --      1.0048                 0.7153                 1.2858
 IR Inten    --     20.1814                 4.7258                18.4688

                     19                     20                     21
                      A                      A                      A
 Frequencies --    975.5316               994.2188              1016.6673
 Red. masses --      2.0907                 1.9904                 1.7127
 Frc consts  --      1.1723                 1.1592                 1.0430
 IR Inten    --     13.8549                 4.1691                 8.1333

                     22                     23                     24
                      A                      A                      A
 Frequencies --   1045.4756              1099.9504              1125.2979
 Red. masses --      2.3058                 1.7628                 1.2940
 Frc consts  --      1.4849                 1.2566                 0.9654
 IR Inten    --     26.1612                 5.4342                 0.7957

                     25                     26                     27
                      A                      A                      A
 Frequencies --   1146.9617              1160.8996              1182.6719
 Red. masses --      2.5940                 1.4521                 1.5149
 Frc consts  --      2.0106                 1.1530                 1.2485
 IR Inten    --     34.8484                 0.6479                 3.7785

                     28                     29                     30
                      A                      A                      A
 Frequencies --   1196.6542              1252.0474              1257.6901
 Red. masses --      1.6549                 1.6544                 1.5912
 Frc consts  --      1.3962                 1.5280                 1.4830
 IR Inten    --      8.9349                 4.0227                 6.3531

                     31                     32                     33
                      A                      A                      A
 Frequencies --   1291.9278              1314.3172              1338.1241
 Red. masses --      1.3721                 1.4823                 2.2335
 Frc consts  --      1.3493                 1.5086                 2.3563
 IR Inten    --      1.8172                 4.8487                16.1308

                     34                     35                     36
                      A                      A                      A
 Frequencies --   1399.4875              1430.9874              1447.7424
 Red. masses --      1.2767                 2.1455                 1.0911
 Frc consts  --      1.4733                 2.5885                 1.3474
 IR Inten    --      6.8811                 8.7995                 6.4689

                     37                     38                     39
                      A                      A                      A
 Frequencies --   1481.5475              1491.8008              1503.3041
 Red. masses --      1.0989                 1.0546                 1.0586
 Frc consts  --      1.4211                 1.3828                 1.4096
 IR Inten    --      5.6176                 7.7432                 6.3449

                     40                     41                     42
                      A                      A                      A
 Frequencies --   1534.9349              1847.2611              2983.0747
 Red. masses --      1.5009                12.7319                 1.0800
 Frc consts  --      2.0834                25.5976                 5.6625
 IR Inten    --      6.3933               190.4609                11.6164

                     43                     44                     45
                      A                      A                      A
 Frequencies --   3042.3423              3049.5729              3051.5874
 Red. masses --      1.0681                 1.0642                 1.0352
 Frc consts  --      5.8246                 5.8310                 5.6797
 IR Inten    --     16.5533                11.0360                20.2314

                     46                     47                     48
                      A                      A                      A
 Frequencies --   3079.0170              3108.0547              3117.1477
 Red. masses --      1.0509                 1.0953                 1.0999
 Frc consts  --      5.8697                 6.2340                 6.2968
 IR Inten    --     27.3791                 6.9256                14.1187

                     49                     50                     51
                      A                      A                      A
 Frequencies --   3121.2099              3138.5018              3163.7064
 Red. masses --      1.1008                 1.1023                 1.1188
 Frc consts  --      6.3183                 6.3973                 6.5977
 IR Inten    --     14.8556                 8.4500                21.2789

 - Thermochemistry -
 -------------------
 Temperature   298.150 Kelvin.  Pressure   1.00000 Atm.
 Atom     1 has atomic number  6 and mass  12.00000

 Molecular mass:   126.06808 amu.
 Principal axes and moments of inertia in atomic units:
                           1         2         3
     Eigenvalues --   693.311521151.950961627.20101
           X            0.99978   0.01476  -0.01482
           Y           -0.01481   0.99988  -0.00342
           Z            0.01476   0.00364   0.99988
 This molecule is an asymmetric top.
 Rotational symmetry number  1.
 Warning -- assumption of classical behavior for rotation
           may cause significant error
 Rotational temperatures (Kelvin)      0.12493     0.07519     0.05323
 Rotational constants (GHZ):           2.60307     1.56668     1.10911
 Zero-point vibrational energy     415765.8 (Joules/Mol)
                                   99.37042 (Kcal/Mol)
 Warning -- explicit consideration of  11 degrees of freedom as
           vibrations may cause significant error
 Vibrational temperatures:     84.75   173.31   254.13   338.26   353.34
          (Kelvin)            419.10   538.81   641.19   709.85   730.57
                              824.61   902.34  1016.17  1064.72  1173.03
                             1225.56  1281.12  1392.06  1403.57  1430.46
                             1462.76  1504.20  1582.58  1619.05  1650.22
                             1670.27  1701.60  1721.72  1801.41  1809.53
                             1858.79  1891.01  1925.26  2013.55  2058.87
                             2082.98  2131.61  2146.37  2162.92  2208.43
                             2657.79  4291.97  4377.25  4387.65  4390.55
                             4430.01  4471.79  4484.87  4490.72  4515.60
                             4551.86

 Zero-point correction=                           0.158357 (Hartree/Particle)
 Thermal correction to Energy=                    0.166913
 Thermal correction to Enthalpy=                  0.167857
 Thermal correction to Gibbs Free Energy=         0.124974
 Sum of electronic and zero-point Energies=           -423.045297
 Sum of electronic and thermal Energies=              -423.036741
 Sum of electronic and thermal Enthalpies=            -423.035797
 Sum of electronic and thermal Free Energies=         -423.078680

                     E (Thermal)             CV                S
                      KCal/Mol        Cal/Mol-Kelvin    Cal/Mol-Kelvin
 Total                  104.739             32.429             90.256
 Electronic               0.000              0.000              0.000
 Translational            0.889              2.981             40.409
 Rotational               0.889              2.981             28.654
 Vibrational            102.962             26.467             21.193
 Vibration     1          0.596              1.974              4.494
 Vibration     2          0.609              1.932              3.093
 Vibration     3          0.628              1.871              2.364
 Vibration     4          0.655              1.787              1.840
 Vibration     5          0.660              1.770              1.762
 Vibration     6          0.687              1.690              1.466
 Vibration     7          0.746              1.524              1.061
 Vibration     8          0.805              1.370              0.809
 Vibration     9          0.849              1.265              0.675
 Vibration    10          0.863              1.233              0.639
 Vibration    11          0.929              1.089              0.498

 Normal termination of Gaussian 09 at Mon Jan 27 23:49:08 2020.
