 Gaussian 09, Revision D.01,
 Gaussian 09:  ES64L-G09RevD.01 24-Apr-2013

 -----------------------------
 # b3lyp 6-31G(2df,p) opt Freq
 -----------------------------

 -----
 titel
 -----
 Symbolic Z-matrix:
 Charge =  0 Multiplicity = 1

 SCF Done:  E(RB3LYP) =  -423.095238414     A.U. after   14 cycles
 Optimization completed.
    -- Stationary point found.
 Normal termination of Gaussian 09 at Mon Jan 27 15:56:02 2020.

 ----------------------------------------------------------------------
 #N Geom=AllCheck Guess=TCheck SCRF=Check GenChk RB3LYP/6-31G(2df,p) Fr
 eq
 ----------------------------------------------------------------------

 Structure from the checkpoint file:  "/scratch/puck/g09_21a373f5-707c-4fee-8721-0d41f96582c2/Gau-108323.chk"
 -----
 titel
 -----
 Charge =  0 Multiplicity = 1

                         Standard orientation:
 ---------------------------------------------------------------------
 Center     Atomic      Atomic             Coordinates (Angstroms)
 Number     Number       Type             X           Y           Z
 ---------------------------------------------------------------------
      1          6           0        1.973386   -0.119546    1.106676
      2          6           0        0.985930   -0.218790   -0.045611
      3          8           0        1.649424   -0.226228   -1.300469
      4          6           0       -0.110439   -1.294058    0.005100
      5          6           0       -1.079784   -0.428429   -0.854600
      6          8           0       -2.201437   -0.538748    0.074148
      7          6           0       -1.020984   -0.422404    0.922440
      8          6           0       -0.311374    0.634016    0.008281
      9          6           0       -0.506255    2.121584    0.000398
     10          1           0        2.528335    0.826627    1.065951
     11          1           0        1.470648   -0.162612    2.077659
     12          1           0        2.700154   -0.936315    1.057134
     13          1           0        2.271160    0.508934   -1.317090
     14          1           0       -0.021309   -2.379787    0.003342
     15          1           0       -1.277206   -0.452684   -1.923976
     16          1           0       -1.152445   -0.443287    2.003866
     17          1           0       -0.068118    2.570709   -0.897927
     18          1           0       -1.574944    2.359842    0.011751
     19          1           0       -0.043052    2.594136    0.873759
 ---------------------------------------------------------------------

 SCF Done:  E(RB3LYP) =  -423.095238414     A.U. after    1 cycles

 The electronic state is 1-A.
 Alpha  occ. eigenvalues --  -19.13871 -19.12432 -10.24436 -10.24200 -10.24126
 Alpha  occ. eigenvalues --  -10.19966 -10.19490 -10.18362 -10.18246  -1.05891
 Alpha  occ. eigenvalues --   -1.02140  -0.86064  -0.73739  -0.73011  -0.65061
 Alpha  occ. eigenvalues --   -0.61297  -0.60377  -0.52330  -0.50404  -0.47279
 Alpha  occ. eigenvalues --   -0.45939  -0.45798  -0.42653  -0.40790  -0.40380
 Alpha  occ. eigenvalues --   -0.38912  -0.38162  -0.36471  -0.32502  -0.31622
 Alpha  occ. eigenvalues --   -0.30123  -0.29270  -0.26370  -0.22571
 Alpha virt. eigenvalues --    0.06389   0.09466   0.10570   0.11449   0.11867
 Alpha virt. eigenvalues --    0.12973   0.13720   0.14726   0.15256   0.15877
 Alpha virt. eigenvalues --    0.17286   0.18054   0.19405   0.20894   0.21215

 Mulliken charges:
               1
     1  C   -0.472032
     2  C    0.349409
     3  O   -0.480424
     4  C   -0.135383
     5  C    0.040388
     6  O   -0.338353
     7  C    0.026824
     8  C    0.257344
     9  C   -0.542659
    10  H    0.109324
    11  H    0.121913
    12  H    0.129640
    13  H    0.277029
    14  H    0.081564
    15  H    0.102392
    16  H    0.092205
    17  H    0.120813
    18  H    0.140378
    19  H    0.119628
 Sum of Mulliken charges =   0.00000

 Dipole moment (field-independent basis, Debye):
    X=              2.2576    Y=              1.3971    Z=              0.8519  Tot=              2.7883
 Quadrupole moment (field-independent basis, Debye-Ang):
   XX=            -57.1896   YY=            -51.6861   ZZ=            -51.7602
   XY=              0.9859   XZ=              1.0432   YZ=             -1.7675

  Exact polarizability:  77.992   1.024  74.780   0.818  -0.651  70.856
 Approx polarizability: 112.234   2.896 107.808  -2.038  -0.175 110.595

                      1                      2                      3
                      A                      A                      A
 Frequencies --    176.5693               188.1005               197.5602
 Red. masses --      3.1259                 2.2975                 2.2557
 Frc consts  --      0.0574                 0.0479                 0.0519
 IR Inten    --      0.5026                 0.5416                 0.8160

                      4                      5                      6
                      A                      A                      A
 Frequencies --    228.2594               231.5470               271.8292
 Red. masses --      1.1182                 1.2028                 1.0879
 Frc consts  --      0.0343                 0.0380                 0.0474
 IR Inten    --      0.2229                 0.9090                92.6084

                      7                      8                      9
                      A                      A                      A
 Frequencies --    325.3020               359.1062               372.0804
 Red. masses --      2.7989                 3.7316                 3.5876
 Frc consts  --      0.1745                 0.2835                 0.2926
 IR Inten    --      0.7228                 7.3532                10.2302

                     10                     11                     12
                      A                      A                      A
 Frequencies --    569.4441               612.4318               620.4190
 Red. masses --      4.4761                 2.8759                 4.1257
 Frc consts  --      0.8552                 0.6355                 0.9357
 IR Inten    --      7.5709                 1.9932                 2.8195

                     13                     14                     15
                      A                      A                      A
 Frequencies --    680.5486               759.2623               817.0720
 Red. masses --      3.4892                 3.7109                 2.2741
 Frc consts  --      0.9521                 1.2604                 0.8945
 IR Inten    --      3.5349                 1.3005                 0.5555

                     16                     17                     18
                      A                      A                      A
 Frequencies --    817.6118               836.5778               882.0152
 Red. masses --      3.1004                 2.0194                 3.0195
 Frc consts  --      1.2211                 0.8327                 1.3840
 IR Inten    --      6.8085                 3.3343                 7.7674

                     19                     20                     21
                      A                      A                      A
 Frequencies --    910.2364               925.5831               958.9002
 Red. masses --      3.3611                 2.0250                 1.8150
 Frc consts  --      1.6408                 1.0221                 0.9833
 IR Inten    --     59.3834                 0.8250                19.4000

                     22                     23                     24
                      A                      A                      A
 Frequencies --    994.3260              1068.7917              1089.6582
 Red. masses --      1.3189                 2.3000                 1.5202
 Frc consts  --      0.7683                 1.5480                 1.0635
 IR Inten    --      0.8360                 0.3701                15.9933

                     25                     26                     27
                      A                      A                      A
 Frequencies --   1119.3506              1128.0409              1142.1243
 Red. masses --      1.5575                 2.4635                 1.6521
 Frc consts  --      1.1498                 1.8469                 1.2698
 IR Inten    --      9.1857                29.9923                29.9106

                     28                     29                     30
                      A                      A                      A
 Frequencies --   1150.4959              1170.8470              1181.8820
 Red. masses --      2.1127                 1.7183                 1.9923
 Frc consts  --      1.6476                 1.3879                 1.6397
 IR Inten    --      8.6208                10.0706                13.5110

                     31                     32                     33
                      A                      A                      A
 Frequencies --   1204.9139              1254.8281              1304.6174
 Red. masses --      3.5457                 1.9034                 2.1234
 Frc consts  --      3.0329                 1.7658                 2.1293
 IR Inten    --     60.6349                26.6458                24.1289

                     34                     35                     36
                      A                      A                      A
 Frequencies --   1362.9692              1394.4146              1404.7319
 Red. masses --      2.1172                 1.7764                 1.6135
 Frc consts  --      2.3173                 2.0351                 1.8758
 IR Inten    --     13.0020                 7.6394                 5.3226

                     37                     38                     39
                      A                      A                      A
 Frequencies --   1413.2575              1487.1875              1488.1425
 Red. masses --      1.5219                 1.0562                 1.0476
 Frc consts  --      1.7909                 1.3763                 1.3669
 IR Inten    --     13.6338                 4.1048                 5.5207

                     40                     41                     42
                      A                      A                      A
 Frequencies --   1492.0556              1497.9616              3021.7356
 Red. masses --      1.0503                 1.0802                 1.0397
 Frc consts  --      1.3776                 1.4281                 5.5932
 IR Inten    --      7.5512                 2.8533                17.8295

                     43                     44                     45
                      A                      A                      A
 Frequencies --   3026.3570              3086.7324              3089.6857
 Red. masses --      1.0351                 1.0951                 1.1008
 Frc consts  --      5.5855                 6.1478                 6.1912
 IR Inten    --     31.0463                20.8438                17.9825

                     46                     47                     48
                      A                      A                      A
 Frequencies --   3101.2217              3111.8497              3118.8830
 Red. masses --      1.1005                 1.1013                 1.0895
 Frc consts  --      6.2358                 6.2833                 6.2442
 IR Inten    --     13.0203                12.6314                42.1942

                     49                     50                     51
                      A                      A                      A
 Frequencies --   3130.1083              3149.1112              3808.3789
 Red. masses --      1.0922                 1.0968                 1.0660
 Frc consts  --      6.3047                 6.4086                 9.1090
 IR Inten    --     45.4366                20.9471                14.9633

 - Thermochemistry -
 -------------------
 Temperature   298.150 Kelvin.  Pressure   1.00000 Atm.
 Atom     1 has atomic number  6 and mass  12.00000

 Molecular mass:   126.06808 amu.
 Principal axes and moments of inertia in atomic units:
                           1         2         3
     Eigenvalues --   694.927551125.932881261.97642
           X            0.99917  -0.01674   0.03708
           Y            0.01784   0.99941  -0.02947
           Z           -0.03657   0.03010   0.99888
 This molecule is an asymmetric top.
 Rotational symmetry number  1.
 Warning -- assumption of classical behavior for rotation
           may cause significant error
 Rotational temperatures (Kelvin)      0.12464     0.07693     0.06863
 Rotational constants (GHZ):           2.59702     1.60289     1.43009
 Zero-point vibrational energy     411127.3 (Joules/Mol)
                                   98.26178 (Kcal/Mol)
 Warning -- explicit consideration of  12 degrees of freedom as
           vibrations may cause significant error
 Vibrational temperatures:    254.04   270.63   284.24   328.41   333.14
          (Kelvin)            391.10   468.04   516.67   535.34   819.30
                              881.15   892.64   979.16  1092.41  1175.58
                             1176.36  1203.65  1269.02  1309.63  1331.71
                             1379.64  1430.61  1537.75  1567.77  1610.49
                             1623.00  1643.26  1655.30  1684.59  1700.46
                             1733.60  1805.42  1877.05  1961.01  2006.25
                             2021.09  2033.36  2139.73  2141.10  2146.73
                             2155.23  4347.60  4354.25  4441.11  4445.36
                             4461.96  4477.25  4487.37  4503.52  4530.86
                             5479.40

 Zero-point correction=                           0.156590 (Hartree/Particle)
 Thermal correction to Energy=                    0.165147
 Thermal correction to Enthalpy=                  0.166092
 Thermal correction to Gibbs Free Energy=         0.124207
 Sum of electronic and zero-point Energies=           -422.938648
 Sum of electronic and thermal Energies=              -422.930091
 Sum of electronic and thermal Enthalpies=            -422.929147
 Sum of electronic and thermal Free Energies=         -422.971031

                     E (Thermal)             CV                S
                      KCal/Mol        Cal/Mol-Kelvin    Cal/Mol-Kelvin
 Total                  103.632             33.668             88.153
 Electronic               0.000              0.000              0.000
 Translational            0.889              2.981             40.409
 Rotational               0.889              2.981             28.381
 Vibrational            101.854             27.706             19.364
 Vibration     1          0.628              1.871              2.364
 Vibration     2          0.633              1.856              2.246
 Vibration     3          0.637              1.843              2.156
 Vibration     4          0.651              1.798              1.893
 Vibration     5          0.653              1.793              1.867
 Vibration     6          0.675              1.725              1.585
 Vibration     7          0.709              1.625              1.283
 Vibration     8          0.734              1.557              1.126
 Vibration     9          0.744              1.529              1.071
 Vibration    10          0.925              1.097              0.505
 Vibration    11          0.972              1.006              0.429
 Vibration    12          0.980              0.989              0.416

 Optimization completed.
    -- Stationary point found.
 Normal termination of Gaussian 09 at Mon Jan 27 16:38:48 2020.
