 Gaussian 09, Revision D.01,
 Gaussian 09:  ES64L-G09RevD.01 24-Apr-2013

 -----------------------------
 # b3lyp 6-31G(2df,p) opt Freq
 -----------------------------

 -----
 titel
 -----
 Symbolic Z-matrix:
 Charge =  0 Multiplicity = 1

 SCF Done:  E(RB3LYP) =  -423.116915904     A.U. after   12 cycles
 Optimization completed.
    -- Stationary point found.
 Normal termination of Gaussian 09 at Tue Jan 28 01:53:13 2020.

 ----------------------------------------------------------------------
 #N Geom=AllCheck Guess=TCheck SCRF=Check GenChk RB3LYP/6-31G(2df,p) Fr
 eq
 ----------------------------------------------------------------------

 Structure from the checkpoint file:  "/scratch/puck/g09_4e0ba032-3a7c-4a19-8d24-8ee57e5dc862/Gau-110141.chk"
 -----
 titel
 -----
 Charge =  0 Multiplicity = 1

                         Standard orientation:
 ---------------------------------------------------------------------
 Center     Atomic      Atomic             Coordinates (Angstroms)
 Number     Number       Type             X           Y           Z
 ---------------------------------------------------------------------
      1          8           0        2.344381   -1.181138   -0.659240
      2          6           0        2.055319    0.084589   -0.138509
      3          6           0        1.566196    0.213559    1.288342
      4          6           0        0.617656    0.377234    0.123002
      5          6           0       -0.162087    1.625750   -0.344846
      6          6           0       -1.327227    0.705617   -0.734732
      7          6           0       -1.785274   -0.115015    0.437714
      8          8           0       -2.930993   -0.906211    0.294929
      9          6           0       -0.523962   -0.535060   -0.262837
     10          1           0        3.148831   -1.500378   -0.237300
     11          1           0        2.668976    0.895274   -0.536070
     12          1           0        1.484753   -0.702544    1.865326
     13          1           0        1.857774    1.091647    1.856310
     14          1           0       -0.384322    2.383172    0.415622
     15          1           0        0.308921    2.113606   -1.203045
     16          1           0       -1.957297    0.819156   -1.609685
     17          1           0       -1.750623    0.288882    1.447456
     18          1           0       -2.913888   -1.316882   -0.576163
     19          1           0       -0.413955   -1.513188   -0.716762
 ---------------------------------------------------------------------

 SCF Done:  E(RB3LYP) =  -423.116915904     A.U. after    1 cycles

 The electronic state is 1-A.
 Alpha  occ. eigenvalues --  -19.14352 -19.13968 -10.23281 -10.23184 -10.19683
 Alpha  occ. eigenvalues --  -10.18709 -10.18674 -10.18572 -10.18017  -1.02800
 Alpha  occ. eigenvalues --   -1.02535  -0.89214  -0.82382  -0.69825  -0.62553
 Alpha  occ. eigenvalues --   -0.60480  -0.59399  -0.52395  -0.51855  -0.51159
 Alpha  occ. eigenvalues --   -0.48414  -0.44689  -0.43216  -0.40937  -0.39245
 Alpha  occ. eigenvalues --   -0.37480  -0.36669  -0.35621  -0.33167  -0.31563
 Alpha  occ. eigenvalues --   -0.28726  -0.27104  -0.24018  -0.22796
 Alpha virt. eigenvalues --    0.07386   0.08141   0.09959   0.10707   0.11852
 Alpha virt. eigenvalues --    0.13181   0.13315   0.14283   0.15653   0.17526
 Alpha virt. eigenvalues --    0.18143   0.19195   0.20171   0.22588   0.25296

 Mulliken charges:
               1
     1  O   -0.421451
     2  C    0.023339
     3  C   -0.396102
     4  C    0.359267
     5  C   -0.333269
     6  C   -0.109584
     7  C    0.151174
     8  O   -0.443927
     9  C   -0.196186
    10  H    0.288540
    11  H    0.082469
    12  H    0.115169
    13  H    0.109917
    14  H    0.097349
    15  H    0.108683
    16  H    0.084359
    17  H    0.100485
    18  H    0.283505
    19  H    0.096261
 Sum of Mulliken charges =   0.00000

 Dipole moment (field-independent basis, Debye):
    X=              1.8056    Y=              0.3730    Z=             -0.3160  Tot=              1.8706
 Quadrupole moment (field-independent basis, Debye-Ang):
   XX=            -52.1384   YY=            -51.3292   ZZ=            -52.9060
   XY=             -0.5574   XZ=              6.3090   YZ=              0.6084

  Exact polarizability:  87.956   0.278  72.963   3.417  -0.061  68.404
 Approx polarizability: 115.373  -0.829 108.590   2.452   0.255 105.537

                      1                      2                      3
                      A                      A                      A
 Frequencies --    108.8465               136.4692               160.2746
 Red. masses --      3.6220                 3.8187                 1.1696
 Frc consts  --      0.0253                 0.0419                 0.0177
 IR Inten    --      5.6645                 2.3655                74.8381

                      4                      5                      6
                      A                      A                      A
 Frequencies --    191.9576               269.6679               285.7859
 Red. masses --      3.0715                 2.6093                 1.3776
 Frc consts  --      0.0667                 0.1118                 0.0663
 IR Inten    --      7.6462                 4.4871                76.6442

                      7                      8                      9
                      A                      A                      A
 Frequencies --    324.2073               410.0297               435.2227
 Red. masses --      2.6209                 2.5586                 3.0499
 Frc consts  --      0.1623                 0.2534                 0.3404
 IR Inten    --     35.4478                 3.7124                 2.6801

                     10                     11                     12
                      A                      A                      A
 Frequencies --    443.2734               541.5169               572.9609
 Red. masses --      2.5035                 3.8112                 3.5076
 Frc consts  --      0.2898                 0.6585                 0.6784
 IR Inten    --      6.0724                 2.9723                 0.9556

                     13                     14                     15
                      A                      A                      A
 Frequencies --    768.7942               795.0510               829.1431
 Red. masses --      2.5362                 1.9094                 1.7367
 Frc consts  --      0.8832                 0.7111                 0.7035
 IR Inten    --      7.6753                 2.6280                14.2750

                     16                     17                     18
                      A                      A                      A
 Frequencies --    859.4481               883.9466               916.8788
 Red. masses --      2.1446                 1.9930                 2.7968
 Frc consts  --      0.9333                 0.9175                 1.3853
 IR Inten    --      3.3679                22.9771                26.5956

                     19                     20                     21
                      A                      A                      A
 Frequencies --    920.0104               984.5454              1004.9069
 Red. masses --      1.8980                 1.3908                 1.8382
 Frc consts  --      0.9465                 0.7943                 1.0937
 IR Inten    --      2.2671                 0.3315                 2.0614

                     22                     23                     24
                      A                      A                      A
 Frequencies --   1014.8339              1029.1010              1077.4708
 Red. masses --      1.8033                 1.4569                 2.3692
 Frc consts  --      1.0942                 0.9090                 1.6205
 IR Inten    --     11.0167                 6.7654                 0.9691

                     25                     26                     27
                      A                      A                      A
 Frequencies --   1083.8443              1101.4213              1110.7316
 Red. masses --      1.6716                 2.0073                 1.4190
 Frc consts  --      1.1570                 1.4347                 1.0314
 IR Inten    --     28.8821                62.8391                 2.3346

                     28                     29                     30
                      A                      A                      A
 Frequencies --   1135.3359              1165.0697              1169.2856
 Red. masses --      1.7343                 1.3897                 2.6648
 Frc consts  --      1.3171                 1.1114                 2.1466
 IR Inten    --     14.0036                46.6382                43.6500

                     31                     32                     33
                      A                      A                      A
 Frequencies --   1198.5172              1246.6457              1253.4393
 Red. masses --      1.8384                 1.7101                 1.6692
 Frc consts  --      1.5559                 1.5659                 1.5451
 IR Inten    --      1.2141                10.2418                 5.5493

                     34                     35                     36
                      A                      A                      A
 Frequencies --   1287.1156              1299.2367              1331.4834
 Red. masses --      1.4336                 1.4402                 1.7541
 Frc consts  --      1.3993                 1.4324                 1.8322
 IR Inten    --     16.0214                58.0961                 5.6769

                     37                     38                     39
                      A                      A                      A
 Frequencies --   1365.1463              1422.6165              1447.3665
 Red. masses --      1.6971                 1.3165                 1.7736
 Frc consts  --      1.8635                 1.5698                 2.1890
 IR Inten    --      1.2646                11.6576                92.2320

                     40                     41                     42
                      A                      A                      A
 Frequencies --   1487.5758              1492.2732              3032.2898
 Red. masses --      1.1514                 2.1111                 1.0604
 Frc consts  --      1.5012                 2.7698                 5.7444
 IR Inten    --      4.1048                10.7057                47.7354

                     43                     44                     45
                      A                      A                      A
 Frequencies --   3078.9509              3088.4458              3119.8748
 Red. masses --      1.0871                 1.1045                 1.0540
 Frc consts  --      6.0717                 6.2072                 6.0445
 IR Inten    --     37.7419                22.9973                 9.0306

                     46                     47                     48
                      A                      A                      A
 Frequencies --   3129.4127              3171.6043              3183.6564
 Red. masses --      1.0896                 1.0891                 1.0951
 Frc consts  --      6.2868                 6.4549                 6.5398
 IR Inten    --     22.4016                14.9600                15.8908

                     49                     50                     51
                      A                      A                      A
 Frequencies --   3210.5092              3805.9933              3810.9859
 Red. masses --      1.1168                 1.0663                 1.0657
 Frc consts  --      6.7824                 9.1004                 9.1194
 IR Inten    --      7.8073                22.8167                18.8540

 - Thermochemistry -
 -------------------
 Temperature   298.150 Kelvin.  Pressure   1.00000 Atm.
 Atom     1 has atomic number  8 and mass  15.99491

 Molecular mass:   126.06808 amu.
 Principal axes and moments of inertia in atomic units:
                           1         2         3
     Eigenvalues --   546.278401664.184801823.83855
           X            0.99985   0.00247   0.01692
           Y           -0.00248   1.00000   0.00028
           Z           -0.01692  -0.00032   0.99986
 This molecule is an asymmetric top.
 Rotational symmetry number  1.
 Warning -- assumption of classical behavior for rotation
           may cause significant error
 Rotational temperatures (Kelvin)      0.15855     0.05205     0.04749
 Rotational constants (GHZ):           3.30370     1.08446     0.98953
 Zero-point vibrational energy     413867.1 (Joules/Mol)
                                   98.91660 (Kcal/Mol)
 Warning -- explicit consideration of  12 degrees of freedom as
           vibrations may cause significant error
 Vibrational temperatures:    156.61   196.35   230.60   276.18   387.99
          (Kelvin)            411.18   466.46   589.94   626.19   637.77
                              779.12   824.36  1106.12  1143.90  1192.95
                             1236.55  1271.80  1319.18  1323.69  1416.54
                             1445.84  1460.12  1480.65  1550.24  1559.41
                             1584.70  1598.09  1633.49  1676.27  1682.34
                             1724.40  1793.64  1803.42  1851.87  1869.31
                             1915.71  1964.14  2046.83  2082.44  2140.29
                             2147.05  4362.78  4429.92  4443.58  4488.80
                             4502.52  4563.23  4580.57  4619.20  5475.97
                             5483.15

 Zero-point correction=                           0.157634 (Hartree/Particle)
 Thermal correction to Energy=                    0.166429
 Thermal correction to Enthalpy=                  0.167373
 Thermal correction to Gibbs Free Energy=         0.124388
 Sum of electronic and zero-point Energies=           -422.959282
 Sum of electronic and thermal Energies=              -422.950487
 Sum of electronic and thermal Enthalpies=            -422.949543
 Sum of electronic and thermal Free Energies=         -422.992528

                     E (Thermal)             CV                S
                      KCal/Mol        Cal/Mol-Kelvin    Cal/Mol-Kelvin
 Total                  104.436             33.859             90.469
 Electronic               0.000              0.000              0.000
 Translational            0.889              2.981             40.409
 Rotational               0.889              2.981             28.896
 Vibrational            102.658             27.897             21.165
 Vibration     1          0.606              1.942              3.289
 Vibration     2          0.614              1.917              2.853
 Vibration     3          0.622              1.891              2.547
 Vibration     4          0.634              1.851              2.209
 Vibration     5          0.674              1.729              1.598
 Vibration     6          0.684              1.700              1.499
 Vibration     7          0.709              1.627              1.289
 Vibration     8          0.774              1.448              0.927
 Vibration     9          0.796              1.393              0.842
 Vibration    10          0.803              1.376              0.816
 Vibration    11          0.897              1.158              0.562
 Vibration    12          0.929              1.090              0.499

 Optimization completed.
    -- Stationary point found.
 Normal termination of Gaussian 09 at Tue Jan 28 02:38:23 2020.
