 Gaussian 09, Revision D.01,
 Gaussian 09:  ES64L-G09RevD.01 24-Apr-2013

 -----------------------------
 # b3lyp 6-31G(2df,p) opt Freq
 -----------------------------

 -----
 titel
 -----
 Symbolic Z-matrix:
 Charge =  0 Multiplicity = 1

 SCF Done:  E(RB3LYP) =  -423.227194124     A.U. after   14 cycles
 Optimization completed.
    -- Stationary point found.
 Normal termination of Gaussian 09 at Mon Jan 27 16:21:40 2020.

 ----------------------------------------------------------------------
 #N Geom=AllCheck Guess=TCheck SCRF=Check GenChk RB3LYP/6-31G(2df,p) Fr
 eq
 ----------------------------------------------------------------------

 Structure from the checkpoint file:  "/scratch/puck/g09_57ea4c34-bdf5-47c0-ba07-7a0b38b46d3f/Gau-165315.chk"
 -----
 titel
 -----
 Charge =  0 Multiplicity = 1

                         Standard orientation:
 ---------------------------------------------------------------------
 Center     Atomic      Atomic             Coordinates (Angstroms)
 Number     Number       Type             X           Y           Z
 ---------------------------------------------------------------------
      1          6           0       -1.235936   -0.432500    1.477090
      2          6           0       -1.049533   -0.191336   -0.026688
      3          8           0       -2.186286   -0.681112   -0.739054
      4          6           0       -0.844870    1.309008   -0.335598
      5          6           0        0.539415    1.802804   -0.020223
      6          6           0        1.603297    0.997507    0.087160
      7          6           0        1.499584   -0.464746   -0.109815
      8          8           0        2.450209   -1.202889    0.053521
      9          6           0        0.144239   -0.985460   -0.574717
     10          1           0       -1.377582   -1.499257    1.670298
     11          1           0       -0.374934   -0.085104    2.054950
     12          1           0       -2.119381    0.103958    1.844409
     13          1           0       -2.977517   -0.325888   -0.319460
     14          1           0       -1.051168    1.462223   -1.404144
     15          1           0       -1.587502    1.912098    0.202869
     16          1           0        0.660022    2.875092    0.117863
     17          1           0        2.592357    1.375327    0.325401
     18          1           0        0.122028   -0.913108   -1.670594
     19          1           0        0.065112   -2.044992   -0.320590
 ---------------------------------------------------------------------

 SCF Done:  E(RB3LYP) =  -423.227194124     A.U. after    1 cycles

 The electronic state is 1-A.
 Alpha  occ. eigenvalues --  -19.14222 -19.11962 -10.26249 -10.25220 -10.21528
 Alpha  occ. eigenvalues --  -10.20005 -10.19178 -10.18489 -10.18481  -1.03007
 Alpha  occ. eigenvalues --   -1.02655  -0.84078  -0.76799  -0.73219  -0.70208
 Alpha  occ. eigenvalues --   -0.60825  -0.59638  -0.51457  -0.49226  -0.48607
 Alpha  occ. eigenvalues --   -0.46656  -0.44157  -0.43569  -0.42971  -0.40806
 Alpha  occ. eigenvalues --   -0.39196  -0.37851  -0.37618  -0.36304  -0.34658
 Alpha  occ. eigenvalues --   -0.32252  -0.27866  -0.27049  -0.24004
 Alpha virt. eigenvalues --   -0.05055   0.05738   0.06641   0.09155   0.11669
 Alpha virt. eigenvalues --    0.13535   0.14660   0.15162   0.15550   0.16335
 Alpha virt. eigenvalues --    0.17240   0.19584   0.20327   0.21795   0.22931

 Mulliken charges:
               1
     1  C   -0.427309
     2  C    0.333965
     3  O   -0.467470
     4  C   -0.299953
     5  C   -0.048583
     6  C   -0.142908
     7  C    0.367719
     8  O   -0.334297
     9  C   -0.328501
    10  H    0.131231
    11  H    0.131462
    12  H    0.104384
    13  H    0.274975
    14  H    0.130851
    15  H    0.100464
    16  H    0.109529
    17  H    0.108221
    18  H    0.130779
    19  H    0.125442
 Sum of Mulliken charges =   0.00000

 Dipole moment (field-independent basis, Debye):
    X=             -2.8918    Y=              2.9558    Z=              0.6838  Tot=              4.1913
 Quadrupole moment (field-independent basis, Debye-Ang):
   XX=            -56.9436   YY=            -53.0419   ZZ=            -53.7234
   XY=              3.0216   XZ=             -2.8582   YZ=             -0.6778

  Exact polarizability:  91.005  -7.598  82.725   2.069   0.382  59.598
 Approx polarizability: 139.079 -26.990 130.517   7.372  -0.293  90.481

                      1                      2                      3
                      A                      A                      A
 Frequencies --     92.8222               147.6821               235.5820
 Red. masses --      4.0635                 2.9700                 1.2053
 Frc consts  --      0.0206                 0.0382                 0.0394
 IR Inten    --      2.3555                 0.8509                 0.3500

                      4                      5                      6
                      A                      A                      A
 Frequencies --    271.9104               294.9336               310.7635
 Red. masses --      1.0506                 2.6684                 2.6067
 Frc consts  --      0.0458                 0.1368                 0.1483
 IR Inten    --     77.8995                 8.6014                 5.5711

                      7                      8                      9
                      A                      A                      A
 Frequencies --    333.4398               378.5673               439.2003
 Red. masses --      2.3622                 3.1923                 3.1664
 Frc consts  --      0.1547                 0.2696                 0.3599
 IR Inten    --      4.7044                 0.3466                 9.3100

                     10                     11                     12
                      A                      A                      A
 Frequencies --    473.5524               478.4479               511.5357
 Red. masses --      4.1238                 4.1522                 3.3277
 Frc consts  --      0.5449                 0.5600                 0.5130
 IR Inten    --      8.8861                 4.1953                11.3606

                     13                     14                     15
                      A                      A                      A
 Frequencies --    593.9612               679.5259               760.3517
 Red. masses --      2.1838                 5.8101                 1.3883
 Frc consts  --      0.4539                 1.5807                 0.4729
 IR Inten    --      2.1263                 1.0087                20.1023

                     16                     17                     18
                      A                      A                      A
 Frequencies --    805.4182               860.3791               918.9619
 Red. masses --      2.7571                 2.7343                 2.1253
 Frc consts  --      1.0538                 1.1925                 1.0574
 IR Inten    --      2.1104                 1.2959                 5.8198

                     19                     20                     21
                      A                      A                      A
 Frequencies --    932.5113               959.4536               985.1785
 Red. masses --      2.1573                 2.2209                 1.9386
 Frc consts  --      1.1053                 1.2046                 1.1086
 IR Inten    --     14.8193                16.2734                 1.3628

                     22                     23                     24
                      A                      A                      A
 Frequencies --   1001.1874              1024.2141              1088.9264
 Red. masses --      1.9720                 1.2414                 1.8031
 Frc consts  --      1.1646                 0.7672                 1.2597
 IR Inten    --      6.8870                 0.1425                 5.5489

                     25                     26                     27
                      A                      A                      A
 Frequencies --   1111.3537              1135.8809              1173.6840
 Red. masses --      1.5013                 2.1312                 1.1556
 Frc consts  --      1.0925                 1.6201                 0.9379
 IR Inten    --     51.0176                62.2737                 3.9733

                     28                     29                     30
                      A                      A                      A
 Frequencies --   1218.6327              1252.9675              1282.9660
 Red. masses --      1.4154                 1.8982                 1.8648
 Frc consts  --      1.2384                 1.7558                 1.8084
 IR Inten    --      2.0387                30.5677                15.4922

                     31                     32                     33
                      A                      A                      A
 Frequencies --   1300.9570              1340.6609              1398.0577
 Red. masses --      1.8324                 1.8325                 1.7270
 Frc consts  --      1.8272                 1.9406                 1.9888
 IR Inten    --     11.8523                64.9162                17.7300

                     34                     35                     36
                      A                      A                      A
 Frequencies --   1403.1865              1408.1165              1456.7241
 Red. masses --      1.6060                 1.3459                 1.0839
 Frc consts  --      1.8631                 1.5723                 1.3552
 IR Inten    --     19.8626                16.0073                 5.0707

                     37                     38                     39
                      A                      A                      A
 Frequencies --   1468.5484              1496.3189              1498.5504
 Red. masses --      1.0802                 1.0629                 1.0781
 Frc consts  --      1.3725                 1.4022                 1.4265
 IR Inten    --      1.6211                 2.1775                 6.1300

                     40                     41                     42
                      A                      A                      A
 Frequencies --   1681.7376              1778.2461              3011.3273
 Red. masses --      6.6902                11.5883                 1.0597
 Frc consts  --     11.1483                21.5901                 5.6615
 IR Inten    --     18.1249               223.8503                14.8524

                     43                     44                     45
                      A                      A                      A
 Frequencies --   3027.5706              3030.8643              3044.0631
 Red. masses --      1.0500                 1.0576                 1.0993
 Frc consts  --      5.6706                 5.7241                 6.0017
 IR Inten    --     21.5986                 0.7528                23.3828

                     46                     47                     48
                      A                      A                      A
 Frequencies --   3099.0647              3109.1927              3125.4332
 Red. masses --      1.0954                 1.0950                 1.1021
 Frc consts  --      6.1986                 6.2365                 6.3431
 IR Inten    --     18.8234                 9.7536                17.0087

                     49                     50                     51
                      A                      A                      A
 Frequencies --   3151.6236              3192.3550              3802.8183
 Red. masses --      1.0872                 1.0953                 1.0660
 Frc consts  --      6.3624                 6.5765                 9.0825
 IR Inten    --     12.2874                 9.9853                12.4280

 - Thermochemistry -
 -------------------
 Temperature   298.150 Kelvin.  Pressure   1.00000 Atm.
 Atom     1 has atomic number  6 and mass  12.00000

 Molecular mass:   126.06808 amu.
 Principal axes and moments of inertia in atomic units:
                           1         2         3
     Eigenvalues --   708.700781273.019071581.35698
           X            0.99963   0.02070  -0.01759
           Y           -0.02092   0.99970  -0.01242
           Z            0.01733   0.01278   0.99977
 This molecule is an asymmetric top.
 Rotational symmetry number  1.
 Warning -- assumption of classical behavior for rotation
           may cause significant error
 Rotational temperatures (Kelvin)      0.12221     0.06804     0.05477
 Rotational constants (GHZ):           2.54655     1.41769     1.14126
 Zero-point vibrational energy     416177.3 (Joules/Mol)
                                   99.46876 (Kcal/Mol)
 Warning -- explicit consideration of  13 degrees of freedom as
           vibrations may cause significant error
 Vibrational temperatures:    133.55   212.48   338.95   391.22   424.34
          (Kelvin)            447.12   479.74   544.67   631.91   681.34
                              688.38   735.98   854.58   977.68  1093.98
                             1158.82  1237.89  1322.18  1341.67  1380.44
                             1417.45  1440.48  1473.61  1566.72  1598.99
                             1634.28  1688.67  1753.34  1802.74  1845.90
                             1871.78  1928.91  2011.49  2018.87  2025.96
                             2095.90  2112.91  2152.87  2156.08  2419.64
                             2558.50  4332.62  4355.99  4360.73  4379.72
                             4458.86  4473.43  4496.80  4534.48  4593.08
                             5471.40

 Zero-point correction=                           0.158514 (Hartree/Particle)
 Thermal correction to Energy=                    0.167188
 Thermal correction to Enthalpy=                  0.168132
 Thermal correction to Gibbs Free Energy=         0.125656
 Sum of electronic and zero-point Energies=           -423.068681
 Sum of electronic and thermal Energies=              -423.060007
 Sum of electronic and thermal Enthalpies=            -423.059062
 Sum of electronic and thermal Free Energies=         -423.101539

                     E (Thermal)             CV                S
                      KCal/Mol        Cal/Mol-Kelvin    Cal/Mol-Kelvin
 Total                  104.912             33.852             89.399
 Electronic               0.000              0.000              0.000
 Translational            0.889              2.981             40.409
 Rotational               0.889              2.981             28.747
 Vibrational            103.134             27.891             20.243
 Vibration     1          0.602              1.954              3.600
 Vibration     2          0.617              1.905              2.702
 Vibration     3          0.655              1.786              1.836
 Vibration     4          0.675              1.725              1.584
 Vibration     5          0.689              1.683              1.445
 Vibration     6          0.700              1.653              1.358
 Vibration     7          0.715              1.609              1.243
 Vibration     8          0.749              1.516              1.045
 Vibration     9          0.799              1.385              0.829
 Vibration    10          0.830              1.309              0.728
 Vibration    11          0.835              1.298              0.714
 Vibration    12          0.867              1.224              0.630
 Vibration    13          0.952              1.045              0.460

 Optimization completed.
    -- Stationary point found.
 Normal termination of Gaussian 09 at Mon Jan 27 17:05:22 2020.
