 Gaussian 09, Revision D.01,
 Gaussian 09:  ES64L-G09RevD.01 24-Apr-2013

 -----------------------------
 # b3lyp 6-31G(2df,p) opt Freq
 -----------------------------

 -----
 titel
 -----
 Symbolic Z-matrix:
 Charge =  0 Multiplicity = 1

 SCF Done:  E(RB3LYP) =  -423.173299619     A.U. after   14 cycles
 Optimization completed.
    -- Stationary point found.
 Normal termination of Gaussian 09 at Mon Jan 27 22:51:23 2020.

 ----------------------------------------------------------------------
 #N Geom=AllCheck Guess=TCheck SCRF=Check GenChk RB3LYP/6-31G(2df,p) Fr
 eq
 ----------------------------------------------------------------------

 Structure from the checkpoint file:  "/scratch/puck/g09_94847bc7-6193-43d3-ade8-a5dc6e597122/Gau-101073.chk"
 -----
 titel
 -----
 Charge =  0 Multiplicity = 1

                         Standard orientation:
 ---------------------------------------------------------------------
 Center     Atomic      Atomic             Coordinates (Angstroms)
 Number     Number       Type             X           Y           Z
 ---------------------------------------------------------------------
      1          6           0       -2.160633   -0.474221    1.020162
      2          6           0       -1.069583   -0.258636   -0.029248
      3          8           0       -1.352951   -1.205857   -1.059837
      4          6           0       -1.047725    1.177348   -0.547596
      5          6           0        0.064330    1.833656   -0.209235
      6          6           0        1.022622    0.950016    0.515312
      7          6           0        1.528661   -0.223505   -0.316533
      8          8           0        2.667133   -0.914998    0.092967
      9          6           0        0.336281   -0.404619    0.574258
     10          1           0       -2.013186    0.194307    1.872212
     11          1           0       -3.146082   -0.281014    0.586899
     12          1           0       -2.137862   -1.510857    1.370637
     13          1           0       -0.636021   -1.162053   -1.701559
     14          1           0       -1.872940    1.569602   -1.131298
     15          1           0        0.291681    2.863417   -0.463311
     16          1           0        1.649759    1.316792    1.319716
     17          1           0        1.386425   -0.150287   -1.397397
     18          1           0        3.438972   -0.411339   -0.186792
     19          1           0        0.482076   -1.061962    1.423129
 ---------------------------------------------------------------------

 SCF Done:  E(RB3LYP) =  -423.173299619     A.U. after    1 cycles

 The electronic state is 1-A.
 Alpha  occ. eigenvalues --  -19.14994 -19.12777 -10.24249 -10.23844 -10.19272
 Alpha  occ. eigenvalues --  -10.18788 -10.18564 -10.17646 -10.16857  -1.03598
 Alpha  occ. eigenvalues --   -1.01189  -0.87891  -0.76676  -0.73324  -0.64288
 Alpha  occ. eigenvalues --   -0.60865  -0.56183  -0.54800  -0.53981  -0.50027
 Alpha  occ. eigenvalues --   -0.47317  -0.43373  -0.41596  -0.41272  -0.39313
 Alpha  occ. eigenvalues --   -0.37661  -0.37105  -0.35546  -0.34351  -0.31744
 Alpha  occ. eigenvalues --   -0.29221  -0.28253  -0.26223  -0.22782
 Alpha virt. eigenvalues --    0.00868   0.07525   0.08519   0.10697   0.13402
 Alpha virt. eigenvalues --    0.13690   0.14274   0.15930   0.16402   0.18147
 Alpha virt. eigenvalues --    0.18221   0.19043   0.21409   0.22385   0.23420

 Mulliken charges:
               1
     1  C   -0.413400
     2  C    0.352930
     3  O   -0.469578
     4  C   -0.151260
     5  C   -0.095510
     6  C   -0.143676
     7  C    0.073542
     8  O   -0.428937
     9  C   -0.110616
    10  H    0.118443
    11  H    0.119560
    12  H    0.122419
    13  H    0.272873
    14  H    0.099012
    15  H    0.098071
    16  H    0.093235
    17  H    0.076707
    18  H    0.288237
    19  H    0.097948
 Sum of Mulliken charges =   0.00000

 Dipole moment (field-independent basis, Debye):
    X=              1.6016    Y=              1.9562    Z=             -0.3927  Tot=              2.5585
 Quadrupole moment (field-independent basis, Debye-Ang):
   XX=            -50.1128   YY=            -55.5327   ZZ=            -51.1757
   XY=              1.2807   XZ=             -2.8968   YZ=             -0.6477

  Exact polarizability:  91.437   3.136  74.512   1.766  -1.584  64.157
 Approx polarizability: 132.041   8.960 114.306   6.679   1.461  98.498

                      1                      2                      3
                      A                      A                      A
 Frequencies --    143.7066               159.1419               227.2744
 Red. masses --      3.1986                 3.1946                 1.1205
 Frc consts  --      0.0389                 0.0477                 0.0341
 IR Inten    --      1.0734                 1.6849                 8.7220

                      4                      5                      6
                      A                      A                      A
 Frequencies --    254.1102               281.0368               319.2997
 Red. masses --      3.2340                 1.1250                 2.6994
 Frc consts  --      0.1230                 0.0524                 0.1622
 IR Inten    --      4.2559                55.8794                 9.3799

                      7                      8                      9
                      A                      A                      A
 Frequencies --    329.6948               356.1302               396.4757
 Red. masses --      1.1897                 3.0696                 3.1484
 Frc consts  --      0.0762                 0.2294                 0.2916
 IR Inten    --     95.4848                 7.9563                 4.7597

                     10                     11                     12
                      A                      A                      A
 Frequencies --    440.5581               481.8881               576.1734
 Red. masses --      3.4172                 3.6910                 3.5725
 Frc consts  --      0.3908                 0.5050                 0.6988
 IR Inten    --      9.9933                11.3403                 2.2828

                     13                     14                     15
                      A                      A                      A
 Frequencies --    608.3730               736.8898               789.1343
 Red. masses --      4.0167                 3.4181                 1.6337
 Frc consts  --      0.8759                 1.0936                 0.5994
 IR Inten    --      6.3824                 2.1838                30.8450

                     16                     17                     18
                      A                      A                      A
 Frequencies --    829.0571               870.0500               913.4908
 Red. masses --      2.2306                 2.5008                 3.5678
 Frc consts  --      0.9033                 1.1153                 1.7541
 IR Inten    --      5.3948                 9.0354                 2.6460

                     19                     20                     21
                      A                      A                      A
 Frequencies --    929.2805               949.8529               972.2592
 Red. masses --      2.2733                 1.9859                 1.4115
 Frc consts  --      1.1567                 1.0556                 0.7861
 IR Inten    --      5.4953                21.0021                 4.0452

                     22                     23                     24
                      A                      A                      A
 Frequencies --    981.2077              1005.7256              1046.3542
 Red. masses --      1.7670                 2.0280                 1.8761
 Frc consts  --      1.0023                 1.2086                 1.2102
 IR Inten    --      7.7864                 2.1792                35.4836

                     25                     26                     27
                      A                      A                      A
 Frequencies --   1063.6408              1087.5660              1124.2711
 Red. masses --      1.2914                 1.1958                 1.3460
 Frc consts  --      0.8608                 0.8333                 1.0024
 IR Inten    --      8.6188                11.5841                23.7798

                     28                     29                     30
                      A                      A                      A
 Frequencies --   1144.5078              1170.2988              1196.0319
 Red. masses --      2.0831                 2.8296                 2.4689
 Frc consts  --      1.6077                 2.2833                 2.0808
 IR Inten    --     81.1988                28.7478                28.2008

                     31                     32                     33
                      A                      A                      A
 Frequencies --   1223.9543              1265.3669              1295.2487
 Red. masses --      2.1290                 1.3633                 1.4014
 Frc consts  --      1.8791                 1.2861                 1.3852
 IR Inten    --     11.6424                24.1108                67.8562

                     34                     35                     36
                      A                      A                      A
 Frequencies --   1302.5397              1345.9888              1391.6701
 Red. masses --      1.6035                 1.5286                 1.6488
 Frc consts  --      1.6028                 1.6317                 1.8815
 IR Inten    --     39.3522                21.9541                53.3489

                     37                     38                     39
                      A                      A                      A
 Frequencies --   1404.7236              1445.5020              1482.3578
 Red. masses --      1.3892                 2.2044                 1.0534
 Frc consts  --      1.6151                 2.7137                 1.3638
 IR Inten    --     15.4075                29.5926                 2.0523

                     40                     41                     42
                      A                      A                      A
 Frequencies --   1492.2206              1662.8542              3041.0379
 Red. masses --      1.0577                 6.6661                 1.0343
 Frc consts  --      1.3877                10.8599                 5.6358
 IR Inten    --      1.3316                 2.7358                17.6498

                     43                     44                     45
                      A                      A                      A
 Frequencies --   3063.8125              3114.7525              3126.4725
 Red. masses --      1.0868                 1.1017                 1.1023
 Frc consts  --      6.0106                 6.2975                 6.3482
 IR Inten    --     32.8194                16.8032                18.9057

                     46                     47                     48
                      A                      A                      A
 Frequencies --   3176.1195              3183.7771              3190.6603
 Red. masses --      1.0869                 1.0876                 1.0917
 Frc consts  --      6.4599                 6.4951                 6.5480
 IR Inten    --      4.4185                15.8939                 8.3091

                     49                     50                     51
                      A                      A                      A
 Frequencies --   3208.6979              3802.9837              3807.7491
 Red. masses --      1.1038                 1.0661                 1.0656
 Frc consts  --      6.6956                 9.0845                 9.1028
 IR Inten    --     14.2173                28.9853                 5.7551

 - Thermochemistry -
 -------------------
 Temperature   298.150 Kelvin.  Pressure   1.00000 Atm.
 Atom     1 has atomic number  6 and mass  12.00000

 Molecular mass:   126.06808 amu.
 Principal axes and moments of inertia in atomic units:
                           1         2         3
     Eigenvalues --   667.880221308.593641556.15514
           X            0.99970   0.01203  -0.02116
           Y           -0.01278   0.99927  -0.03592
           Z            0.02071   0.03618   0.99913
 This molecule is an asymmetric top.
 Rotational symmetry number  1.
 Warning -- assumption of classical behavior for rotation
           may cause significant error
 Rotational temperatures (Kelvin)      0.12968     0.06619     0.05566
 Rotational constants (GHZ):           2.70219     1.37915     1.15974
 Zero-point vibrational energy     415175.8 (Joules/Mol)
                                   99.22939 (Kcal/Mol)
 Warning -- explicit consideration of  13 degrees of freedom as
           vibrations may cause significant error
 Vibrational temperatures:    206.76   228.97   327.00   365.61   404.35
          (Kelvin)            459.40   474.36   512.39   570.44   633.86
                              693.33   828.98   875.31  1060.22  1135.39
                             1192.83  1251.81  1314.31  1337.03  1366.62
                             1398.86  1411.74  1447.01  1505.47  1530.34
                             1564.76  1617.57  1646.69  1683.80  1720.82
                             1760.99  1820.58  1863.57  1874.06  1936.58
                             2002.30  2021.08  2079.75  2132.78  2146.97
                             2392.47  4375.37  4408.14  4481.43  4498.29
                             4569.72  4580.74  4590.64  4616.59  5471.64
                             5478.49

 Zero-point correction=                           0.158132 (Hartree/Particle)
 Thermal correction to Energy=                    0.166809
 Thermal correction to Enthalpy=                  0.167753
 Thermal correction to Gibbs Free Energy=         0.125547
 Sum of electronic and zero-point Energies=           -423.015168
 Sum of electronic and thermal Energies=              -423.006490
 Sum of electronic and thermal Enthalpies=            -423.005546
 Sum of electronic and thermal Free Energies=         -423.047753

                     E (Thermal)             CV                S
                      KCal/Mol        Cal/Mol-Kelvin    Cal/Mol-Kelvin
 Total                  104.674             34.373             88.832
 Electronic               0.000              0.000              0.000
 Translational            0.889              2.981             40.409
 Rotational               0.889              2.981             28.699
 Vibrational            102.897             28.412             19.724
 Vibration     1          0.616              1.909              2.754
 Vibration     2          0.621              1.892              2.560
 Vibration     3          0.651              1.799              1.900
 Vibration     4          0.665              1.756              1.702
 Vibration     5          0.681              1.709              1.527
 Vibration     6          0.705              1.637              1.314
 Vibration     7          0.712              1.616              1.262
 Vibration     8          0.732              1.563              1.139
 Vibration     9          0.763              1.478              0.976
 Vibration    10          0.800              1.382              0.825
 Vibration    11          0.838              1.290              0.705
 Vibration    12          0.933              1.083              0.493
 Vibration    13          0.967              1.014              0.435

 Normal termination of Gaussian 09 at Mon Jan 27 23:34:56 2020.
