 Gaussian 09, Revision D.01,
 Gaussian 09:  ES64L-G09RevD.01 24-Apr-2013

 -----------------------------
 # b3lyp 6-31G(2df,p) opt Freq
 -----------------------------

 -----
 titel
 -----
 Symbolic Z-matrix:
 Charge =  0 Multiplicity = 1

 SCF Done:  E(RB3LYP) =  -423.179398422     A.U. after   13 cycles
 Optimization completed.
    -- Stationary point found.
 Normal termination of Gaussian 09 at Mon Jan 27 22:13:14 2020.

 ----------------------------------------------------------------------
 #N Geom=AllCheck Guess=TCheck SCRF=Check GenChk RB3LYP/6-31G(2df,p) Fr
 eq
 ----------------------------------------------------------------------

 Structure from the checkpoint file:  "/scratch/puck/g09_75d988eb-0814-4a00-a2ad-86adf905091f/Gau-28427.chk"
 -----
 titel
 -----
 Charge =  0 Multiplicity = 1

                         Standard orientation:
 ---------------------------------------------------------------------
 Center     Atomic      Atomic             Coordinates (Angstroms)
 Number     Number       Type             X           Y           Z
 ---------------------------------------------------------------------
      1          6           0       -2.721818   -0.976412    0.291290
      2          6           0       -1.506065   -0.121018    0.114672
      3          6           0       -1.449564    1.109704   -0.412924
      4          6           0       -0.056427    1.696446   -0.402071
      5          6           0        0.804040    0.555522    0.122051
      6          8           0        1.922290    0.918258    0.856258
      7          6           0        0.845284   -0.725673   -0.656913
      8          8           0        2.032751   -1.439017   -0.437222
      9          6           0       -0.142233   -0.588436    0.505562
     10          1           0       -2.630771   -1.920272   -0.261285
     11          1           0       -2.864627   -1.246128    1.345508
     12          1           0       -3.625884   -0.465905   -0.051836
     13          1           0       -2.303676    1.649017   -0.807653
     14          1           0        0.273242    2.037160   -1.391346
     15          1           0        0.022393    2.561921    0.269941
     16          1           0        2.560306    0.199277    0.747704
     17          1           0        0.451266   -0.778176   -1.672554
     18          1           0        1.815994   -2.364228   -0.283710
     19          1           0        0.022138   -1.207387    1.382954
 ---------------------------------------------------------------------

 SCF Done:  E(RB3LYP) =  -423.179398422     A.U. after    1 cycles

 The electronic state is 1-A.
 Alpha  occ. eigenvalues --  -19.16039 -19.13303 -10.23495 -10.23338 -10.18637
 Alpha  occ. eigenvalues --  -10.18206 -10.18189 -10.18035 -10.17149  -1.05000
 Alpha  occ. eigenvalues --   -1.01428  -0.87033  -0.76832  -0.73456  -0.65801
 Alpha  occ. eigenvalues --   -0.61688  -0.55933  -0.53861  -0.52666  -0.50363
 Alpha  occ. eigenvalues --   -0.45813  -0.43062  -0.41627  -0.40942  -0.40009
 Alpha  occ. eigenvalues --   -0.37954  -0.37608  -0.35960  -0.35035  -0.33967
 Alpha  occ. eigenvalues --   -0.31205  -0.28506  -0.23559  -0.21364
 Alpha virt. eigenvalues --    0.02500   0.06427   0.10516   0.12015   0.12912
 Alpha virt. eigenvalues --    0.13731   0.14486   0.14856   0.16338   0.17494
 Alpha virt. eigenvalues --    0.17890   0.19540   0.20984   0.22673   0.23150

 Mulliken charges:
               1
     1  C   -0.496479
     2  C    0.345664
     3  C   -0.189747
     4  C   -0.330342
     5  C    0.435099
     6  O   -0.481223
     7  C    0.006126
     8  O   -0.438441
     9  C   -0.297772
    10  H    0.122468
    11  H    0.126124
    12  H    0.123703
    13  H    0.086978
    14  H    0.109729
    15  H    0.119557
    16  H    0.290806
    17  H    0.090023
    18  H    0.294674
    19  H    0.083052
 Sum of Mulliken charges =   0.00000

 Dipole moment (field-independent basis, Debye):
    X=             -1.0976    Y=             -2.1787    Z=             -0.5203  Tot=              2.4944
 Quadrupole moment (field-independent basis, Debye-Ang):
   XX=            -53.9629   YY=            -48.5145   ZZ=            -54.0924
   XY=             -3.4425   XZ=              0.1620   YZ=             -2.5715

  Exact polarizability:  86.236   0.568  85.818   0.499  -6.244  60.834
 Approx polarizability: 114.757   0.831 134.525   0.590 -11.782  96.336

                      1                      2                      3
                      A                      A                      A
 Frequencies --    143.2642               178.1522               223.4701
 Red. masses --      3.4837                 1.2203                 2.6412
 Frc consts  --      0.0421                 0.0228                 0.0777
 IR Inten    --      1.9511                 0.0172                 1.5672

                      4                      5                      6
                      A                      A                      A
 Frequencies --    234.0371               268.3929               285.3446
 Red. masses --      3.0699                 1.9507                 2.0264
 Frc consts  --      0.0991                 0.0828                 0.0972
 IR Inten    --      3.7640                14.6892                 5.6593

                      7                      8                      9
                      A                      A                      A
 Frequencies --    306.2625               391.3148               430.2569
 Red. masses --      1.8875                 2.8714                 1.2711
 Frc consts  --      0.1043                 0.2591                 0.1386
 IR Inten    --     49.7735                 3.9514                48.7148

                     10                     11                     12
                      A                      A                      A
 Frequencies --    436.8615               491.5304               541.1484
 Red. masses --      2.3419                 3.8837                 3.0975
 Frc consts  --      0.2633                 0.5528                 0.5344
 IR Inten    --     47.0249                30.2737                 1.9142

                     13                     14                     15
                      A                      A                      A
 Frequencies --    604.7108               703.0553               753.4215
 Red. masses --      3.9352                 4.5688                 3.9793
 Frc consts  --      0.8478                 1.3305                 1.3308
 IR Inten    --      1.9991                 4.3954                 1.5570

                     16                     17                     18
                      A                      A                      A
 Frequencies --    808.3292               836.0129               933.5263
 Red. masses --      1.2797                 2.9254                 2.8018
 Frc consts  --      0.4927                 1.2047                 1.4386
 IR Inten    --     13.9696                16.4316                 1.1723

                     19                     20                     21
                      A                      A                      A
 Frequencies --    939.6667               965.8474               997.7324
 Red. masses --      1.8116                 1.7439                 1.9276
 Frc consts  --      0.9425                 0.9585                 1.1306
 IR Inten    --      9.6692                 2.9670                11.1922

                     22                     23                     24
                      A                      A                      A
 Frequencies --   1011.0599              1044.4922              1052.0430
 Red. masses --      2.1411                 1.7995                 1.3971
 Frc consts  --      1.2895                 1.1567                 0.9110
 IR Inten    --      3.4833                 6.8891                25.2479

                     25                     26                     27
                      A                      A                      A
 Frequencies --   1068.4154              1119.9899              1156.3127
 Red. masses --      1.6290                 2.9994                 1.3080
 Frc consts  --      1.0956                 2.2168                 1.0304
 IR Inten    --     15.1702                82.0814                28.7571

                     28                     29                     30
                      A                      A                      A
 Frequencies --   1174.6060              1195.5791              1237.2187
 Red. masses --      1.7001                 1.8677                 2.0707
 Frc consts  --      1.3820                 1.5730                 1.8675
 IR Inten    --      9.9997                27.5290                 8.6187

                     31                     32                     33
                      A                      A                      A
 Frequencies --   1269.2055              1286.0392              1341.5178
 Red. masses --      1.2783                 1.4512                 1.6296
 Frc consts  --      1.2132                 1.4141                 1.7279
 IR Inten    --    104.5943                 3.1666                67.1488

                     34                     35                     36
                      A                      A                      A
 Frequencies --   1347.7073              1413.5978              1416.4751
 Red. masses --      2.4906                 1.3566                 1.8012
 Frc consts  --      2.6653                 1.5971                 2.1292
 IR Inten    --     13.0089                 1.5833                 6.0304

                     37                     38                     39
                      A                      A                      A
 Frequencies --   1445.7015              1478.6717              1479.5665
 Red. masses --      2.4685                 1.0449                 1.1469
 Frc consts  --      3.0397                 1.3460                 1.4792
 IR Inten    --     71.8732                 5.9989                 3.5021

                     40                     41                     42
                      A                      A                      A
 Frequencies --   1489.6521              1700.2901              3016.3501
 Red. masses --      1.0627                 6.7576                 1.0379
 Frc consts  --      1.3895                11.5103                 5.5638
 IR Inten    --      5.4757                 2.7802                32.0613

                     43                     44                     45
                      A                      A                      A
 Frequencies --   3017.7566              3049.7192              3062.0100
 Red. masses --      1.0610                 1.1002                 1.0985
 Frc consts  --      5.6926                 6.0289                 6.0684
 IR Inten    --     36.1224                19.9368                19.1364

                     46                     47                     48
                      A                      A                      A
 Frequencies --   3091.4903              3109.3622              3155.1090
 Red. masses --      1.0886                 1.0991                 1.0900
 Frc consts  --      6.1300                 6.2607                 6.3929
 IR Inten    --     26.9142                20.6864                14.9829

                     49                     50                     51
                      A                      A                      A
 Frequencies --   3191.8467              3747.6662              3811.7936
 Red. masses --      1.0933                 1.0647                 1.0666
 Frc consts  --      6.5624                 8.8105                 9.1305
 IR Inten    --     14.3004                61.2528                30.9183

 - Thermochemistry -
 -------------------
 Temperature   298.150 Kelvin.  Pressure   1.00000 Atm.
 Atom     1 has atomic number  6 and mass  12.00000

 Molecular mass:   126.06808 amu.
 Principal axes and moments of inertia in atomic units:
                           1         2         3
     Eigenvalues --   666.971441303.880691698.17059
           X            0.99986   0.01671  -0.00306
           Y           -0.01681   0.99916  -0.03746
           Z            0.00243   0.03750   0.99929
 This molecule is an asymmetric top.
 Rotational symmetry number  1.
 Warning -- assumption of classical behavior for rotation
           may cause significant error
 Rotational temperatures (Kelvin)      0.12986     0.06643     0.05100
 Rotational constants (GHZ):           2.70587     1.38413     1.06276
 Zero-point vibrational energy     415424.7 (Joules/Mol)
                                   99.28888 (Kcal/Mol)
 Warning -- explicit consideration of  13 degrees of freedom as
           vibrations may cause significant error
 Vibrational temperatures:    206.12   256.32   321.52   336.73   386.16
          (Kelvin)            410.55   440.64   563.01   619.04   628.55
                              707.20   778.59   870.04  1011.54  1084.00
                             1163.00  1202.83  1343.13  1351.97  1389.64
                             1435.51  1454.69  1502.79  1513.65  1537.21
                             1611.41  1663.67  1689.99  1720.17  1780.08
                             1826.10  1850.32  1930.14  1939.05  2033.85
                             2037.99  2080.04  2127.48  2128.76  2143.27
                             2446.34  4339.85  4341.87  4387.86  4405.54
                             4447.96  4473.67  4539.49  4592.35  5392.05
                             5484.31

 Zero-point correction=                           0.158227 (Hartree/Particle)
 Thermal correction to Energy=                    0.166935
 Thermal correction to Enthalpy=                  0.167880
 Thermal correction to Gibbs Free Energy=         0.125566
 Sum of electronic and zero-point Energies=           -423.021172
 Sum of electronic and thermal Energies=              -423.012463
 Sum of electronic and thermal Enthalpies=            -423.011519
 Sum of electronic and thermal Free Energies=         -423.053832

                     E (Thermal)             CV                S
                      KCal/Mol        Cal/Mol-Kelvin    Cal/Mol-Kelvin
 Total                  104.754             34.226             89.056
 Electronic               0.000              0.000              0.000
 Translational            0.889              2.981             40.409
 Rotational               0.889              2.981             28.781
 Vibrational            102.976             28.264             19.867
 Vibration     1          0.616              1.910              2.760
 Vibration     2          0.629              1.869              2.348
 Vibration     3          0.649              1.805              1.931
 Vibration     4          0.654              1.789              1.848
 Vibration     5          0.673              1.731              1.607
 Vibration     6          0.683              1.701              1.501
 Vibration     7          0.697              1.662              1.382
 Vibration     8          0.759              1.489              0.995
 Vibration     9          0.791              1.404              0.858
 Vibration    10          0.797              1.390              0.837
 Vibration    11          0.847              1.269              0.680
 Vibration    12          0.896              1.159              0.563
 Vibration    13          0.963              1.022              0.442

 Normal termination of Gaussian 09 at Tue Jan 28 00:24:15 2020.
