 Gaussian 09, Revision D.01,
 Gaussian 09:  ES64L-G09RevD.01 24-Apr-2013

 -----------------------------
 # b3lyp 6-31G(2df,p) opt Freq
 -----------------------------

 -----
 titel
 -----
 Symbolic Z-matrix:
 Charge =  0 Multiplicity = 1

 SCF Done:  E(RB3LYP) =  -423.169239393     A.U. after   13 cycles
 Optimization completed.
    -- Stationary point found.
 Normal termination of Gaussian 09 at Mon Jan 27 22:55:43 2020.

 ----------------------------------------------------------------------
 #N Geom=AllCheck Guess=TCheck SCRF=Check GenChk RB3LYP/6-31G(2df,p) Fr
 eq
 ----------------------------------------------------------------------

 Structure from the checkpoint file:  "/scratch/puck/g09_984d6264-d664-435c-98a6-5b3ee386183d/Gau-75292.chk"
 -----
 titel
 -----
 Charge =  0 Multiplicity = 1

                         Standard orientation:
 ---------------------------------------------------------------------
 Center     Atomic      Atomic             Coordinates (Angstroms)
 Number     Number       Type             X           Y           Z
 ---------------------------------------------------------------------
      1          6           0       -2.605744   -0.662235    0.316704
      2          6           0       -1.461324    0.047908   -0.395574
      3          8           0       -0.409854   -0.923903   -0.536274
      4          6           0        0.811751   -0.440893   -1.031771
      5          6           0        1.896922   -0.431941    0.013993
      6          8           0        1.605206   -0.942890    1.266400
      7          6           0        1.284922    0.886213   -0.480472
      8          6           0        0.296704    1.641981    0.321436
      9          6           0       -0.983024    1.274370    0.347477
     10          1           0       -2.308862   -0.949004    1.330316
     11          1           0       -3.475739   -0.002530    0.385800
     12          1           0       -2.892243   -1.563574   -0.230856
     13          1           0       -1.797164    0.339834   -1.404793
     14          1           0        1.014596   -0.725737   -2.061811
     15          1           0        2.919139   -0.635494   -0.290832
     16          1           0        0.686296   -1.244322    1.215446
     17          1           0        1.932448    1.479764   -1.120587
     18          1           0        0.643431    2.507017    0.879419
     19          1           0       -1.725962    1.835972    0.906134
 ---------------------------------------------------------------------

 SCF Done:  E(RB3LYP) =  -423.169239393     A.U. after    1 cycles

 The electronic state is 1-A.
 Alpha  occ. eigenvalues --  -19.15520 -19.13272 -10.24343 -10.23493 -10.23395
 Alpha  occ. eigenvalues --  -10.19087 -10.18904 -10.18279 -10.18207  -1.05399
 Alpha  occ. eigenvalues --   -1.01510  -0.84374  -0.80111  -0.73321  -0.63691
 Alpha  occ. eigenvalues --   -0.62600  -0.59307  -0.53861  -0.51445  -0.49971
 Alpha  occ. eigenvalues --   -0.48054  -0.44960  -0.44419  -0.41287  -0.39094
 Alpha  occ. eigenvalues --   -0.38547  -0.37368  -0.36857  -0.35967  -0.33985
 Alpha  occ. eigenvalues --   -0.28748  -0.27586  -0.25797  -0.22291
 Alpha virt. eigenvalues --    0.00745   0.08182   0.10325   0.11329   0.12032
 Alpha virt. eigenvalues --    0.12793   0.15355   0.16085   0.16716   0.17310
 Alpha virt. eigenvalues --    0.17619   0.18119   0.20735   0.20966   0.23261

 Mulliken charges:
               1
     1  C   -0.400236
     2  C    0.088971
     3  O   -0.289293
     4  C    0.007990
     5  C    0.107918
     6  O   -0.420936
     7  C   -0.174611
     8  C   -0.071857
     9  C   -0.081018
    10  H    0.125203
    11  H    0.119630
    12  H    0.127429
    13  H    0.088618
    14  H    0.092094
    15  H    0.101907
    16  H    0.288955
    17  H    0.095916
    18  H    0.099138
    19  H    0.094182
 Sum of Mulliken charges =   0.00000

 Dipole moment (field-independent basis, Debye):
    X=             -1.1906    Y=              1.1234    Z=             -1.3091  Tot=              2.0960
 Quadrupole moment (field-independent basis, Debye-Ang):
   XX=            -50.3922   YY=            -53.7316   ZZ=            -53.9726
   XY=              1.3473   XZ=             -4.6511   YZ=              0.9845

  Exact polarizability:  95.950   1.653  70.655  -3.847   2.678  64.445
 Approx polarizability: 137.879   3.712 105.250  -2.285   2.198  98.211

                      1                      2                      3
                      A                      A                      A
 Frequencies --     87.3392               145.9705               230.2042
 Red. masses --      3.7260                 4.2164                 1.0887
 Frc consts  --      0.0167                 0.0529                 0.0340
 IR Inten    --      0.4194                 1.9821                 0.1558

                      4                      5                      6
                      A                      A                      A
 Frequencies --    254.2687               304.1040               352.1454
 Red. masses --      4.4628                 2.5941                 3.4961
 Frc consts  --      0.1700                 0.1413                 0.2554
 IR Inten    --      4.4712                 1.1425                 3.4565

                      7                      8                      9
                      A                      A                      A
 Frequencies --    428.6553               437.8164               506.5833
 Red. masses --      1.1850                 3.0691                 3.5180
 Frc consts  --      0.1283                 0.3466                 0.5319
 IR Inten    --     53.0320                 3.7888                 6.5151

                     10                     11                     12
                      A                      A                      A
 Frequencies --    565.2728               588.9135               665.8725
 Red. masses --      3.2049                 3.7945                 3.4880
 Frc consts  --      0.6034                 0.7754                 0.9112
 IR Inten    --     10.6858                 9.2428                 4.0104

                     13                     14                     15
                      A                      A                      A
 Frequencies --    735.4386               763.3187               789.1773
 Red. masses --      2.4676                 2.1279                 1.9525
 Frc consts  --      0.7863                 0.7305                 0.7165
 IR Inten    --     23.1362                 8.8755                12.4894

                     16                     17                     18
                      A                      A                      A
 Frequencies --    818.9966               871.6990               923.0053
 Red. masses --      2.2423                 3.8022                 2.3167
 Frc consts  --      0.8862                 1.7023                 1.1629
 IR Inten    --      8.4334                18.3095                 7.3785

                     19                     20                     21
                      A                      A                      A
 Frequencies --    941.9355               983.7188              1014.2571
 Red. masses --      3.0311                 1.3156                 1.7916
 Frc consts  --      1.5845                 0.7501                 1.0859
 IR Inten    --     11.9604                 6.4508                33.0303

                     22                     23                     24
                      A                      A                      A
 Frequencies --   1052.7784              1053.7535              1092.2094
 Red. masses --      1.7198                 1.7367                 1.7355
 Frc consts  --      1.1230                 1.1362                 1.2198
 IR Inten    --     24.3463                26.0931                 6.9506

                     25                     26                     27
                      A                      A                      A
 Frequencies --   1109.9595              1122.7536              1159.8433
 Red. masses --      1.3843                 1.9879                 2.2781
 Frc consts  --      1.0048                 1.4764                 1.8056
 IR Inten    --      7.2834                26.5072                45.8836

                     28                     29                     30
                      A                      A                      A
 Frequencies --   1169.8758              1206.0091              1229.3960
 Red. masses --      2.1714                 1.2667                 1.6837
 Frc consts  --      1.7510                 1.0855                 1.4994
 IR Inten    --      2.8435                18.5923                60.5096

                     31                     32                     33
                      A                      A                      A
 Frequencies --   1312.5910              1337.2101              1341.9457
 Red. masses --      1.2166                 1.5908                 1.3568
 Frc consts  --      1.2350                 1.6760                 1.4396
 IR Inten    --      1.8587                 3.3927                15.1532

                     34                     35                     36
                      A                      A                      A
 Frequencies --   1358.4873              1387.6476              1407.7031
 Red. masses --      1.5313                 1.7071                 1.3074
 Frc consts  --      1.6651                 1.9367                 1.5264
 IR Inten    --      2.5205                22.2133                 8.0842

                     37                     38                     39
                      A                      A                      A
 Frequencies --   1421.2611              1449.3434              1485.6554
 Red. masses --      1.6961                 1.5648                 1.0554
 Frc consts  --      2.0185                 1.9366                 1.3725
 IR Inten    --      8.9657                78.6185                 1.8790

                     40                     41                     42
                      A                      A                      A
 Frequencies --   1497.1203              1708.6449              2959.9406
 Red. masses --      1.0512                 7.2632                 1.0815
 Frc consts  --      1.3882                12.4934                 5.5827
 IR Inten    --      1.9523                 8.5159                42.1688

                     43                     44                     45
                      A                      A                      A
 Frequencies --   3043.1625              3116.1688              3119.9116
 Red. masses --      1.0349                 1.1016                 1.0888
 Frc consts  --      5.6467                 6.3023                 6.2444
 IR Inten    --     15.3981                21.6428                29.2444

                     46                     47                     48
                      A                      A                      A
 Frequencies --   3127.1226              3138.2279              3156.6837
 Red. masses --      1.1022                 1.0869                 1.0901
 Frc consts  --      6.3506                 6.3068                 6.3999
 IR Inten    --     16.4847                 7.3764                32.1521

                     49                     50                     51
                      A                      A                      A
 Frequencies --   3160.3762              3182.1727              3724.9256
 Red. masses --      1.0850                 1.0983                 1.0644
 Frc consts  --      6.3851                 6.5527                 8.7017
 IR Inten    --     14.5956                20.5751                46.3306

 - Thermochemistry -
 -------------------
 Temperature   298.150 Kelvin.  Pressure   1.00000 Atm.
 Atom     1 has atomic number  6 and mass  12.00000

 Molecular mass:   126.06808 amu.
 Principal axes and moments of inertia in atomic units:
                           1         2         3
     Eigenvalues --   646.038791232.850271421.28324
           X            0.99928   0.02434  -0.02927
           Y           -0.02386   0.99958   0.01646
           Z            0.02966  -0.01575   0.99944
 This molecule is an asymmetric top.
 Rotational symmetry number  1.
 Warning -- assumption of classical behavior for rotation
           may cause significant error
 Rotational temperatures (Kelvin)      0.13407     0.07025     0.06094
 Rotational constants (GHZ):           2.79355     1.46388     1.26980
 Zero-point vibrational energy     418941.6 (Joules/Mol)
                                  100.12946 (Kcal/Mol)
 Warning -- explicit consideration of  11 degrees of freedom as
           vibrations may cause significant error
 Vibrational temperatures:    125.66   210.02   331.21   365.84   437.54
          (Kelvin)            506.66   616.74   629.92   728.86   813.30
                              847.31   958.04  1058.13  1098.24  1135.45
                             1178.35  1254.18  1328.00  1355.23  1415.35
                             1459.29  1514.71  1516.11  1571.44  1596.98
                             1615.39  1668.75  1683.19  1735.18  1768.82
                             1888.52  1923.94  1930.76  1954.56  1996.51
                             2025.37  2044.88  2085.28  2137.52  2154.02
                             2458.36  4258.69  4378.43  4483.47  4488.85
                             4499.23  4515.20  4541.76  4547.07  4578.43
                             5359.33

 Zero-point correction=                           0.159566 (Hartree/Particle)
 Thermal correction to Energy=                    0.167682
 Thermal correction to Enthalpy=                  0.168626
 Thermal correction to Gibbs Free Energy=         0.127115
 Sum of electronic and zero-point Energies=           -423.009673
 Sum of electronic and thermal Energies=              -423.001558
 Sum of electronic and thermal Enthalpies=            -423.000614
 Sum of electronic and thermal Free Energies=         -423.042124

                     E (Thermal)             CV                S
                      KCal/Mol        Cal/Mol-Kelvin    Cal/Mol-Kelvin
 Total                  105.222             32.104             87.367
 Electronic               0.000              0.000              0.000
 Translational            0.889              2.981             40.409
 Rotational               0.889              2.981             28.517
 Vibrational            103.444             26.143             18.441
 Vibration     1          0.601              1.958              3.719
 Vibration     2          0.617              1.907              2.724
 Vibration     3          0.652              1.795              1.877
 Vibration     4          0.665              1.756              1.701
 Vibration     5          0.695              1.666              1.394
 Vibration     6          0.729              1.571              1.157
 Vibration     7          0.790              1.408              0.863
 Vibration     8          0.798              1.388              0.834
 Vibration     9          0.862              1.235              0.642
 Vibration    10          0.921              1.106              0.513
 Vibration    11          0.946              1.055              0.469

 Optimization completed.
    -- Stationary point found.
 Normal termination of Gaussian 09 at Mon Jan 27 23:41:15 2020.
