 Gaussian 09, Revision D.01,
 Gaussian 09:  ES64L-G09RevD.01 24-Apr-2013

 -----------------------------
 # b3lyp 6-31G(2df,p) opt Freq
 -----------------------------

 -----
 titel
 -----
 Symbolic Z-matrix:
 Charge =  0 Multiplicity = 1

 SCF Done:  E(RB3LYP) =  -423.124403635     A.U. after   14 cycles
 Optimization completed.
    -- Stationary point found.
 Normal termination of Gaussian 09 at Mon Jan 27 14:25:44 2020.

 ----------------------------------------------------------------------
 #N Geom=AllCheck Guess=TCheck SCRF=Check GenChk RB3LYP/6-31G(2df,p) Fr
 eq
 ----------------------------------------------------------------------

 Structure from the checkpoint file:  "/scratch/puck/g09_f561d755-223e-41c2-88b4-092c570a340f/Gau-31301.chk"
 -----
 titel
 -----
 Charge =  0 Multiplicity = 1

                         Standard orientation:
 ---------------------------------------------------------------------
 Center     Atomic      Atomic             Coordinates (Angstroms)
 Number     Number       Type             X           Y           Z
 ---------------------------------------------------------------------
      1          6           0       -2.084905   -1.320707   -0.417841
      2          6           0       -0.946472   -0.396192    0.032898
      3          8           0       -0.633733   -0.781442    1.366740
      4          6           0        0.300072   -0.587456   -0.872819
      5          6           0        1.422055    0.372061   -0.547747
      6          6           0        2.789263   -0.087678   -0.274910
      7          8           0        1.935135    0.315439    0.799792
      8          6           0       -1.396572    1.009764   -0.015787
      9          6           0       -1.758776    2.155507   -0.059956
     10          1           0       -2.427582   -1.059776   -1.422207
     11          1           0       -1.736773   -2.357452   -0.410279
     12          1           0       -2.923649   -1.229984    0.275752
     13          1           0        0.227194   -0.398233    1.585627
     14          1           0        0.633798   -1.621395   -0.736163
     15          1           0        0.018590   -0.457095   -1.923615
     16          1           0        1.287036    1.391788   -0.904054
     17          1           0        3.013630   -1.152310   -0.319314
     18          1           0        3.633072    0.574387   -0.460070
     19          1           0       -2.084519    3.166306   -0.080953
 ---------------------------------------------------------------------

 SCF Done:  E(RB3LYP) =  -423.124403635     A.U. after    1 cycles

 The electronic state is 1-A.
 Alpha  occ. eigenvalues --  -19.16535 -19.12592 -10.26180 -10.24856 -10.24565
 Alpha  occ. eigenvalues --  -10.19716 -10.17785 -10.17684 -10.17362  -1.08162
 Alpha  occ. eigenvalues --   -1.01470  -0.80347  -0.74127  -0.72118  -0.67523
 Alpha  occ. eigenvalues --   -0.62308  -0.60370  -0.53806  -0.51918  -0.50030
 Alpha  occ. eigenvalues --   -0.48267  -0.46746  -0.42561  -0.41339  -0.38590
 Alpha  occ. eigenvalues --   -0.38336  -0.37935  -0.36745  -0.34733  -0.31224
 Alpha  occ. eigenvalues --   -0.28239  -0.28056  -0.26512  -0.26055
 Alpha virt. eigenvalues --    0.04551   0.05497   0.08354   0.09310   0.10496
 Alpha virt. eigenvalues --    0.11575   0.12153   0.12812   0.14191   0.15844
 Alpha virt. eigenvalues --    0.17011   0.17905   0.19443   0.20537   0.22204

 Mulliken charges:
               1
     1  C   -0.399196
     2  C    0.165329
     3  O   -0.449686
     4  C   -0.268939
     5  C    0.081295
     6  C   -0.183257
     7  O   -0.245266
     8  C    0.363455
     9  C   -0.518320
    10  H    0.118902
    11  H    0.119264
    12  H    0.136725
    13  H    0.299017
    14  H    0.110259
    15  H    0.112036
    16  H    0.115709
    17  H    0.121978
    18  H    0.123203
    19  H    0.197492
 Sum of Mulliken charges =   0.00000

 Dipole moment (field-independent basis, Debye):
    X=              1.4186    Y=              0.1605    Z=             -2.6205  Tot=              2.9841
 Quadrupole moment (field-independent basis, Debye-Ang):
   XX=            -49.5426   YY=            -49.4445   ZZ=            -55.9949
   XY=             -2.2295   XZ=             -0.7265   YZ=              0.8149

  Exact polarizability:  86.477  -6.387  85.408   0.973  -0.651  59.656
 Approx polarizability: 109.026 -14.197 132.968   2.595  -3.699  96.372

                      1                      2                      3
                      A                      A                      A
 Frequencies --     64.7396               109.7594               156.6249
 Red. masses --      5.0019                 3.3085                 3.4144
 Frc consts  --      0.0124                 0.0235                 0.0494
 IR Inten    --      0.9296                 1.8677                 3.3523

                      4                      5                      6
                      A                      A                      A
 Frequencies --    190.7580               214.6295               236.6361
 Red. masses --      3.1162                 2.9759                 1.1374
 Frc consts  --      0.0668                 0.0808                 0.0375
 IR Inten    --      0.6020                 1.1112                 0.7548

                      7                      8                      9
                      A                      A                      A
 Frequencies --    302.6219               367.6405               393.7348
 Red. masses --      4.0554                 3.0436                 3.3731
 Frc consts  --      0.2188                 0.2424                 0.3081
 IR Inten    --      2.5521                 7.2100                 2.2570

                     10                     11                     12
                      A                      A                      A
 Frequencies --    415.0872               471.3882               478.0205
 Red. masses --      2.7917                 2.6965                 1.1185
 Frc consts  --      0.2834                 0.3530                 0.1506
 IR Inten    --      5.8400                 9.3831                97.2549

                     13                     14                     15
                      A                      A                      A
 Frequencies --    566.1654               627.6076               637.7602
 Red. masses --      5.6670                 4.3475                 1.2293
 Frc consts  --      1.0703                 1.0089                 0.2946
 IR Inten    --     10.7195                 6.1849                45.0398

                     16                     17                     18
                      A                      A                      A
 Frequencies --    657.4865               726.8573               784.5292
 Red. masses --      1.2576                 3.7464                 4.5298
 Frc consts  --      0.3203                 1.1662                 1.6427
 IR Inten    --     39.1228                 4.2167                13.1250

                     19                     20                     21
                      A                      A                      A
 Frequencies --    864.2996               892.6896               933.9109
 Red. masses --      1.9658                 2.5027                 2.6306
 Frc consts  --      0.8652                 1.1751                 1.3518
 IR Inten    --     25.0336                 7.8309                 5.2813

                     22                     23                     24
                      A                      A                      A
 Frequencies --    954.0518               976.7394              1062.2021
 Red. masses --      1.6928                 2.1939                 1.8847
 Frc consts  --      0.9078                 1.2332                 1.2528
 IR Inten    --     22.5279                12.9946                16.8943

                     25                     26                     27
                      A                      A                      A
 Frequencies --   1082.0389              1105.2522              1155.0246
 Red. masses --      1.5505                 1.6078                 1.4435
 Frc consts  --      1.0696                 1.1572                 1.1346
 IR Inten    --     23.0707                16.7353                 6.8900

                     28                     29                     30
                      A                      A                      A
 Frequencies --   1170.6034              1184.3831              1201.9294
 Red. masses --      1.3645                 2.2974                 2.5273
 Frc consts  --      1.1016                 1.8988                 2.1511
 IR Inten    --      4.4286                25.5884                24.7235

                     31                     32                     33
                      A                      A                      A
 Frequencies --   1282.8032              1297.4292              1322.9789
 Red. masses --      1.5142                 1.6350                 1.3608
 Frc consts  --      1.4681                 1.6215                 1.4033
 IR Inten    --     31.9801                 6.5202                 4.2126

                     34                     35                     36
                      A                      A                      A
 Frequencies --   1398.8521              1429.8709              1438.2326
 Red. masses --      1.2174                 1.4027                 1.5321
 Frc consts  --      1.4035                 1.6896                 1.8672
 IR Inten    --     15.0591                82.4702                10.8501

                     37                     38                     39
                      A                      A                      A
 Frequencies --   1463.0340              1479.7609              1493.4437
 Red. masses --      1.1801                 1.0548                 1.0511
 Frc consts  --      1.4882                 1.3608                 1.3813
 IR Inten    --      7.8053                 1.3317                 1.2464

                     40                     41                     42
                      A                      A                      A
 Frequencies --   1526.4818              2226.0017              3041.5249
 Red. masses --      1.3131                 5.8966                 1.0561
 Frc consts  --      1.8027                17.2148                 5.7565
 IR Inten    --      1.3899                 0.6226                 7.3878

                     43                     44                     45
                      A                      A                      A
 Frequencies --   3049.4458              3089.4421              3091.3846
 Red. masses --      1.0366                 1.0538                 1.0997
 Frc consts  --      5.6795                 5.9260                 6.1919
 IR Inten    --     21.0291                22.9060                11.9633

                     46                     47                     48
                      A                      A                      A
 Frequencies --   3127.2720              3134.5159              3137.2290
 Red. masses --      1.1022                 1.0900                 1.1026
 Frc consts  --      6.3509                 6.3099                 6.3936
 IR Inten    --     17.0531                18.1511                13.5840

                     49                     50                     51
                      A                      A                      A
 Frequencies --   3179.3344              3499.6189              3742.8294
 Red. masses --      1.1193                 1.1620                 1.0660
 Frc consts  --      6.6660                 8.3853                 8.7984
 IR Inten    --     22.4884                60.8818               134.6057

 - Thermochemistry -
 -------------------
 Temperature   298.150 Kelvin.  Pressure   1.00000 Atm.
 Atom     1 has atomic number  6 and mass  12.00000

 Molecular mass:   126.06808 amu.
 Principal axes and moments of inertia in atomic units:
                           1         2         3
     Eigenvalues --   710.460801503.364851742.96497
           X            0.99991   0.01326  -0.00102
           Y           -0.01322   0.99935   0.03353
           Z            0.00146  -0.03351   0.99944
 This molecule is an asymmetric top.
 Rotational symmetry number  1.
 Warning -- assumption of classical behavior for rotation
           may cause significant error
 Rotational temperatures (Kelvin)      0.12191     0.05761     0.04969
 Rotational constants (GHZ):           2.54024     1.20047     1.03544
 Zero-point vibrational energy     409342.1 (Joules/Mol)
                                   97.83511 (Kcal/Mol)
 Warning -- explicit consideration of  13 degrees of freedom as
           vibrations may cause significant error
 Vibrational temperatures:     93.15   157.92   225.35   274.46   308.80
          (Kelvin)            340.47   435.40   528.95   566.50   597.22
                              678.22   687.76   814.58   902.99   917.59
                              945.98  1045.78  1128.76  1243.53  1284.38
                             1343.69  1372.67  1405.31  1528.27  1556.81
                             1590.21  1661.82  1684.24  1704.06  1729.31
                             1845.67  1866.71  1903.47  2012.63  2057.26
                             2069.29  2104.98  2129.04  2148.73  2196.26
                             3202.72  4376.07  4387.47  4445.01  4447.81
                             4499.44  4509.86  4513.77  4574.35  5035.16
                             5385.09

 Zero-point correction=                           0.155910 (Hartree/Particle)
 Thermal correction to Energy=                    0.165629
 Thermal correction to Enthalpy=                  0.166574
 Thermal correction to Gibbs Free Energy=         0.121509
 Sum of electronic and zero-point Energies=           -422.968493
 Sum of electronic and thermal Energies=              -422.958774
 Sum of electronic and thermal Enthalpies=            -422.957830
 Sum of electronic and thermal Free Energies=         -423.002894

                     E (Thermal)             CV                S
                      KCal/Mol        Cal/Mol-Kelvin    Cal/Mol-Kelvin
 Total                  103.934             36.535             94.846
 Electronic               0.000              0.000              0.000
 Translational            0.889              2.981             40.409
 Rotational               0.889              2.981             29.011
 Vibrational            102.157             30.573             25.426
 Vibration     1          0.597              1.971              4.307
 Vibration     2          0.606              1.941              3.273
 Vibration     3          0.620              1.895              2.590
 Vibration     4          0.634              1.853              2.220
 Vibration     5          0.645              1.819              2.004
 Vibration     6          0.656              1.785              1.828
 Vibration     7          0.694              1.669              1.402
 Vibration     8          0.740              1.539              1.090
 Vibration     9          0.761              1.484              0.986
 Vibration    10          0.778              1.437              0.909
 Vibration    11          0.828              1.314              0.734
 Vibration    12          0.835              1.299              0.715
 Vibration    13          0.922              1.104              0.512

 Optimization completed.
    -- Stationary point found.
 Normal termination of Gaussian 09 at Mon Jan 27 15:03:47 2020.
