 Gaussian 09, Revision D.01,
 Gaussian 09:  ES64L-G09RevD.01 24-Apr-2013

 -----------------------------
 # b3lyp 6-31G(2df,p) opt Freq
 -----------------------------

 -----
 titel
 -----
 Symbolic Z-matrix:
 Charge =  0 Multiplicity = 1

 SCF Done:  E(RB3LYP) =  -423.145449788     A.U. after   14 cycles
 Optimization completed.
    -- Stationary point found.
 Normal termination of Gaussian 09 at Tue Jan 28 14:02:51 2020.

 ----------------------------------------------------------------------
 #N Geom=AllCheck Guess=TCheck SCRF=Check GenChk RB3LYP/6-31G(2df,p) Fr
 eq
 ----------------------------------------------------------------------

 Structure from the checkpoint file:  "/scratch/puck/g09_0afe9226-fa65-4b97-91d9-5480b4c4bdb0/Gau-143664.chk"
 -----
 titel
 -----
 Charge =  0 Multiplicity = 1

                         Standard orientation:
 ---------------------------------------------------------------------
 Center     Atomic      Atomic             Coordinates (Angstroms)
 Number     Number       Type             X           Y           Z
 ---------------------------------------------------------------------
      1          6           0       -2.037681   -1.581902    0.209378
      2          8           0       -0.840289   -1.325465   -0.504149
      3          6           0        0.193694   -0.816051    0.294211
      4          6           0        1.512728   -0.748161   -0.469479
      5          6           0        2.556915   -0.112137    0.403473
      6          6           0        1.566608    0.769967   -0.299651
      7          6           0        0.219914    0.771526    0.445026
      8          6           0       -0.886136    1.417946   -0.350824
      9          8           0       -1.785595    2.058154    0.134484
     10          1           0       -2.477828   -0.664022    0.620862
     11          1           0       -2.741073   -2.025023   -0.498775
     12          1           0       -1.862996   -2.289887    1.033102
     13          1           0        0.232327   -1.353673    1.254861
     14          1           0        1.748913   -1.366859   -1.325601
     15          1           0        2.522205   -0.231205    1.484348
     16          1           0        3.560356   -0.101303   -0.009204
     17          1           0        1.877743    1.527942   -1.008932
     18          1           0        0.209107    1.170400    1.463315
     19          1           0       -0.817933    1.264985   -1.449464
 ---------------------------------------------------------------------

 SCF Done:  E(RB3LYP) =  -423.145449788     A.U. after    1 cycles

 The electronic state is 1-A.
 Alpha  occ. eigenvalues --  -19.15262 -19.13524 -10.26654 -10.25047 -10.22880
 Alpha  occ. eigenvalues --  -10.20657 -10.20126 -10.19976 -10.19769  -1.04782
 Alpha  occ. eigenvalues --   -1.04008  -0.90595  -0.75337  -0.71240  -0.64773
 Alpha  occ. eigenvalues --   -0.60233  -0.58903  -0.54423  -0.52273  -0.49302
 Alpha  occ. eigenvalues --   -0.48056  -0.45729  -0.43827  -0.43101  -0.42276
 Alpha  occ. eigenvalues --   -0.40865  -0.38731  -0.35910  -0.34282  -0.31754
 Alpha  occ. eigenvalues --   -0.31153  -0.28523  -0.25890  -0.24093
 Alpha virt. eigenvalues --   -0.02246   0.08158   0.10152   0.10353   0.10757
 Alpha virt. eigenvalues --    0.12906   0.13888   0.15033   0.15588   0.16175
 Alpha virt. eigenvalues --    0.16374   0.17033   0.18522   0.20832   0.21778

 Mulliken charges:
               1
     1  C   -0.256996
     2  O   -0.248240
     3  C    0.135864
     4  C   -0.074751
     5  C   -0.301280
     6  C   -0.051933
     7  C   -0.150230
     8  C    0.172954
     9  O   -0.269365
    10  H    0.131170
    11  H    0.132579
    12  H    0.110228
    13  H    0.071634
    14  H    0.100421
    15  H    0.111611
    16  H    0.120906
    17  H    0.094666
    18  H    0.084016
    19  H    0.086746
 Sum of Mulliken charges =   0.00000

 Dipole moment (field-independent basis, Debye):
    X=              1.9866    Y=             -1.6086    Z=              0.2022  Tot=              2.5642
 Quadrupole moment (field-independent basis, Debye-Ang):
   XX=            -52.8197   YY=            -57.4789   ZZ=            -52.1659
   XY=              6.2879   XZ=             -0.7351   YZ=             -2.7878

  Exact polarizability:  89.317  -1.709  73.831  -0.430  -0.300  66.133
 Approx polarizability: 118.873  -7.841 109.468  -2.825   3.502 104.145

                      1                      2                      3
                      A                      A                      A
 Frequencies --     51.6903               107.3509               132.0929
 Red. masses --      6.1016                 3.0476                 2.5968
 Frc consts  --      0.0096                 0.0207                 0.0267
 IR Inten    --      5.5873                 2.3458                 2.2009

                      4                      5                      6
                      A                      A                      A
 Frequencies --    180.2154               213.0847               262.6762
 Red. masses --      1.1821                 3.0439                 2.5753
 Frc consts  --      0.0226                 0.0814                 0.1047
 IR Inten    --      0.2115                 2.3234                 6.5946

                      7                      8                      9
                      A                      A                      A
 Frequencies --    323.7139               367.1441               451.4102
 Red. masses --      2.7635                 4.2022                 3.2181
 Frc consts  --      0.1706                 0.3337                 0.3864
 IR Inten    --      3.4320                 2.3365                 1.8428

                     10                     11                     12
                      A                      A                      A
 Frequencies --    484.0483               518.6214               753.7298
 Red. masses --      4.4673                 3.5883                 2.3562
 Frc consts  --      0.6167                 0.5686                 0.7887
 IR Inten    --      8.4201                 7.5546                 1.1059

                     13                     14                     15
                      A                      A                      A
 Frequencies --    777.4721               807.6173               902.8035
 Red. masses --      1.8335                 2.3554                 1.9267
 Frc consts  --      0.6530                 0.9052                 0.9253
 IR Inten    --      8.6513                 2.0254                17.1725

                     16                     17                     18
                      A                      A                      A
 Frequencies --    923.1526               948.0241               969.5838
 Red. masses --      2.6991                 2.0561                 2.2411
 Frc consts  --      1.3552                 1.0887                 1.2413
 IR Inten    --      6.8791                 9.7834                 8.9000

                     19                     20                     21
                      A                      A                      A
 Frequencies --   1005.4320              1039.0357              1049.4915
 Red. masses --      1.6823                 2.7260                 1.6011
 Frc consts  --      1.0020                 1.7339                 1.0390
 IR Inten    --      1.3194                17.8895                 7.9912

                     22                     23                     24
                      A                      A                      A
 Frequencies --   1064.9259              1087.0564              1090.1242
 Red. masses --      1.3062                 1.6897                 1.4537
 Frc consts  --      0.8728                 1.1764                 1.0179
 IR Inten    --      1.8189                 2.7494                 7.7572

                     25                     26                     27
                      A                      A                      A
 Frequencies --   1114.4614              1152.6208              1186.7341
 Red. masses --      3.0505                 2.5034                 1.3013
 Frc consts  --      2.2323                 1.9596                 1.0798
 IR Inten    --     64.9695                98.8289                 2.3940

                     28                     29                     30
                      A                      A                      A
 Frequencies --   1202.6123              1213.8161              1228.4321
 Red. masses --      1.7897                 1.7657                 1.5971
 Frc consts  --      1.5250                 1.5327                 1.4200
 IR Inten    --     17.6435                15.0116                34.2708

                     31                     32                     33
                      A                      A                      A
 Frequencies --   1244.4455              1286.2833              1304.4636
 Red. masses --      1.3574                 1.5573                 1.7149
 Frc consts  --      1.2385                 1.5181                 1.7193
 IR Inten    --     14.0142                 2.7011                 4.4679

                     34                     35                     36
                      A                      A                      A
 Frequencies --   1351.3469              1394.7009              1430.6536
 Red. masses --      2.4017                 1.3333                 1.2154
 Frc consts  --      2.5841                 1.5281                 1.4657
 IR Inten    --      1.6588                41.6313                 5.7205

                     37                     38                     39
                      A                      A                      A
 Frequencies --   1482.0566              1492.7440              1493.4948
 Red. masses --      1.1194                 1.1347                 1.1500
 Frc consts  --      1.4486                 1.4896                 1.5113
 IR Inten    --      3.7498                 2.4070                 3.8317

                     40                     41                     42
                      A                      A                      A
 Frequencies --   1509.9912              1820.0200              2898.9194
 Red. masses --      1.0614                10.0263                 1.0831
 Frc consts  --      1.4258                19.5679                 5.3629
 IR Inten    --      3.4012               179.3195                70.6871

                     43                     44                     45
                      A                      A                      A
 Frequencies --   2970.2899              2992.3623              3053.0866
 Red. masses --      1.0828                 1.0392                 1.1003
 Frc consts  --      5.6283                 5.4827                 6.0427
 IR Inten    --     42.2958                65.4768                32.2162

                     46                     47                     48
                      A                      A                      A
 Frequencies --   3073.6481              3107.1699              3124.8322
 Red. masses --      1.0861                 1.0579                 1.0988
 Frc consts  --      6.0456                 6.0177                 6.3217
 IR Inten    --     24.9035                20.5868                23.6774

                     49                     50                     51
                      A                      A                      A
 Frequencies --   3176.1188              3196.7845              3206.6981
 Red. masses --      1.0916                 1.1027                 1.1040
 Frc consts  --      6.4879                 6.6393                 6.6884
 IR Inten    --     13.8529                 2.9666                15.7060

 - Thermochemistry -
 -------------------
 Temperature   298.150 Kelvin.  Pressure   1.00000 Atm.
 Atom     1 has atomic number  6 and mass  12.00000

 Molecular mass:   126.06808 amu.
 Principal axes and moments of inertia in atomic units:
                           1         2         3
     Eigenvalues --   803.915431180.581861784.93515
           X            0.99571   0.09247  -0.00362
           Y           -0.09253   0.99547  -0.02182
           Z            0.00159   0.02206   0.99976
 This molecule is an asymmetric top.
 Rotational symmetry number  1.
 Warning -- assumption of classical behavior for rotation
           may cause significant error
 Rotational temperatures (Kelvin)      0.10774     0.07337     0.04852
 Rotational constants (GHZ):           2.24494     1.52869     1.01110
 Zero-point vibrational energy     414023.3 (Joules/Mol)
                                   98.95393 (Kcal/Mol)
 Warning -- explicit consideration of  11 degrees of freedom as
           vibrations may cause significant error
 Vibrational temperatures:     74.37   154.45   190.05   259.29   306.58
          (Kelvin)            377.93   465.75   528.24   649.48   696.44
                              746.18  1084.45  1118.61  1161.98  1298.93
                             1328.21  1363.99  1395.01  1446.59  1494.94
                             1509.98  1532.19  1564.03  1568.44  1603.46
                             1658.36  1707.44  1730.29  1746.41  1767.44
                             1790.48  1850.67  1876.83  1944.28  2006.66
                             2058.39  2132.35  2147.72  2148.80  2172.54
                             2618.60  4170.89  4273.58  4305.34  4392.71
                             4422.29  4470.52  4495.93  4569.72  4599.45
                             4613.72

 Zero-point correction=                           0.157693 (Hartree/Particle)
 Thermal correction to Energy=                    0.166611
 Thermal correction to Enthalpy=                  0.167555
 Thermal correction to Gibbs Free Energy=         0.123433
 Sum of electronic and zero-point Energies=           -422.987757
 Sum of electronic and thermal Energies=              -422.978839
 Sum of electronic and thermal Enthalpies=            -422.977895
 Sum of electronic and thermal Free Energies=         -423.022017

                     E (Thermal)             CV                S
                      KCal/Mol        Cal/Mol-Kelvin    Cal/Mol-Kelvin
 Total                  104.550             32.491             92.863
 Electronic               0.000              0.000              0.000
 Translational            0.889              2.981             40.409
 Rotational               0.889              2.981             28.917
 Vibrational            102.772             26.529             23.537
 Vibration     1          0.596              1.977              4.752
 Vibration     2          0.606              1.943              3.316
 Vibration     3          0.612              1.921              2.915
 Vibration     4          0.629              1.867              2.326
 Vibration     5          0.644              1.821              2.017
 Vibration     6          0.670              1.741              1.644
 Vibration     7          0.708              1.628              1.291
 Vibration     8          0.740              1.540              1.092
 Vibration     9          0.810              1.358              0.792
 Vibration    10          0.840              1.285              0.699
 Vibration    11          0.874              1.209              0.613

 Optimization completed.
    -- Stationary point found.
 Normal termination of Gaussian 09 at Tue Jan 28 14:49:51 2020.
