 Gaussian 09, Revision D.01,
 Gaussian 09:  ES64L-G09RevD.01 24-Apr-2013

 -----------------------------
 # b3lyp 6-31G(2df,p) opt Freq
 -----------------------------

 -----
 titel
 -----
 Symbolic Z-matrix:
 Charge =  0 Multiplicity = 1

 SCF Done:  E(RB3LYP) =  -423.217016572     A.U. after   14 cycles
 Optimization completed.
    -- Stationary point found.
 Normal termination of Gaussian 09 at Mon Jan 27 11:14:38 2020.

 ----------------------------------------------------------------------
 #N Geom=AllCheck Guess=TCheck SCRF=Check GenChk RB3LYP/6-31G(2df,p) Fr
 eq
 ----------------------------------------------------------------------

 Structure from the checkpoint file:  "/scratch/puck/g09_bd8bd690-0cc0-47e2-a217-9a9c938ef9c6/Gau-151676.chk"
 -----
 titel
 -----
 Charge =  0 Multiplicity = 1

                         Standard orientation:
 ---------------------------------------------------------------------
 Center     Atomic      Atomic             Coordinates (Angstroms)
 Number     Number       Type             X           Y           Z
 ---------------------------------------------------------------------
      1          6           0       -3.602400    0.036580   -0.117959
      2          6           0       -2.147587   -0.259003   -0.487737
      3          6           0       -1.149580    0.228034    0.581802
      4          6           0        0.273638   -0.069420    0.267792
      5          6           0        1.362627    0.703894   -0.018542
      6          8           0        1.470898    2.059464   -0.090768
      7          6           0        2.467428   -0.177600   -0.248321
      8          6           0        1.969740   -1.429732   -0.086684
      9          8           0        0.651471   -1.391459    0.224709
     10          1           0       -4.289541   -0.324811   -0.888993
     11          1           0       -3.877410   -0.446631    0.826250
     12          1           0       -3.773010    1.112837    0.000877
     13          1           0       -2.007593   -1.336596   -0.628126
     14          1           0       -1.898651    0.210239   -1.447077
     15          1           0       -1.258266    1.313764    0.713099
     16          1           0       -1.419850   -0.215510    1.550608
     17          1           0        0.615969    2.453791    0.109835
     18          1           0        3.478217    0.104148   -0.495142
     19          1           0        2.407975   -2.411788   -0.154971
 ---------------------------------------------------------------------

 SCF Done:  E(RB3LYP) =  -423.217016572     A.U. after    1 cycles

 The electronic state is 1-A.
 Alpha  occ. eigenvalues --  -19.19240 -19.16583 -10.22766 -10.22304 -10.21519
 Alpha  occ. eigenvalues --  -10.19592 -10.18385 -10.17651 -10.17260  -1.09570
 Alpha  occ. eigenvalues --   -1.05065  -0.80240  -0.78321  -0.74025  -0.67606
 Alpha  occ. eigenvalues --   -0.60322  -0.58978  -0.58097  -0.52106  -0.47498
 Alpha  occ. eigenvalues --   -0.45794  -0.44706  -0.43346  -0.41597  -0.40304
 Alpha  occ. eigenvalues --   -0.38959  -0.38274  -0.37278  -0.35919  -0.34430
 Alpha  occ. eigenvalues --   -0.33701  -0.32973  -0.24686  -0.19819
 Alpha virt. eigenvalues --    0.02489   0.05460   0.09527   0.10506   0.12667
 Alpha virt. eigenvalues --    0.13761   0.14454   0.14913   0.16371   0.17199
 Alpha virt. eigenvalues --    0.17609   0.19193   0.20565   0.22757   0.23718

 Mulliken charges:
               1
     1  C   -0.381903
     2  C   -0.152598
     3  C   -0.320610
     4  C    0.231738
     5  C    0.207406
     6  O   -0.440720
     7  C   -0.250843
     8  C   -0.010173
     9  O   -0.185245
    10  H    0.115397
    11  H    0.116475
    12  H    0.111212
    13  H    0.114810
    14  H    0.099705
    15  H    0.085753
    16  H    0.117286
    17  H    0.295550
    18  H    0.115725
    19  H    0.131036
 Sum of Mulliken charges =   0.00000

 Dipole moment (field-independent basis, Debye):
    X=             -1.1624    Y=              0.3027    Z=              0.1543  Tot=              1.2111
 Quadrupole moment (field-independent basis, Debye-Ang):
   XX=            -51.8385   YY=            -51.0103   ZZ=            -54.8029
   XY=             -4.5808   XZ=             -0.7506   YZ=              1.0945

  Exact polarizability: 103.327  -3.248  81.068  -6.088   0.113  53.560
 Approx polarizability: 136.456   2.136 133.453 -12.390  -2.563  82.461

                      1                      2                      3
                      A                      A                      A
 Frequencies --     47.9172                84.3288               106.3146
 Red. masses --      2.7520                 1.9354                 3.7094
 Frc consts  --      0.0037                 0.0081                 0.0247
 IR Inten    --      0.0358                 0.0918                 0.1338

                      4                      5                      6
                      A                      A                      A
 Frequencies --    237.2624               250.5051               263.0076
 Red. masses --      1.3019                 1.4386                 1.8519
 Frc consts  --      0.0432                 0.0532                 0.0755
 IR Inten    --      0.7318                25.2473                27.5258

                      7                      8                      9
                      A                      A                      A
 Frequencies --    292.5065               315.5642               365.6614
 Red. masses --      2.5808                 2.9983                 4.9220
 Frc consts  --      0.1301                 0.1759                 0.3877
 IR Inten    --     43.9053                 0.6076                 2.5376

                     10                     11                     12
                      A                      A                      A
 Frequencies --    475.9475               621.2105               653.4205
 Red. masses --      3.7187                 4.7182                 5.4767
 Frc consts  --      0.4963                 1.0728                 1.3777
 IR Inten    --     17.6977                 5.7496                 0.2444

                     13                     14                     15
                      A                      A                      A
 Frequencies --    679.6320               736.6642               744.3827
 Red. masses --      4.5567                 1.2185                 1.2884
 Frc consts  --      1.2401                 0.3896                 0.4206
 IR Inten    --      1.6733                18.7093                11.4750

                     16                     17                     18
                      A                      A                      A
 Frequencies --    772.9710               814.9172               862.2982
 Red. masses --      4.3364                 1.2671                 1.3109
 Frc consts  --      1.5265                 0.4958                 0.5743
 IR Inten    --      5.7978                 6.3890                 4.3067

                     19                     20                     21
                      A                      A                      A
 Frequencies --    890.7573               908.5245              1031.0290
 Red. masses --      2.4500                 3.5143                 1.7304
 Frc consts  --      1.1453                 1.7091                 1.0838
 IR Inten    --     10.7871                 5.9140                 8.2982

                     22                     23                     24
                      A                      A                      A
 Frequencies --   1042.6486              1069.0787              1109.0259
 Red. masses --      2.8091                 1.6573                 2.0682
 Frc consts  --      1.7993                 1.1160                 1.4987
 IR Inten    --      0.2802                 2.9076                 1.8255

                     25                     26                     27
                      A                      A                      A
 Frequencies --   1116.2705              1187.4422              1219.1356
 Red. masses --      1.8853                 2.2607                 2.6021
 Frc consts  --      1.3841                 1.8781                 2.2786
 IR Inten    --     22.1875                44.7779                76.4383

                     28                     29                     30
                      A                      A                      A
 Frequencies --   1267.5026              1269.6321              1316.3924
 Red. masses --      2.0790                 1.3778                 1.5633
 Frc consts  --      1.9679                 1.3086                 1.5962
 IR Inten    --     62.4604                35.5133                19.9954

                     31                     32                     33
                      A                      A                      A
 Frequencies --   1321.3726              1341.0690              1383.6219
 Red. masses --      1.2312                 1.4930                 1.5268
 Frc consts  --      1.2665                 1.5820                 1.7222
 IR Inten    --      1.4693                 0.8555                 1.3169

                     34                     35                     36
                      A                      A                      A
 Frequencies --   1412.7972              1467.1006              1491.7986
 Red. masses --      1.2348                 1.1654                 1.0875
 Frc consts  --      1.4521                 1.4778                 1.4259
 IR Inten    --      0.5963                 3.1171                 0.7145

                     37                     38                     39
                      A                      A                      A
 Frequencies --   1499.1648              1500.4637              1509.3695
 Red. masses --      1.0411                 2.9101                 1.0963
 Frc consts  --      1.3786                 3.8601                 1.4716
 IR Inten    --      6.3384                 8.6446                 2.9947

                     40                     41                     42
                      A                      A                      A
 Frequencies --   1549.4413              1679.5117              3000.0726
 Red. masses --      4.6100                 8.4175                 1.0591
 Frc consts  --      6.5208                13.9894                 5.6165
 IR Inten    --      8.0520                79.1929                25.9835

                     43                     44                     45
                      A                      A                      A
 Frequencies --   3028.1951              3030.7471              3037.0445
 Red. masses --      1.0377                 1.0954                 1.0630
 Frc consts  --      5.6063                 5.9281                 5.7770
 IR Inten    --     25.5361                17.4516                33.2045

                     46                     47                     48
                      A                      A                      A
 Frequencies --   3070.9008              3097.5474              3104.3706
 Red. masses --      1.1013                 1.1028                 1.1005
 Frc consts  --      6.1193                 6.2343                 6.2489
 IR Inten    --      3.7018                56.6002                33.1557

                     49                     50                     51
                      A                      A                      A
 Frequencies --   3261.2395              3284.4753              3823.8978
 Red. masses --      1.0892                 1.1070                 1.0657
 Frc consts  --      6.8253                 7.0358                 9.1810
 IR Inten    --      0.6085                 0.7788                26.5933

 - Thermochemistry -
 -------------------
 Temperature   298.150 Kelvin.  Pressure   1.00000 Atm.
 Atom     1 has atomic number  6 and mass  12.00000

 Molecular mass:   126.06808 amu.
 Principal axes and moments of inertia in atomic units:
                           1         2         3
     Eigenvalues --   589.837571802.445912271.52961
           X            0.99993  -0.01197  -0.00110
           Y            0.01198   0.99985   0.01247
           Z            0.00095  -0.01248   0.99992
 This molecule is an asymmetric top.
 Rotational symmetry number  1.
 Warning -- assumption of classical behavior for rotation
           may cause significant error
 Rotational temperatures (Kelvin)      0.14684     0.04805     0.03813
 Rotational constants (GHZ):           3.05973     1.00127     0.79450
 Zero-point vibrational energy     416576.5 (Joules/Mol)
                                   99.56417 (Kcal/Mol)
 Warning -- explicit consideration of  10 degrees of freedom as
           vibrations may cause significant error
 Vibrational temperatures:     68.94   121.33   152.96   341.37   360.42
          (Kelvin)            378.41   420.85   454.03   526.10   684.78
                              893.78   940.13   977.84  1059.89  1071.00
                             1112.13  1172.48  1240.65  1281.60  1307.16
                             1483.42  1500.14  1538.16  1595.64  1606.06
                             1708.46  1754.06  1823.65  1826.72  1893.99
                             1901.16  1929.50  1990.72  2032.70  2110.83
                             2146.36  2156.96  2158.83  2171.64  2229.30
                             2416.44  4316.43  4356.89  4360.56  4369.62
                             4418.34  4456.67  4466.49  4692.19  4725.62
                             5501.73

 Zero-point correction=                           0.158666 (Hartree/Particle)
 Thermal correction to Energy=                    0.167905
 Thermal correction to Enthalpy=                  0.168849
 Thermal correction to Gibbs Free Energy=         0.123859
 Sum of electronic and zero-point Energies=           -423.058351
 Sum of electronic and thermal Energies=              -423.049112
 Sum of electronic and thermal Enthalpies=            -423.048167
 Sum of electronic and thermal Free Energies=         -423.093157

                     E (Thermal)             CV                S
                      KCal/Mol        Cal/Mol-Kelvin    Cal/Mol-Kelvin
 Total                  105.362             33.836             94.689
 Electronic               0.000              0.000              0.000
 Translational            0.889              2.981             40.409
 Rotational               0.889              2.981             29.270
 Vibrational            103.584             27.874             25.011
 Vibration     1          0.595              1.978              4.902
 Vibration     2          0.601              1.960              3.788
 Vibration     3          0.605              1.944              3.335
 Vibration     4          0.656              1.784              1.823
 Vibration     5          0.663              1.762              1.727
 Vibration     6          0.670              1.741              1.642
 Vibration     7          0.688              1.688              1.459
 Vibration     8          0.703              1.644              1.333
 Vibration     9          0.739              1.543              1.098
 Vibration    10          0.833              1.303              0.721

 Optimization completed.
    -- Stationary point found.
 Normal termination of Gaussian 09 at Mon Jan 27 11:54:09 2020.
