 Gaussian 09, Revision D.01,
 Gaussian 09:  ES64L-G09RevD.01 24-Apr-2013

 -----------------------------
 # b3lyp 6-31G(2df,p) opt Freq
 -----------------------------

 -----
 titel
 -----
 Symbolic Z-matrix:
 Charge =  0 Multiplicity = 1

 SCF Done:  E(RB3LYP) =  -423.113835829     A.U. after   14 cycles
 Optimization completed.
    -- Stationary point found.
 Normal termination of Gaussian 09 at Tue Jan 28 00:01:42 2020.

 ----------------------------------------------------------------------
 #N Geom=AllCheck Guess=TCheck SCRF=Check GenChk RB3LYP/6-31G(2df,p) Fr
 eq
 ----------------------------------------------------------------------

 Structure from the checkpoint file:  "/scratch/puck/g09_2b57ef3f-e5dd-4ad6-ae02-6eb10bffe9b7/Gau-51332.chk"
 -----
 titel
 -----
 Charge =  0 Multiplicity = 1

                         Standard orientation:
 ---------------------------------------------------------------------
 Center     Atomic      Atomic             Coordinates (Angstroms)
 Number     Number       Type             X           Y           Z
 ---------------------------------------------------------------------
      1          6           0       -0.253140    2.247709   -0.149927
      2          6           0        0.637669    1.064653   -0.467058
      3          6           0        1.359927    0.404883    0.702255
      4          6           0        2.291024   -0.674773    0.175686
      5          8           0        1.219036   -1.264635   -0.613118
      6          6           0        0.272843   -0.333276   -0.057806
      7          6           0       -1.037303   -0.928910    0.306161
      8          6           0       -2.233653   -0.759577   -0.534968
      9          8           0       -2.089618   -0.048366    0.695397
     10          1           0       -0.997942    2.405821   -0.936509
     11          1           0       -0.795157    2.105528    0.786545
     12          1           0        0.347909    3.160336   -0.070590
     13          1           0        1.186097    1.139568   -1.405835
     14          1           0        1.353358    0.829751    1.697379
     15          1           0        3.137692   -0.359466   -0.446027
     16          1           0        2.636944   -1.380902    0.939566
     17          1           0       -0.961324   -1.837288    0.905285
     18          1           0       -2.166530   -0.151512   -1.434785
     19          1           0       -3.000586   -1.532083   -0.539321
 ---------------------------------------------------------------------

 SCF Done:  E(RB3LYP) =  -423.113835829     A.U. after    1 cycles

 The electronic state is 1-A.
 Alpha  occ. eigenvalues --  -19.15951 -19.13838 -10.24523 -10.24348 -10.23791
 Alpha  occ. eigenvalues --  -10.23502 -10.19629 -10.19414 -10.17658  -1.07956
 Alpha  occ. eigenvalues --   -1.04999  -0.83890  -0.72448  -0.71184  -0.66777
 Alpha  occ. eigenvalues --   -0.64417  -0.57140  -0.54418  -0.50992  -0.49477
 Alpha  occ. eigenvalues --   -0.48546  -0.45412  -0.44499  -0.41020  -0.39693
 Alpha  occ. eigenvalues --   -0.39488  -0.38130  -0.36355  -0.33519  -0.33061
 Alpha  occ. eigenvalues --   -0.31124  -0.27823  -0.26284  -0.23267
 Alpha virt. eigenvalues --    0.05876   0.08694   0.10604   0.11621   0.12008
 Alpha virt. eigenvalues --    0.12771   0.13611   0.14505   0.15227   0.16658
 Alpha virt. eigenvalues --    0.17576   0.18078   0.18725   0.19468   0.21173

 Mulliken charges:
               1
     1  C   -0.423056
     2  C   -0.076949
     3  C   -0.202516
     4  C   -0.102064
     5  O   -0.330818
     6  C    0.463348
     7  C   -0.039499
     8  C   -0.174726
     9  O   -0.227401
    10  H    0.117914
    11  H    0.139371
    12  H    0.113673
    13  H    0.085657
    14  H    0.103452
    15  H    0.103894
    16  H    0.108298
    17  H    0.100407
    18  H    0.120893
    19  H    0.120120
 Sum of Mulliken charges =   0.00000

 Dipole moment (field-independent basis, Debye):
    X=              0.4888    Y=              0.2617    Z=              0.0487  Tot=              0.5566
 Quadrupole moment (field-independent basis, Debye-Ang):
   XX=            -51.4050   YY=            -53.4371   ZZ=            -53.0807
   XY=              3.1497   XZ=              4.7358   YZ=             -2.3412

  Exact polarizability:  88.393  -0.611  75.842   5.911  -2.993  63.943
 Approx polarizability: 118.452  -1.518 108.209   8.035   0.202 102.842

                      1                      2                      3
                      A                      A                      A
 Frequencies --     47.4512               150.0603               194.5302
 Red. masses --      3.3993                 2.5654                 3.0206
 Frc consts  --      0.0045                 0.0340                 0.0673
 IR Inten    --      2.2560                 0.3022                 7.4233

                      4                      5                      6
                      A                      A                      A
 Frequencies --    222.8347               256.4379               273.3398
 Red. masses --      1.2755                 2.4720                 2.8212
 Frc consts  --      0.0373                 0.0958                 0.1242
 IR Inten    --      2.2282                 0.1681                 0.8932

                      7                      8                      9
                      A                      A                      A
 Frequencies --    312.3277               394.7986               474.9715
 Red. masses --      2.9943                 5.0904                 2.9611
 Frc consts  --      0.1721                 0.4675                 0.3936
 IR Inten    --      2.5305                 3.0482                 2.9611

                     10                     11                     12
                      A                      A                      A
 Frequencies --    515.4878               663.9723               746.8964
 Red. masses --      4.5410                 2.5176                 3.0578
 Frc consts  --      0.7109                 0.6539                 1.0050
 IR Inten    --      2.6449                 3.7415                 2.9375

                     13                     14                     15
                      A                      A                      A
 Frequencies --    841.1287               872.0274               888.6805
 Red. masses --      2.5766                 5.6345                 2.6724
 Frc consts  --      1.0740                 2.5244                 1.2435
 IR Inten    --      6.2731                11.8702                21.3347

                     16                     17                     18
                      A                      A                      A
 Frequencies --    926.5053               935.8288               977.1620
 Red. masses --      1.5975                 2.2871                 2.5158
 Frc consts  --      0.8080                 1.1801                 1.4154
 IR Inten    --     31.5054                 9.4695                27.2580

                     19                     20                     21
                      A                      A                      A
 Frequencies --    988.5847               999.1394              1040.6164
 Red. masses --      2.3508                 1.7247                 2.1261
 Frc consts  --      1.3536                 1.0144                 1.3565
 IR Inten    --     43.7074                14.1699                 5.8111

                     22                     23                     24
                      A                      A                      A
 Frequencies --   1058.7653              1077.0960              1101.8360
 Red. masses --      1.6525                 2.5694                 1.2969
 Frc consts  --      1.0915                 1.7563                 0.9276
 IR Inten    --      8.0687                15.5311                 1.0248

                     25                     26                     27
                      A                      A                      A
 Frequencies --   1129.6836              1140.5786              1152.2221
 Red. masses --      1.8261                 1.5559                 1.3736
 Frc consts  --      1.3730                 1.1925                 1.0744
 IR Inten    --      3.4693                 2.1814                 0.8756

                     28                     29                     30
                      A                      A                      A
 Frequencies --   1164.2768              1170.9794              1174.2158
 Red. masses --      2.0119                 1.3465                 1.3485
 Frc consts  --      1.6069                 1.0878                 1.0954
 IR Inten    --     19.4341                 0.9392                 4.3677

                     31                     32                     33
                      A                      A                      A
 Frequencies --   1254.5434              1280.7287              1330.4173
 Red. masses --      1.8427                 1.8261                 1.4216
 Frc consts  --      1.7088                 1.7648                 1.4825
 IR Inten    --      3.0868                 9.7616                 6.9766

                     34                     35                     36
                      A                      A                      A
 Frequencies --   1338.3835              1419.5604              1424.8486
 Red. masses --      1.4521                 1.6295                 1.3583
 Frc consts  --      1.5325                 1.9347                 1.6248
 IR Inten    --      3.5022                 2.3153                 2.4957

                     37                     38                     39
                      A                      A                      A
 Frequencies --   1471.1507              1485.4424              1507.0563
 Red. masses --      2.8892                 1.0492                 1.1497
 Frc consts  --      3.6842                 1.3640                 1.5385
 IR Inten    --      3.1169                 5.9712                 4.7852

                     40                     41                     42
                      A                      A                      A
 Frequencies --   1517.8241              1523.7818              3019.6031
 Red. masses --      1.1485                 1.3607                 1.0546
 Frc consts  --      1.5589                 1.8615                 5.6653
 IR Inten    --      0.2325                 2.0147                90.7358

                     43                     44                     45
                      A                      A                      A
 Frequencies --   3035.9603              3066.9023              3091.2184
 Red. masses --      1.0387                 1.1114                 1.0501
 Frc consts  --      5.6407                 6.1591                 5.9123
 IR Inten    --     32.7955                36.7283                22.0228

                     46                     47                     48
                      A                      A                      A
 Frequencies --   3092.1313              3102.6203              3104.4362
 Red. masses --      1.1008                 1.0871                 1.0879
 Frc consts  --      6.2014                 6.1655                 6.1774
 IR Inten    --     28.6129                30.5952                 9.0043

                     49                     50                     51
                      A                      A                      A
 Frequencies --   3137.5094              3184.5040              3200.7365
 Red. masses --      1.0975                 1.1203                 1.0936
 Frc consts  --      6.3657                 6.6936                 6.6012
 IR Inten    --     15.1956                22.7183                 7.9582

 - Thermochemistry -
 -------------------
 Temperature   298.150 Kelvin.  Pressure   1.00000 Atm.
 Atom     1 has atomic number  6 and mass  12.00000

 Molecular mass:   126.06808 amu.
 Principal axes and moments of inertia in atomic units:
                           1         2         3
     Eigenvalues --   692.848161189.047121610.36095
           X            0.99969   0.01124   0.02240
           Y           -0.01072   0.99967  -0.02314
           Z           -0.02266   0.02289   0.99948
 This molecule is an asymmetric top.
 Rotational symmetry number  1.
 Warning -- assumption of classical behavior for rotation
           may cause significant error
 Rotational temperatures (Kelvin)      0.12501     0.07284     0.05379
 Rotational constants (GHZ):           2.60481     1.51780     1.12071
 Zero-point vibrational energy     415593.4 (Joules/Mol)
                                   99.32921 (Kcal/Mol)
 Warning -- explicit consideration of  10 degrees of freedom as
           vibrations may cause significant error
 Vibrational temperatures:     68.27   215.90   279.89   320.61   368.96
          (Kelvin)            393.27   449.37   568.03   683.38   741.67
                              955.31  1074.62  1210.20  1254.65  1278.61
                             1333.03  1346.45  1405.92  1422.35  1437.54
                             1497.21  1523.33  1549.70  1585.29  1625.36
                             1641.04  1657.79  1675.13  1684.78  1689.43
                             1805.01  1842.68  1914.17  1925.63  2042.43
                             2050.04  2116.66  2137.22  2168.32  2183.81
                             2192.38  4344.53  4368.06  4412.58  4447.57
                             4448.88  4463.97  4466.59  4514.17  4581.79
                             4605.14

 Zero-point correction=                           0.158291 (Hartree/Particle)
 Thermal correction to Energy=                    0.166745
 Thermal correction to Enthalpy=                  0.167689
 Thermal correction to Gibbs Free Energy=         0.124859
 Sum of electronic and zero-point Energies=           -422.955545
 Sum of electronic and thermal Energies=              -422.947091
 Sum of electronic and thermal Enthalpies=            -422.946147
 Sum of electronic and thermal Free Energies=         -422.988976

                     E (Thermal)             CV                S
                      KCal/Mol        Cal/Mol-Kelvin    Cal/Mol-Kelvin
 Total                  104.634             31.808             90.143
 Electronic               0.000              0.000              0.000
 Translational            0.889              2.981             40.409
 Rotational               0.889              2.981             28.674
 Vibrational            102.857             25.846             21.060
 Vibration     1          0.595              1.979              4.921
 Vibration     2          0.618              1.903              2.671
 Vibration     3          0.635              1.847              2.184
 Vibration     4          0.649              1.806              1.936
 Vibration     5          0.666              1.752              1.686
 Vibration     6          0.676              1.723              1.575
 Vibration     7          0.701              1.650              1.350
 Vibration     8          0.762              1.481              0.982
 Vibration     9          0.832              1.306              0.724
 Vibration    10          0.871              1.216              0.621

 Normal termination of Gaussian 09 at Tue Jan 28 00:46:15 2020.
