 Gaussian 09, Revision D.01,
 Gaussian 09:  ES64L-G09RevD.01 24-Apr-2013

 -----------------------------
 # b3lyp 6-31G(2df,p) opt Freq
 -----------------------------

 -----
 titel
 -----
 Symbolic Z-matrix:
 Charge =  0 Multiplicity = 1

 SCF Done:  E(RB3LYP) =  -423.204262621     A.U. after   14 cycles
 SCF Done:  E(RB3LYP) =  -423.204262142     A.U. after    8 cycles
 SCF Done:  E(RB3LYP) =  -423.204257876     A.U. after   10 cycles
 SCF Done:  E(RB3LYP) =  -423.204262829     A.U. after    9 cycles
 SCF Done:  E(RB3LYP) =  -423.204262752     A.U. after    7 cycles
 SCF Done:  E(RB3LYP) =  -423.204262860     A.U. after    7 cycles
 Optimization completed.
    -- Stationary point found.
 Normal termination of Gaussian 09 at Tue Jan 28 13:05:11 2020.

 ----------------------------------------------------------------------
 #N Geom=AllCheck Guess=TCheck SCRF=Check GenChk RB3LYP/6-31G(2df,p) Fr
 eq
 ----------------------------------------------------------------------

 Structure from the checkpoint file:  "/scratch/puck/g09_ae399a67-b32d-4dfe-b34c-6d2b5037a06d/Gau-30225.chk"
 -----
 titel
 -----
 Charge =  0 Multiplicity = 1

                         Standard orientation:
 ---------------------------------------------------------------------
 Center     Atomic      Atomic             Coordinates (Angstroms)
 Number     Number       Type             X           Y           Z
 ---------------------------------------------------------------------
      1          8           0       -2.593935    0.422102   -0.244286
      2          6           0       -1.978768   -0.744955    0.304316
      3          6           0       -0.487368   -0.740172    0.163443
      4          6           0        0.249679   -1.614724   -0.525635
      5          6           0        1.725960   -1.320654   -0.468709
      6          6           0        1.829933   -0.225166    0.625148
      7          6           0        0.399131    0.338114    0.793213
      8          6           0        0.189230    1.674710    0.083463
      9          8           0        0.996403    2.183358   -0.653940
     10          1           0       -2.392861    0.436024   -1.186530
     11          1           0       -2.265088   -0.739618    1.362962
     12          1           0       -2.391688   -1.660704   -0.142793
     13          1           0       -0.162619   -2.452868   -1.079408
     14          1           0        2.320502   -2.209178   -0.228203
     15          1           0        2.087249   -0.962818   -1.441850
     16          1           0        2.157619   -0.671155    1.568016
     17          1           0        2.534154    0.563975    0.358013
     18          1           0        0.118626    0.498979    1.844315
     19          1           0       -0.792409    2.150761    0.279856
 ---------------------------------------------------------------------

 SCF Done:  E(RB3LYP) =  -423.204262860     A.U. after    1 cycles

 The electronic state is 1-A.
 Alpha  occ. eigenvalues --  -19.14685 -19.13542 -10.26359 -10.23940 -10.19879
 Alpha  occ. eigenvalues --  -10.19511 -10.19096 -10.18817 -10.18263  -1.04166
 Alpha  occ. eigenvalues --   -1.02495  -0.85418  -0.74432  -0.73352  -0.66856
 Alpha  occ. eigenvalues --   -0.61603  -0.55271  -0.53352  -0.51179  -0.49477
 Alpha  occ. eigenvalues --   -0.47630  -0.43855  -0.43746  -0.41669  -0.41286
 Alpha  occ. eigenvalues --   -0.39003  -0.35946  -0.35120  -0.34630  -0.34262
 Alpha  occ. eigenvalues --   -0.33281  -0.28310  -0.26878  -0.23265
 Alpha virt. eigenvalues --   -0.02223   0.01522   0.08471   0.09129   0.11657
 Alpha virt. eigenvalues --    0.12441   0.13452   0.15278   0.16064   0.16657
 Alpha virt. eigenvalues --    0.17791   0.18657   0.19648   0.21041   0.22238

 Mulliken charges:
               1
     1  O   -0.406813
     2  C   -0.181867
     3  C    0.278766
     4  C   -0.158715
     5  C   -0.251162
     6  C   -0.229158
     7  C   -0.175482
     8  C    0.134766
     9  O   -0.248951
    10  H    0.285848
    11  H    0.115877
    12  H    0.098821
    13  H    0.093841
    14  H    0.106325
    15  H    0.122525
    16  H    0.101737
    17  H    0.125211
    18  H    0.087175
    19  H    0.101257
 Sum of Mulliken charges =   0.00000

 Dipole moment (field-independent basis, Debye):
    X=             -0.4344    Y=             -2.5095    Z=              0.5058  Tot=              2.5966
 Quadrupole moment (field-independent basis, Debye-Ang):
   XX=            -56.7333   YY=            -56.5211   ZZ=            -50.2632
   XY=             -1.4606   XZ=              3.0988   YZ=              3.2584

  Exact polarizability:  87.732  -4.794  81.369  -5.341   4.211  65.520
 Approx polarizability: 123.603  -8.102 121.551 -15.864   6.510 107.198

                      1                      2                      3
                      A                      A                      A
 Frequencies --     41.0939                50.9854                91.9739
 Red. masses --      5.0391                 3.4275                 2.8559
 Frc consts  --      0.0050                 0.0052                 0.0142
 IR Inten    --      4.6469                 1.9668                 1.4221

                      4                      5                      6
                      A                      A                      A
 Frequencies --    192.9270               263.5986               272.7304
 Red. masses --      3.7024                 2.4283                 2.5507
 Frc consts  --      0.0812                 0.0994                 0.1118
 IR Inten    --      6.1435                 8.9892                 4.3636

                      7                      8                      9
                      A                      A                      A
 Frequencies --    308.1349               333.3047               413.0883
 Red. masses --      2.4675                 2.1664                 1.3175
 Frc consts  --      0.1380                 0.1418                 0.1325
 IR Inten    --      6.1153                20.5161               108.7246

                     10                     11                     12
                      A                      A                      A
 Frequencies --    521.9726               614.8940               680.1301
 Red. masses --      4.1839                 2.7888                 3.6028
 Frc consts  --      0.6716                 0.6212                 0.9819
 IR Inten    --      1.8176                 5.4005                25.2737

                     13                     14                     15
                      A                      A                      A
 Frequencies --    750.6446               771.4538               816.6671
 Red. masses --      3.1405                 2.7203                 2.1590
 Frc consts  --      1.0426                 0.9539                 0.8484
 IR Inten    --      1.6521                18.3296                 4.7569

                     16                     17                     18
                      A                      A                      A
 Frequencies --    865.1940               920.2613               924.1109
 Red. masses --      1.4267                 2.0812                 2.4685
 Frc consts  --      0.6292                 1.0384                 1.2420
 IR Inten    --      5.6106                 7.6640                 4.7920

                     19                     20                     21
                      A                      A                      A
 Frequencies --    955.6232               998.8709              1026.1036
 Red. masses --      1.7973                 2.0959                 1.8114
 Frc consts  --      0.9670                 1.2321                 1.1237
 IR Inten    --      1.3587                62.9318                 3.4092

                     22                     23                     24
                      A                      A                      A
 Frequencies --   1046.0380              1057.0703              1082.4833
 Red. masses --      3.8143                 2.0610                 2.0474
 Frc consts  --      2.4590                 1.3568                 1.4135
 IR Inten    --     26.7992                18.9626                11.9484

                     25                     26                     27
                      A                      A                      A
 Frequencies --   1160.4141              1172.1213              1194.0787
 Red. masses --      1.7072                 1.1799                 1.1447
 Frc consts  --      1.3545                 0.9551                 0.9616
 IR Inten    --     17.7596                 0.4341                 6.7275

                     28                     29                     30
                      A                      A                      A
 Frequencies --   1244.1036              1260.1762              1296.8501
 Red. masses --      1.5971                 1.4256                 1.6777
 Frc consts  --      1.4565                 1.3339                 1.6624
 IR Inten    --      7.5088                 1.2948                 2.5101

                     31                     32                     33
                      A                      A                      A
 Frequencies --   1301.7686              1336.1862              1349.7530
 Red. masses --      1.5248                 1.5372                 1.5333
 Frc consts  --      1.5224                 1.6171                 1.6458
 IR Inten    --      4.4127                 2.4565                 2.7982

                     34                     35                     36
                      A                      A                      A
 Frequencies --   1373.4378              1414.7970              1422.0825
 Red. masses --      1.2748                 1.2250                 1.1989
 Frc consts  --      1.4168                 1.4447                 1.4285
 IR Inten    --      1.9356                42.1379                23.6354

                     37                     38                     39
                      A                      A                      A
 Frequencies --   1473.9665              1493.4098              1497.1716
 Red. masses --      1.0804                 1.1005                 1.0893
 Frc consts  --      1.3830                 1.4461                 1.4386
 IR Inten    --      2.1521                 5.6732                 0.9396

                     40                     41                     42
                      A                      A                      A
 Frequencies --   1711.9994              1817.6526              2935.3382
 Red. masses --      7.3743                 9.8313                 1.0848
 Frc consts  --     12.7344                19.1374                 5.5072
 IR Inten    --      4.3169               147.6844                73.2038

                     43                     44                     45
                      A                      A                      A
 Frequencies --   3000.1739              3003.0000              3023.3897
 Red. masses --      1.0641                 1.0826                 1.0639
 Frc consts  --      5.6432                 5.7524                 5.7297
 IR Inten    --     53.5281                29.1084                28.6984

                     46                     47                     48
                      A                      A                      A
 Frequencies --   3054.1787              3056.4725              3072.0586
 Red. masses --      1.0923                 1.0984                 1.0699
 Frc consts  --      6.0032                 6.0459                 5.9493
 IR Inten    --     10.9484                28.5032                42.8386

                     49                     50                     51
                      A                      A                      A
 Frequencies --   3128.2862              3179.1900              3804.9747
 Red. masses --      1.1007                 1.0931                 1.0663
 Frc consts  --      6.3466                 6.5092                 9.0956
 IR Inten    --      8.8890                14.7868                18.5505

 - Thermochemistry -
 -------------------
 Temperature   298.150 Kelvin.  Pressure   1.00000 Atm.
 Atom     1 has atomic number  8 and mass  15.99491

 Molecular mass:   126.06808 amu.
 Principal axes and moments of inertia in atomic units:
                           1         2         3
     Eigenvalues --   861.279151182.084031756.67182
           X            0.99908  -0.04270   0.00372
           Y            0.04260   0.99881   0.02371
           Z           -0.00472  -0.02353   0.99971
 This molecule is an asymmetric top.
 Rotational symmetry number  1.
 Warning -- assumption of classical behavior for rotation
           may cause significant error
 Rotational temperatures (Kelvin)      0.10056     0.07327     0.04931
 Rotational constants (GHZ):           2.09542     1.52675     1.02736
 Zero-point vibrational energy     417355.5 (Joules/Mol)
                                   99.75035 (Kcal/Mol)
 Warning -- explicit consideration of  11 degrees of freedom as
           vibrations may cause significant error
 Vibrational temperatures:     59.12    73.36   132.33   277.58   379.26
          (Kelvin)            392.40   443.34   479.55   594.34   751.00
                              884.69   978.55  1080.01  1109.95  1175.00
                             1244.82  1324.05  1329.59  1374.93  1437.15
                             1476.33  1505.01  1520.89  1557.45  1669.58
                             1686.42  1718.01  1789.99  1813.11  1865.88
                             1872.95  1922.47  1941.99  1976.07  2035.57
                             2046.06  2120.71  2148.68  2154.09  2463.18
                             2615.19  4223.29  4316.58  4320.64  4349.98
                             4394.28  4397.58  4420.00  4500.90  4574.14
                             5474.50

 Zero-point correction=                           0.158962 (Hartree/Particle)
 Thermal correction to Energy=                    0.168076
 Thermal correction to Enthalpy=                  0.169020
 Thermal correction to Gibbs Free Energy=         0.123742
 Sum of electronic and zero-point Energies=           -423.045301
 Sum of electronic and thermal Energies=              -423.036187
 Sum of electronic and thermal Enthalpies=            -423.035243
 Sum of electronic and thermal Free Energies=         -423.080521

                     E (Thermal)             CV                S
                      KCal/Mol        Cal/Mol-Kelvin    Cal/Mol-Kelvin
 Total                  105.469             32.788             95.296
 Electronic               0.000              0.000              0.000
 Translational            0.889              2.981             40.409
 Rotational               0.889              2.981             28.971
 Vibrational            103.692             26.826             25.916
 Vibration     1          0.594              1.981              5.206
 Vibration     2          0.595              1.977              4.779
 Vibration     3          0.602              1.955              3.618
 Vibration     4          0.635              1.850              2.200
 Vibration     5          0.670              1.740              1.638
 Vibration     6          0.676              1.724              1.579
 Vibration     7          0.698              1.658              1.372
 Vibration     8          0.715              1.609              1.244
 Vibration     9          0.777              1.442              0.916
 Vibration    10          0.877              1.201              0.605
 Vibration    11          0.974              1.000              0.425

 Optimization completed.
    -- Stationary point found.
 Normal termination of Gaussian 09 at Tue Jan 28 13:46:19 2020.
