 Gaussian 09, Revision D.01,
 Gaussian 09:  ES64L-G09RevD.01 24-Apr-2013

 -----------------------------
 # b3lyp 6-31G(2df,p) opt Freq
 -----------------------------

 -----
 titel
 -----
 Symbolic Z-matrix:
 Charge =  0 Multiplicity = 1

 SCF Done:  E(RB3LYP) =  -423.117015574     A.U. after   14 cycles
 Optimization completed.
    -- Stationary point found.
 Normal termination of Gaussian 09 at Mon Jan 27 23:44:53 2020.

 ----------------------------------------------------------------------
 #N Geom=AllCheck Guess=TCheck SCRF=Check GenChk RB3LYP/6-31G(2df,p) Fr
 eq
 ----------------------------------------------------------------------

 Structure from the checkpoint file:  "/scratch/puck/g09_d90b184f-e86c-48d9-8fd1-5d0795d5bcef/Gau-185981.chk"
 -----
 titel
 -----
 Charge =  0 Multiplicity = 1

                         Standard orientation:
 ---------------------------------------------------------------------
 Center     Atomic      Atomic             Coordinates (Angstroms)
 Number     Number       Type             X           Y           Z
 ---------------------------------------------------------------------
      1          8           0        2.279460   -1.089426   -0.219619
      2          6           0        1.214542   -0.519589    0.504203
      3          6           0        1.048501    1.028571    0.262956
      4          6           0       -0.295484    1.307229    0.932561
      5          6           0       -0.716957    0.488359   -0.308692
      6          6           0       -2.137656   -0.049680   -0.503725
      7          6           0       -1.651598   -1.235112    0.434905
      8          6           0       -0.194249   -0.903903   -0.048591
      9          8           0        0.368130    1.143818   -1.053301
     10          1           0        2.175656   -0.798017   -1.134088
     11          1           0        1.401947   -0.736731    1.558794
     12          1           0        1.933587    1.658350    0.345854
     13          1           0       -0.486436    0.913846    1.934482
     14          1           0       -0.601705    2.350281    0.843724
     15          1           0       -2.973295    0.573269   -0.177056
     16          1           0       -2.322320   -0.414695   -1.517227
     17          1           0       -1.836871   -1.020685    1.488910
     18          1           0       -2.029066   -2.230391    0.197934
     19          1           0       -0.044812   -1.425607   -0.999677
 ---------------------------------------------------------------------

 SCF Done:  E(RB3LYP) =  -423.117015574     A.U. after    1 cycles

 The electronic state is 1-A.
 Alpha  occ. eigenvalues --  -19.13932 -19.13459 -10.23808 -10.23784 -10.23629
 Alpha  occ. eigenvalues --  -10.20088 -10.19870 -10.18948 -10.17952  -1.04934
 Alpha  occ. eigenvalues --   -1.01409  -0.85308  -0.76383  -0.70486  -0.65277
 Alpha  occ. eigenvalues --   -0.63452  -0.58377  -0.53505  -0.51594  -0.48998
 Alpha  occ. eigenvalues --   -0.46614  -0.44673  -0.44098  -0.40639  -0.38418
 Alpha  occ. eigenvalues --   -0.37413  -0.36281  -0.35556  -0.34274  -0.32557
 Alpha  occ. eigenvalues --   -0.31170  -0.28954  -0.27461  -0.23257
 Alpha virt. eigenvalues --    0.07263   0.08771   0.09335   0.11164   0.11767
 Alpha virt. eigenvalues --    0.12642   0.13203   0.13985   0.15574   0.16505
 Alpha virt. eigenvalues --    0.17329   0.18857   0.19789   0.20429   0.21368

 Mulliken charges:
               1
     1  O   -0.446319
     2  C    0.090062
     3  C    0.007251
     4  C   -0.278076
     5  C    0.443747
     6  C   -0.351183
     7  C   -0.291690
     8  C   -0.011759
     9  O   -0.372936
    10  H    0.283010
    11  H    0.094880
    12  H    0.086893
    13  H    0.099108
    14  H    0.111718
    15  H    0.106027
    16  H    0.121688
    17  H    0.115014
    18  H    0.111733
    19  H    0.080831
 Sum of Mulliken charges =   0.00000

 Dipole moment (field-independent basis, Debye):
    X=             -1.6756    Y=              0.1665    Z=              0.9067  Tot=              1.9124
 Quadrupole moment (field-independent basis, Debye-Ang):
   XX=            -54.6214   YY=            -55.1919   ZZ=            -51.7718
   XY=              3.1537   XZ=             -0.5064   YZ=              3.3583

  Exact polarizability:  84.784   2.959  72.460   0.130   2.543  67.032
 Approx polarizability: 117.848   2.588 106.227  -1.463   0.197 108.779

                      1                      2                      3
                      A                      A                      A
 Frequencies --    137.8115               271.4334               291.4000
 Red. masses --      3.8557                 2.8575                 2.6462
 Frc consts  --      0.0431                 0.1240                 0.1324
 IR Inten    --      5.2965                 0.9258                 2.6669

                      4                      5                      6
                      A                      A                      A
 Frequencies --    323.9339               388.9182               435.4877
 Red. masses --      3.7749                 1.8186                 1.2917
 Frc consts  --      0.2334                 0.1621                 0.1443
 IR Inten    --      1.4126                 7.5099                74.1584

                      7                      8                      9
                      A                      A                      A
 Frequencies --    494.2741               539.3625               580.9910
 Red. masses --      3.0410                 3.7857                 4.1984
 Frc consts  --      0.4377                 0.6489                 0.8350
 IR Inten    --      2.8144                 6.2656                13.1695

                     10                     11                     12
                      A                      A                      A
 Frequencies --    658.5491               693.5112               790.1760
 Red. masses --      4.1270                 2.0561                 2.7672
 Frc consts  --      1.0545                 0.5826                 1.0180
 IR Inten    --      6.2987                 3.4261                 5.1373

                     13                     14                     15
                      A                      A                      A
 Frequencies --    811.4062               822.9283               839.4627
 Red. masses --      2.7827                 2.2266                 2.0866
 Frc consts  --      1.0794                 0.8884                 0.8663
 IR Inten    --     21.5932                 6.5683                20.6399

                     16                     17                     18
                      A                      A                      A
 Frequencies --    867.8911               900.2442               934.1570
 Red. masses --      2.9349                 2.5161                 2.1784
 Frc consts  --      1.3025                 1.2014                 1.1200
 IR Inten    --      6.3631                 3.1759                10.6270

                     19                     20                     21
                      A                      A                      A
 Frequencies --    975.8777               994.0220              1041.8998
 Red. masses --      1.9469                 2.8653                 1.5118
 Frc consts  --      1.0924                 1.6681                 0.9669
 IR Inten    --      9.2209                23.9132                 1.3770

                     22                     23                     24
                      A                      A                      A
 Frequencies --   1053.8941              1065.7089              1101.2244
 Red. masses --      1.9380                 1.9272                 1.9927
 Frc consts  --      1.2682                 1.2896                 1.4238
 IR Inten    --     15.1808                 8.8239                 1.6834

                     25                     26                     27
                      A                      A                      A
 Frequencies --   1118.9985              1155.1217              1177.5524
 Red. masses --      2.4675                 1.4616                 1.7845
 Frc consts  --      1.8204                 1.1490                 1.4579
 IR Inten    --    128.5194                 0.2338                 6.9216

                     28                     29                     30
                      A                      A                      A
 Frequencies --   1199.4279              1215.7755              1220.7384
 Red. masses --      1.4182                 1.4325                 1.5060
 Frc consts  --      1.2021                 1.2475                 1.3223
 IR Inten    --      5.1362                 5.6579                 8.4460

                     31                     32                     33
                      A                      A                      A
 Frequencies --   1225.5254              1249.3209              1258.7849
 Red. masses --      1.4695                 1.4905                 1.7283
 Frc consts  --      1.3004                 1.3707                 1.6136
 IR Inten    --      2.4182                 1.3520                 2.9976

                     34                     35                     36
                      A                      A                      A
 Frequencies --   1279.5015              1286.0474              1317.2964
 Red. masses --      1.6222                 1.6006                 2.5451
 Frc consts  --      1.5647                 1.5598                 2.6021
 IR Inten    --      6.6183                15.9737                14.4391

                     37                     38                     39
                      A                      A                      A
 Frequencies --   1380.6469              1430.7787              1480.0119
 Red. masses --      1.3600                 1.2284                 1.0967
 Frc consts  --      1.5275                 1.4816                 1.4153
 IR Inten    --      0.8070                78.0082                 1.2426

                     40                     41                     42
                      A                      A                      A
 Frequencies --   1489.5719              1498.6924              3051.7376
 Red. masses --      1.1738                 1.1211                 1.0833
 Frc consts  --      1.5345                 1.4836                 5.9440
 IR Inten    --      3.1112                 4.6877                16.6476

                     43                     44                     45
                      A                      A                      A
 Frequencies --   3064.2197              3066.5318              3083.8650
 Red. masses --      1.0591                 1.0581                 1.0614
 Frc consts  --      5.8591                 5.8624                 5.9475
 IR Inten    --     18.4304                31.6717                25.0883

                     46                     47                     48
                      A                      A                      A
 Frequencies --   3087.3084              3122.2813              3134.1462
 Red. masses --      1.0822                 1.1094                 1.0961
 Frc consts  --      6.0776                 6.3721                 6.3437
 IR Inten    --     38.4466                12.8678                26.8058

                     49                     50                     51
                      A                      A                      A
 Frequencies --   3139.5444              3144.9889              3779.3723
 Red. masses --      1.1032                 1.1092                 1.0655
 Frc consts  --      6.4065                 6.4638                 8.9671
 IR Inten    --     40.0011                24.7505                18.4434

 - Thermochemistry -
 -------------------
 Temperature   298.150 Kelvin.  Pressure   1.00000 Atm.
 Atom     1 has atomic number  8 and mass  15.99491

 Molecular mass:   126.06808 amu.
 Principal axes and moments of inertia in atomic units:
                           1         2         3
     Eigenvalues --   640.750001062.187611324.14184
           X            0.99933   0.03650   0.00018
           Y           -0.03645   0.99784   0.05469
           Z            0.00182  -0.05466   0.99850
 This molecule is an asymmetric top.
 Rotational symmetry number  1.
 Warning -- assumption of classical behavior for rotation
           may cause significant error
 Rotational temperatures (Kelvin)      0.13518     0.08154     0.06541
 Rotational constants (GHZ):           2.81661     1.69908     1.36295
 Zero-point vibrational energy     422714.5 (Joules/Mol)
                                  101.03120 (Kcal/Mol)
 Warning -- explicit consideration of   9 degrees of freedom as
           vibrations may cause significant error
 Vibrational temperatures:    198.28   390.53   419.26   466.07   559.57
          (Kelvin)            626.57   711.15   776.02   835.92   947.50
                              997.81  1136.89  1167.43  1184.01  1207.80
                             1248.70  1295.25  1344.04  1404.07  1430.17
                             1499.06  1516.32  1533.32  1584.41  1609.99
                             1661.96  1694.23  1725.71  1749.23  1756.37
                             1763.26  1797.49  1811.11  1840.92  1850.33
                             1895.29  1986.44  2058.57  2129.40  2143.16
                             2156.28  4390.76  4408.72  4412.05  4436.99
                             4441.94  4492.26  4509.33  4517.10  4524.93
                             5437.67

 Zero-point correction=                           0.161003 (Hartree/Particle)
 Thermal correction to Energy=                    0.168085
 Thermal correction to Enthalpy=                  0.169030
 Thermal correction to Gibbs Free Energy=         0.129910
 Sum of electronic and zero-point Energies=           -422.956012
 Sum of electronic and thermal Energies=              -422.948930
 Sum of electronic and thermal Enthalpies=            -422.947986
 Sum of electronic and thermal Free Energies=         -422.987106

                     E (Thermal)             CV                S
                      KCal/Mol        Cal/Mol-Kelvin    Cal/Mol-Kelvin
 Total                  105.475             29.833             82.335
 Electronic               0.000              0.000              0.000
 Translational            0.889              2.981             40.409
 Rotational               0.889              2.981             28.290
 Vibrational            103.698             23.871             13.636
 Vibration     1          0.614              1.916              2.834
 Vibration     2          0.675              1.726              1.587
 Vibration     3          0.687              1.690              1.466
 Vibration     4          0.708              1.628              1.290
 Vibration     5          0.757              1.494              1.004
 Vibration     6          0.796              1.393              0.841
 Vibration     7          0.850              1.263              0.673
 Vibration     8          0.894              1.163              0.567
 Vibration     9          0.938              1.072              0.484

 Optimization completed.
    -- Stationary point found.
 Normal termination of Gaussian 09 at Tue Jan 28 00:31:48 2020.
