 Gaussian 09, Revision D.01,
 Gaussian 09:  ES64L-G09RevD.01 24-Apr-2013

 -----------------------------
 # b3lyp 6-31G(2df,p) opt Freq
 -----------------------------

 -----
 titel
 -----
 Symbolic Z-matrix:
 Charge =  0 Multiplicity = 1

 SCF Done:  E(RB3LYP) =  -423.207582640     A.U. after   14 cycles
 Optimization completed.
    -- Stationary point found.
 Normal termination of Gaussian 09 at Mon Jan 27 16:12:40 2020.

 ----------------------------------------------------------------------
 #N Geom=AllCheck Guess=TCheck SCRF=Check GenChk RB3LYP/6-31G(2df,p) Fr
 eq
 ----------------------------------------------------------------------

 Structure from the checkpoint file:  "/scratch/puck/g09_19d005f0-321f-4a1c-b4ea-24192f7aa02c/Gau-163331.chk"
 -----
 titel
 -----
 Charge =  0 Multiplicity = 1

                         Standard orientation:
 ---------------------------------------------------------------------
 Center     Atomic      Atomic             Coordinates (Angstroms)
 Number     Number       Type             X           Y           Z
 ---------------------------------------------------------------------
      1          6           0       -1.505470    1.524149   -0.482610
      2          6           0       -1.270144    0.118262    0.037981
      3          6           0       -2.212810   -0.936704   -0.509160
      4          6           0       -0.769629   -0.048930    1.446843
      5          6           0        0.164265   -0.306257    0.290085
      6          6           0        0.941140   -1.548886   -0.123647
      7          8           0        2.098575   -0.697868   -0.421688
      8          6           0        1.420881    0.441645   -0.039334
      9          8           0        1.824462    1.562059   -0.027947
     10          1           0       -0.748329    2.219727   -0.113668
     11          1           0       -1.471324    1.545177   -1.577498
     12          1           0       -2.492776    1.884489   -0.172352
     13          1           0       -1.998378   -1.928844   -0.099808
     14          1           0       -3.249817   -0.689414   -0.256024
     15          1           0       -2.144488   -0.999341   -1.600940
     16          1           0       -0.574377    0.839077    2.039535
     17          1           0       -1.098845   -0.913514    2.014907
     18          1           0        1.182777   -2.264291    0.666153
     19          1           0        0.601854   -2.066263   -1.024170
 ---------------------------------------------------------------------

 SCF Done:  E(RB3LYP) =  -423.207582640     A.U. after    1 cycles

 The electronic state is 1-A.
 Alpha  occ. eigenvalues --  -19.17618 -19.13005 -10.30255 -10.25326 -10.22177
 Alpha  occ. eigenvalues --  -10.21655 -10.20493 -10.19389 -10.18311  -1.09982
 Alpha  occ. eigenvalues --   -1.02761  -0.88975  -0.74939  -0.71087  -0.70017
 Alpha  occ. eigenvalues --   -0.65830  -0.57989  -0.51601  -0.49708  -0.49192
 Alpha  occ. eigenvalues --   -0.48591  -0.44873  -0.44644  -0.41873  -0.40739
 Alpha  occ. eigenvalues --   -0.39411  -0.38640  -0.38287  -0.37249  -0.35726
 Alpha  occ. eigenvalues --   -0.30863  -0.29950  -0.28917  -0.26639
 Alpha virt. eigenvalues --    0.00895   0.06909   0.08930   0.10444   0.10837
 Alpha virt. eigenvalues --    0.11734   0.13642   0.14638   0.15283   0.16405
 Alpha virt. eigenvalues --    0.17529   0.17990   0.18651   0.20194   0.21964

 Mulliken charges:
               1
     1  C   -0.462604
     2  C    0.271143
     3  C   -0.451908
     4  C   -0.379750
     5  C    0.078779
     6  C   -0.156425
     7  O   -0.254555
     8  C    0.441821
     9  O   -0.348525
    10  H    0.150914
    11  H    0.121315
    12  H    0.117033
    13  H    0.115472
    14  H    0.126884
    15  H    0.124513
    16  H    0.135285
    17  H    0.120063
    18  H    0.125422
    19  H    0.125124
 Sum of Mulliken charges =   0.00000

 Dipole moment (field-independent basis, Debye):
    X=             -3.4269    Y=             -2.5228    Z=              0.5880  Tot=              4.2958
 Quadrupole moment (field-independent basis, Debye-Ang):
   XX=            -59.7791   YY=            -53.8196   ZZ=            -51.4692
   XY=             -3.6415   XZ=              1.3741   YZ=             -0.1929

  Exact polarizability:  82.223   0.241  80.636  -0.237   0.217  66.021
 Approx polarizability: 114.967   3.160 122.534  -3.348   1.512  99.988

                      1                      2                      3
                      A                      A                      A
 Frequencies --    119.3027               131.6380               151.2734
 Red. masses --      4.4919                 3.9170                 3.6830
 Frc consts  --      0.0377                 0.0400                 0.0497
 IR Inten    --      1.6334                 1.8979                 3.6353

                      4                      5                      6
                      A                      A                      A
 Frequencies --    216.4278               236.5227               261.1046
 Red. masses --      1.0435                 1.2482                 1.9424
 Frc consts  --      0.0288                 0.0411                 0.0780
 IR Inten    --      0.2140                 0.5002                 0.4610

                      7                      8                      9
                      A                      A                      A
 Frequencies --    311.1950               350.6166               391.9233
 Red. masses --      3.3423                 2.3407                 2.5971
 Frc consts  --      0.1907                 0.1695                 0.2350
 IR Inten    --      0.9888                 0.1456                 1.3398

                     10                     11                     12
                      A                      A                      A
 Frequencies --    424.0949               528.5457               629.1512
 Red. masses --      2.1667                 3.3610                 5.3891
 Frc consts  --      0.2296                 0.5532                 1.2568
 IR Inten    --      0.6039                 1.9237                 3.1204

                     13                     14                     15
                      A                      A                      A
 Frequencies --    668.7759               766.1619               792.8426
 Red. masses --      4.1984                 4.1640                 6.7074
 Frc consts  --      1.1064                 1.4401                 2.4841
 IR Inten    --      4.2916                 3.9263                 2.9384

                     16                     17                     18
                      A                      A                      A
 Frequencies --    868.2268               898.4904               924.8525
 Red. masses --      2.4890                 2.1539                 1.6148
 Frc consts  --      1.1054                 1.0245                 0.8138
 IR Inten    --      5.4883                 9.8315                 3.4492

                     19                     20                     21
                      A                      A                      A
 Frequencies --    956.4046               976.1765              1004.6370
 Red. masses --      4.0636                 1.3375                 1.8606
 Frc consts  --      2.1900                 0.7509                 1.1064
 IR Inten    --     63.9054                 1.2075                12.2764

                     22                     23                     24
                      A                      A                      A
 Frequencies --   1036.6726              1061.9711              1087.0392
 Red. masses --      1.4434                 1.4419                 1.7332
 Frc consts  --      0.9140                 0.9581                 1.2067
 IR Inten    --      8.0333                18.0750                 1.3988

                     25                     26                     27
                      A                      A                      A
 Frequencies --   1091.1495              1145.9320              1150.9046
 Red. masses --      2.9181                 1.1265                 1.8337
 Frc consts  --      2.0470                 0.8716                 1.4311
 IR Inten    --    134.4228                 0.7975                16.5912

                     28                     29                     30
                      A                      A                      A
 Frequencies --   1187.9174              1224.6087              1300.7563
 Red. masses --      2.9624                 3.3066                 2.9793
 Frc consts  --      2.4630                 2.9217                 2.9700
 IR Inten    --     24.2985                 2.6694                 2.6130

                     31                     32                     33
                      A                      A                      A
 Frequencies --   1330.7449              1412.9483              1417.6324
 Red. masses --      1.6333                 1.2900                 1.6188
 Frc consts  --      1.7041                 1.5173                 1.9168
 IR Inten    --     30.6396                 5.6213                18.5586

                     34                     35                     36
                      A                      A                      A
 Frequencies --   1432.1930              1481.1347              1482.2344
 Red. masses --      1.4480                 1.1173                 1.2215
 Frc consts  --      1.7500                 1.4441                 1.5812
 IR Inten    --      5.9383                 4.9880                 7.4857

                     37                     38                     39
                      A                      A                      A
 Frequencies --   1492.5643              1501.7151              1515.5925
 Red. masses --      1.0497                 1.0587                 1.1683
 Frc consts  --      1.3777                 1.4067                 1.5811
 IR Inten    --      5.2765                 8.2170                 0.8813

                     40                     41                     42
                      A                      A                      A
 Frequencies --   1520.0096              1923.3110              3026.3211
 Red. masses --      1.2104                12.6468                 1.0354
 Frc consts  --      1.6477                27.5631                 5.5871
 IR Inten    --      2.5496               394.3974                18.3160

                     43                     44                     45
                      A                      A                      A
 Frequencies --   3032.0725              3062.4396              3089.1577
 Red. masses --      1.0372                 1.0552                 1.1014
 Frc consts  --      5.6180                 5.8308                 6.1928
 IR Inten    --     33.7775                33.7063                 0.3091

                     46                     47                     48
                      A                      A                      A
 Frequencies --   3092.2541              3101.4254              3120.5742
 Red. masses --      1.1007                 1.1011                 1.1129
 Frc consts  --      6.2014                 6.2404                 6.3854
 IR Inten    --     39.9937                25.8593                17.8281

                     49                     50                     51
                      A                      A                      A
 Frequencies --   3123.7771              3128.6174              3213.2043
 Red. masses --      1.0569                 1.0968                 1.1171
 Frc consts  --      6.0765                 6.3254                 6.7953
 IR Inten    --      8.1604                 9.1498                 3.7621

 - Thermochemistry -
 -------------------
 Temperature   298.150 Kelvin.  Pressure   1.00000 Atm.
 Atom     1 has atomic number  6 and mass  12.00000

 Molecular mass:   126.06808 amu.
 Principal axes and moments of inertia in atomic units:
                           1         2         3
     Eigenvalues --   695.653841256.972841595.22969
           X            0.99962  -0.02233   0.01622
           Y            0.02244   0.99973  -0.00650
           Z           -0.01607   0.00686   0.99985
 This molecule is an asymmetric top.
 Rotational symmetry number  1.
 Warning -- assumption of classical behavior for rotation
           may cause significant error
 Rotational temperatures (Kelvin)      0.12451     0.06891     0.05430
 Rotational constants (GHZ):           2.59431     1.43578     1.13134
 Zero-point vibrational energy     415075.7 (Joules/Mol)
                                   99.20547 (Kcal/Mol)
 Warning -- explicit consideration of  11 degrees of freedom as
           vibrations may cause significant error
 Vibrational temperatures:    171.65   189.40   217.65   311.39   340.30
          (Kelvin)            375.67   447.74   504.46   563.89   610.18
                              760.46   905.21   962.22  1102.33  1140.72
                             1249.18  1292.73  1330.65  1376.05  1404.50
                             1445.45  1491.54  1527.94  1564.00  1569.92
                             1648.74  1655.89  1709.15  1761.94  1871.50
                             1914.64  2032.91  2039.65  2060.60  2131.02
                             2132.60  2147.46  2160.63  2180.60  2186.95
                             2767.21  4354.20  4362.47  4406.16  4444.60
                             4449.06  4462.25  4489.80  4494.41  4501.38
                             4623.08

 Zero-point correction=                           0.158094 (Hartree/Particle)
 Thermal correction to Energy=                    0.167012
 Thermal correction to Enthalpy=                  0.167956
 Thermal correction to Gibbs Free Energy=         0.124793
 Sum of electronic and zero-point Energies=           -423.049489
 Sum of electronic and thermal Energies=              -423.040571
 Sum of electronic and thermal Enthalpies=            -423.039627
 Sum of electronic and thermal Free Energies=         -423.082790

                     E (Thermal)             CV                S
                      KCal/Mol        Cal/Mol-Kelvin    Cal/Mol-Kelvin
 Total                  104.802             33.493             90.845
 Electronic               0.000              0.000              0.000
 Translational            0.889              2.981             40.409
 Rotational               0.889              2.981             28.724
 Vibrational            103.024             27.531             21.712
 Vibration     1          0.609              1.933              3.112
 Vibration     2          0.612              1.922              2.922
 Vibration     3          0.619              1.901              2.656
 Vibration     4          0.645              1.816              1.989
 Vibration     5          0.655              1.785              1.829
 Vibration     6          0.669              1.744              1.654
 Vibration     7          0.700              1.652              1.356
 Vibration     8          0.728              1.574              1.163
 Vibration     9          0.759              1.487              0.993
 Vibration    10          0.786              1.418              0.878
 Vibration    11          0.884              1.187              0.590

 Optimization completed.
    -- Stationary point found.
 Normal termination of Gaussian 09 at Mon Jan 27 16:58:21 2020.
