 Gaussian 09, Revision D.01,
 Gaussian 09:  ES64L-G09RevD.01 24-Apr-2013

 -----------------------------
 # b3lyp 6-31G(2df,p) opt Freq
 -----------------------------

 -----
 titel
 -----
 Symbolic Z-matrix:
 Charge =  0 Multiplicity = 1

 SCF Done:  E(RB3LYP) =  -423.118877255     A.U. after   13 cycles
 Optimization completed.
    -- Stationary point found.
 Normal termination of Gaussian 09 at Mon Jan 27 18:45:18 2020.

 ----------------------------------------------------------------------
 #N Geom=AllCheck Guess=TCheck SCRF=Check GenChk RB3LYP/6-31G(2df,p) Fr
 eq
 ----------------------------------------------------------------------

 Structure from the checkpoint file:  "/scratch/puck/g09_e22842e2-0081-44d8-9508-c74518579efc/Gau-70134.chk"
 -----
 titel
 -----
 Charge =  0 Multiplicity = 1

                         Standard orientation:
 ---------------------------------------------------------------------
 Center     Atomic      Atomic             Coordinates (Angstroms)
 Number     Number       Type             X           Y           Z
 ---------------------------------------------------------------------
      1          6           0       -1.341237    1.906924   -0.242627
      2          6           0       -0.889126    0.490571   -0.102994
      3          8           0       -1.641881   -0.507190   -0.800812
      4          6           0       -1.494323   -1.439451    0.302385
      5          6           0       -0.618168   -0.467938    1.082549
      6          6           0        0.485442   -0.012206    0.175899
      7          6           0        1.708557    0.798269    0.594175
      8          6           0        2.463859   -0.183593   -0.329061
      9          8           0        1.240861   -0.872570   -0.677789
     10          1           0       -2.383131    2.018410    0.073560
     11          1           0       -0.721747    2.576757    0.360462
     12          1           0       -1.269053    2.224520   -1.289244
     13          1           0       -2.465623   -1.635700    0.769074
     14          1           0       -1.028563   -2.379998   -0.010687
     15          1           0       -0.617697   -0.320581    2.156349
     16          1           0        1.716051    1.841124    0.270870
     17          1           0        1.969892    0.745331    1.652921
     18          1           0        2.942093    0.261751   -1.208279
     19          1           0        3.175910   -0.848993    0.171815
 ---------------------------------------------------------------------

 SCF Done:  E(RB3LYP) =  -423.118877255     A.U. after    1 cycles

 The electronic state is 1-A.
 Alpha  occ. eigenvalues --  -19.13333 -19.13218 -10.24037 -10.23911 -10.23422
 Alpha  occ. eigenvalues --  -10.22968 -10.19647 -10.18867 -10.18509  -1.05603
 Alpha  occ. eigenvalues --   -1.03058  -0.82620  -0.74620  -0.73971  -0.67628
 Alpha  occ. eigenvalues --   -0.63517  -0.54608  -0.52120  -0.50238  -0.49016
 Alpha  occ. eigenvalues --   -0.47800  -0.46990  -0.43116  -0.41469  -0.41094
 Alpha  occ. eigenvalues --   -0.38591  -0.38042  -0.35707  -0.35092  -0.32195
 Alpha  occ. eigenvalues --   -0.31077  -0.28212  -0.24683  -0.21461
 Alpha virt. eigenvalues --    0.06503   0.08446   0.09590   0.10812   0.11997
 Alpha virt. eigenvalues --    0.13751   0.14192   0.14970   0.15358   0.16826
 Alpha virt. eigenvalues --    0.17574   0.18122   0.18525   0.21272   0.21888

 Mulliken charges:
               1
     1  C   -0.496672
     2  C    0.367255
     3  O   -0.317767
     4  C   -0.089312
     5  C   -0.296388
     6  C    0.434229
     7  C   -0.377064
     8  C   -0.069550
     9  O   -0.309505
    10  H    0.130379
    11  H    0.123002
    12  H    0.136577
    13  H    0.105342
    14  H    0.118782
    15  H    0.092709
    16  H    0.116173
    17  H    0.115327
    18  H    0.109120
    19  H    0.107362
 Sum of Mulliken charges =   0.00000

 Dipole moment (field-independent basis, Debye):
    X=              1.0543    Y=              1.5648    Z=              2.2437  Tot=              2.9316
 Quadrupole moment (field-independent basis, Debye-Ang):
   XX=            -50.6368   YY=            -51.3534   ZZ=            -54.0732
   XY=              1.3731   XZ=             -1.8127   YZ=             -2.4349

  Exact polarizability:  86.948   1.699  76.169  -1.670  -3.285  65.216
 Approx polarizability: 113.034   2.205 107.234   0.110  -4.272 103.459

                      1                      2                      3
                      A                      A                      A
 Frequencies --     79.3501               160.3818               179.5324
 Red. masses --      2.2813                 3.3554                 2.1790
 Frc consts  --      0.0085                 0.0509                 0.0414
 IR Inten    --      1.6015                 0.3730                 0.6281

                      4                      5                      6
                      A                      A                      A
 Frequencies --    190.3759               218.2525               276.8598
 Red. masses --      1.3113                 2.4110                 3.4140
 Frc consts  --      0.0280                 0.0677                 0.1542
 IR Inten    --      0.5989                 3.6674                 1.8656

                      7                      8                      9
                      A                      A                      A
 Frequencies --    333.6241               454.5413               528.6230
 Red. masses --      2.5070                 4.0761                 2.8654
 Frc consts  --      0.1644                 0.4962                 0.4718
 IR Inten    --      2.2497                 3.3523                 1.5399

                     10                     11                     12
                      A                      A                      A
 Frequencies --    576.4659               674.6159               775.8104
 Red. masses --      4.7342                 3.3432                 3.1296
 Frc consts  --      0.9269                 0.8964                 1.1098
 IR Inten    --      6.9200                 2.4083                10.8886

                     13                     14                     15
                      A                      A                      A
 Frequencies --    795.4842               832.9658               882.5010
 Red. masses --      1.2043                 2.8136                 2.5380
 Frc consts  --      0.4490                 1.1502                 1.1646
 IR Inten    --      1.6783                 9.9903                10.9047

                     16                     17                     18
                      A                      A                      A
 Frequencies --    926.4149               942.3848               963.3404
 Red. masses --      1.6029                 2.2041                 2.2220
 Frc consts  --      0.8105                 1.1533                 1.2149
 IR Inten    --     18.9079                 9.7785                 1.3239

                     19                     20                     21
                      A                      A                      A
 Frequencies --    972.5593               996.3681              1016.5261
 Red. masses --      2.4431                 4.4408                 6.3797
 Frc consts  --      1.3615                 2.5975                 3.8841
 IR Inten    --     15.5401                64.4011                93.6046

                     22                     23                     24
                      A                      A                      A
 Frequencies --   1048.7922              1098.2135              1107.3419
 Red. masses --      2.0229                 1.9145                 2.2843
 Frc consts  --      1.3110                 1.3604                 1.6503
 IR Inten    --     15.7265                23.4688                20.1258

                     25                     26                     27
                      A                      A                      A
 Frequencies --   1136.1210              1160.2746              1163.9554
 Red. masses --      2.6704                 1.3649                 1.2529
 Frc consts  --      2.0308                 1.0826                 1.0001
 IR Inten    --     23.6508                10.6313                 5.6941

                     28                     29                     30
                      A                      A                      A
 Frequencies --   1181.8676              1206.1121              1218.2053
 Red. masses --      1.8509                 2.0561                 1.2317
 Frc consts  --      1.5232                 1.7622                 1.0769
 IR Inten    --     23.8145                27.1564                 2.8741

                     31                     32                     33
                      A                      A                      A
 Frequencies --   1258.5721              1284.2560              1336.6986
 Red. masses --      1.5202                 3.1156                 1.4612
 Frc consts  --      1.4187                 3.0276                 1.5382
 IR Inten    --      3.0193                 8.5467                 5.0251

                     34                     35                     36
                      A                      A                      A
 Frequencies --   1353.1635              1408.0353              1458.5615
 Red. masses --      1.4714                 1.3140                 2.6771
 Frc consts  --      1.5873                 1.5349                 3.3556
 IR Inten    --      1.4117                 7.5428                14.6070

                     37                     38                     39
                      A                      A                      A
 Frequencies --   1474.6678              1490.8305              1500.4102
 Red. masses --      1.0581                 1.1115                 1.2007
 Frc consts  --      1.3557                 1.4556                 1.5926
 IR Inten    --      5.4554                 1.1798                 4.4380

                     40                     41                     42
                      A                      A                      A
 Frequencies --   1512.7079              1532.9162              3028.4325
 Red. masses --      1.1297                 1.2066                 1.0550
 Frc consts  --      1.5231                 1.6705                 5.7006
 IR Inten    --      0.8400                 0.6198                95.5871

                     43                     44                     45
                      A                      A                      A
 Frequencies --   3031.7890              3032.9015              3071.3443
 Red. masses --      1.0478                 1.0429                 1.0908
 Frc consts  --      5.6742                 5.6522                 6.0624
 IR Inten    --     72.0444                12.8581                25.7165

                     46                     47                     48
                      A                      A                      A
 Frequencies --   3071.8461              3083.0298              3096.7518
 Red. masses --      1.0788                 1.1114                 1.1002
 Frc consts  --      5.9980                 6.2242                 6.2161
 IR Inten    --     29.1366                28.1566                16.1347

                     49                     50                     51
                      A                      A                      A
 Frequencies --   3115.6382              3124.5840              3175.3321
 Red. masses --      1.1007                 1.1087                 1.0934
 Frc consts  --      6.2950                 6.3777                 6.4953
 IR Inten    --     20.4427                22.3058                12.7147

 - Thermochemistry -
 -------------------
 Temperature   298.150 Kelvin.  Pressure   1.00000 Atm.
 Atom     1 has atomic number  6 and mass  12.00000

 Molecular mass:   126.06808 amu.
 Principal axes and moments of inertia in atomic units:
                           1         2         3
     Eigenvalues --   636.097161188.814571462.20147
           X            0.99998  -0.00068  -0.00544
           Y            0.00051   0.99954  -0.03030
           Z            0.00546   0.03030   0.99953
 This molecule is an asymmetric top.
 Rotational symmetry number  1.
 Warning -- assumption of classical behavior for rotation
           may cause significant error
 Rotational temperatures (Kelvin)      0.13616     0.07286     0.05924
 Rotational constants (GHZ):           2.83721     1.51810     1.23426
 Zero-point vibrational energy     415943.5 (Joules/Mol)
                                   99.41289 (Kcal/Mol)
 Warning -- explicit consideration of  10 degrees of freedom as
           vibrations may cause significant error
 Vibrational temperatures:    114.17   230.75   258.31   273.91   314.02
          (Kelvin)            398.34   480.01   653.98   760.57   829.40
                              970.62  1116.22  1144.52  1198.45  1269.72
                             1332.90  1355.88  1386.03  1399.29  1433.55
                             1462.55  1508.98  1580.08  1593.22  1634.62
                             1669.37  1674.67  1700.44  1735.32  1752.72
                             1810.80  1847.76  1923.21  1946.90  2025.85
                             2098.54  2121.72  2144.97  2158.75  2176.45
                             2205.52  4357.23  4362.06  4363.66  4418.97
                             4419.70  4435.79  4455.53  4482.70  4495.57
                             4568.59

 Zero-point correction=                           0.158425 (Hartree/Particle)
 Thermal correction to Energy=                    0.166764
 Thermal correction to Enthalpy=                  0.167708
 Thermal correction to Gibbs Free Energy=         0.125439
 Sum of electronic and zero-point Energies=           -422.960453
 Sum of electronic and thermal Energies=              -422.952113
 Sum of electronic and thermal Enthalpies=            -422.951169
 Sum of electronic and thermal Free Energies=         -422.993438

                     E (Thermal)             CV                S
                      KCal/Mol        Cal/Mol-Kelvin    Cal/Mol-Kelvin
 Total                  104.646             31.472             88.963
 Electronic               0.000              0.000              0.000
 Translational            0.889              2.981             40.409
 Rotational               0.889              2.981             28.493
 Vibrational            102.869             25.510             20.061
 Vibration     1          0.600              1.963              3.907
 Vibration     2          0.622              1.891              2.545
 Vibration     3          0.629              1.867              2.333
 Vibration     4          0.634              1.853              2.224
 Vibration     5          0.646              1.813              1.974
 Vibration     6          0.678              1.716              1.553
 Vibration     7          0.715              1.608              1.242
 Vibration     8          0.813              1.351              0.782
 Vibration     9          0.884              1.187              0.590
 Vibration    10          0.933              1.082              0.492

 Optimization completed.
    -- Stationary point found.
 Normal termination of Gaussian 09 at Mon Jan 27 19:31:14 2020.
