 Gaussian 09, Revision D.01,
 Gaussian 09:  ES64L-G09RevD.01 24-Apr-2013

 -----------------------------
 # b3lyp 6-31G(2df,p) opt Freq
 -----------------------------

 -----
 titel
 -----
 Symbolic Z-matrix:
 Charge =  0 Multiplicity = 1

 SCF Done:  E(RB3LYP) =  -423.119034598     A.U. after   12 cycles
 Optimization completed.
    -- Stationary point found.
 Normal termination of Gaussian 09 at Mon Jan 27 16:12:01 2020.

 ----------------------------------------------------------------------
 #N Geom=AllCheck Guess=TCheck SCRF=Check GenChk RB3LYP/6-31G(2df,p) Fr
 eq
 ----------------------------------------------------------------------

 Structure from the checkpoint file:  "/scratch/puck/g09_10fadee4-bfff-4e5f-b7c1-91f6c042dbea/Gau-163327.chk"
 -----
 titel
 -----
 Charge =  0 Multiplicity = 1

                         Standard orientation:
 ---------------------------------------------------------------------
 Center     Atomic      Atomic             Coordinates (Angstroms)
 Number     Number       Type             X           Y           Z
 ---------------------------------------------------------------------
      1          6           0       -2.086966    1.185775   -0.585201
      2          6           0       -1.360840    0.023527    0.043243
      3          8           0       -1.892989   -1.214410   -0.329903
      4          6           0       -0.785929    0.149284    1.457067
      5          6           0        0.118119    0.041769    0.266002
      6          8           0        0.825445   -1.190529   -0.012016
      7          6           0        1.851155   -0.432700   -0.677280
      8          6           0        2.538028    0.482876    0.283862
      9          6           0        1.209909    0.890293   -0.331580
     10          1           0       -3.137913    1.184098   -0.277970
     11          1           0       -1.646843    2.140085   -0.281156
     12          1           0       -2.053454    1.115891   -1.677239
     13          1           0       -1.137454   -1.784214   -0.533660
     14          1           0       -0.855129    1.102153    1.972975
     15          1           0       -0.860513   -0.729508    2.089032
     16          1           0        2.262924   -0.838405   -1.592945
     17          1           0        2.598041    0.209436    1.333095
     18          1           0        3.401030    1.010776   -0.110558
     19          1           0        1.068815    1.784260   -0.922909
 ---------------------------------------------------------------------

 SCF Done:  E(RB3LYP) =  -423.119034598     A.U. after    1 cycles

 The electronic state is 1-A.
 Alpha  occ. eigenvalues --  -19.15415 -19.12985 -10.24914 -10.24438 -10.23676
 Alpha  occ. eigenvalues --  -10.20564 -10.19733 -10.17786 -10.17762  -1.06803
 Alpha  occ. eigenvalues --   -1.01686  -0.84291  -0.83865  -0.71670  -0.65169
 Alpha  occ. eigenvalues --   -0.60610  -0.57664  -0.54481  -0.53133  -0.50256
 Alpha  occ. eigenvalues --   -0.46861  -0.44363  -0.42476  -0.42062  -0.39804
 Alpha  occ. eigenvalues --   -0.39243  -0.38160  -0.35604  -0.35182  -0.32768
 Alpha  occ. eigenvalues --   -0.32160  -0.26634  -0.24774  -0.22914
 Alpha virt. eigenvalues --    0.06514   0.09234   0.10625   0.11126   0.12445
 Alpha virt. eigenvalues --    0.13691   0.14342   0.14867   0.15503   0.16093
 Alpha virt. eigenvalues --    0.17292   0.18729   0.19610   0.21484   0.22256

 Mulliken charges:
               1
     1  C   -0.440031
     2  C    0.346137
     3  O   -0.475791
     4  C   -0.418839
     5  C    0.384770
     6  O   -0.329167
     7  C    0.099343
     8  C   -0.298107
     9  C   -0.225022
    10  H    0.130423
    11  H    0.111506
    12  H    0.121320
    13  H    0.292565
    14  H    0.114242
    15  H    0.125317
    16  H    0.111108
    17  H    0.123867
    18  H    0.117894
    19  H    0.108464
 Sum of Mulliken charges =   0.00000

 Dipole moment (field-independent basis, Debye):
    X=              1.8717    Y=              1.7833    Z=             -0.5655  Tot=              2.6463
 Quadrupole moment (field-independent basis, Debye-Ang):
   XX=            -54.3037   YY=            -53.0860   ZZ=            -51.2651
   XY=             -1.5006   XZ=             -2.3637   YZ=              0.3185

  Exact polarizability:  90.148  -0.523  68.457  -1.219   1.242  69.421
 Approx polarizability: 118.141  -0.080 106.947  -1.567   4.380 103.054

                      1                      2                      3
                      A                      A                      A
 Frequencies --    127.5929               153.8128               162.9503
 Red. masses --      3.3105                 3.4284                 3.2435
 Frc consts  --      0.0318                 0.0478                 0.0507
 IR Inten    --      0.1322                 1.4255                 1.3301

                      4                      5                      6
                      A                      A                      A
 Frequencies --    205.0005               289.6009               373.7214
 Red. masses --      1.0858                 3.8391                 1.8076
 Frc consts  --      0.0269                 0.1897                 0.1487
 IR Inten    --      0.1727                 5.1238                30.6996

                      7                      8                      9
                      A                      A                      A
 Frequencies --    385.6105               400.9568               451.7398
 Red. masses --      2.2761                 2.4515                 1.5488
 Frc consts  --      0.1994                 0.2322                 0.1862
 IR Inten    --      2.4550                 7.0300                16.6895

                     10                     11                     12
                      A                      A                      A
 Frequencies --    479.3375               562.0434               594.4224
 Red. masses --      2.6667                 3.3146                 3.5066
 Frc consts  --      0.3610                 0.6169                 0.7300
 IR Inten    --      7.8401                 4.5679                11.1567

                     13                     14                     15
                      A                      A                      A
 Frequencies --    742.9256               775.3754               807.7306
 Red. masses --      1.9803                 2.5108                 1.9335
 Frc consts  --      0.6440                 0.8894                 0.7432
 IR Inten    --      1.3826                 6.7249                 8.6765

                     16                     17                     18
                      A                      A                      A
 Frequencies --    843.1838               869.4675               908.5047
 Red. masses --      2.3812                 2.0913                 1.6070
 Frc consts  --      0.9974                 0.9315                 0.7815
 IR Inten    --     24.3981                 8.4800                13.6924

                     19                     20                     21
                      A                      A                      A
 Frequencies --    945.7449               957.5631               976.5783
 Red. masses --      2.0979                 2.6153                 2.1105
 Frc consts  --      1.1056                 1.4129                 1.1859
 IR Inten    --     11.2733                 6.8473                29.2675

                     22                     23                     24
                      A                      A                      A
 Frequencies --    979.4862              1024.3442              1044.5739
 Red. masses --      2.1687                 1.3992                 1.3064
 Frc consts  --      1.2259                 0.8650                 0.8399
 IR Inten    --     16.6125                 3.6052                 8.6672

                     25                     26                     27
                      A                      A                      A
 Frequencies --   1047.6497              1065.7616              1085.6426
 Red. masses --      1.6419                 2.0130                 1.7157
 Frc consts  --      1.0617                 1.3471                 1.1914
 IR Inten    --     45.2169                14.0491                39.7455

                     28                     29                     30
                      A                      A                      A
 Frequencies --   1107.6233              1127.1774              1165.1644
 Red. masses --      1.7123                 2.8432                 1.8091
 Frc consts  --      1.2377                 2.1283                 1.4471
 IR Inten    --     19.7512                29.5865                 4.7192

                     31                     32                     33
                      A                      A                      A
 Frequencies --   1210.6269              1252.4879              1280.0651
 Red. masses --      2.1566                 2.8087                 1.9117
 Frc consts  --      1.8622                 2.5960                 1.8456
 IR Inten    --     11.0114               120.0521                 0.5475

                     34                     35                     36
                      A                      A                      A
 Frequencies --   1340.7341              1384.5436              1401.9294
 Red. masses --      1.9971                 1.6231                 1.2960
 Frc consts  --      2.1152                 1.8332                 1.5008
 IR Inten    --      6.1828                45.3144                14.9318

                     37                     38                     39
                      A                      A                      A
 Frequencies --   1426.1880              1469.6212              1475.8252
 Red. masses --      1.3699                 1.2951                 1.1670
 Frc consts  --      1.6417                 1.6481                 1.4976
 IR Inten    --      9.4263                16.0856                 2.0687

                     40                     41                     42
                      A                      A                      A
 Frequencies --   1485.4148              1512.1581              3034.2947
 Red. masses --      1.2679                 1.6072                 1.0347
 Frc consts  --      1.6483                 2.1653                 5.6128
 IR Inten    --     17.2105                11.6731                22.7305

                     43                     44                     45
                      A                      A                      A
 Frequencies --   3101.7772              3111.8113              3120.4125
 Red. masses --      1.1016                 1.1002                 1.0533
 Frc consts  --      6.2444                 6.2771                 6.0429
 IR Inten    --     19.5890                20.4705                11.0370

                     46                     47                     48
                      A                      A                      A
 Frequencies --   3124.0051              3190.7817              3206.8301
 Red. masses --      1.0550                 1.0921                 1.1053
 Frc consts  --      6.0663                 6.5509                 6.6972
 IR Inten    --      6.5174                18.1484                 1.0703

                     49                     50                     51
                      A                      A                      A
 Frequencies --   3216.0538              3219.0522              3729.0655
 Red. masses --      1.1084                 1.1167                 1.0655
 Frc consts  --      6.7548                 6.8179                 8.7296
 IR Inten    --     13.2611                 3.5561                52.9970

 - Thermochemistry -
 -------------------
 Temperature   298.150 Kelvin.  Pressure   1.00000 Atm.
 Atom     1 has atomic number  6 and mass  12.00000

 Molecular mass:   126.06808 amu.
 Principal axes and moments of inertia in atomic units:
                           1         2         3
     Eigenvalues --   541.970801384.002031520.55502
           X            0.99987  -0.01606   0.00194
           Y            0.01612   0.99926  -0.03496
           Z           -0.00137   0.03499   0.99939
 This molecule is an asymmetric top.
 Rotational symmetry number  1.
 Warning -- assumption of classical behavior for rotation
           may cause significant error
 Rotational temperatures (Kelvin)      0.15981     0.06258     0.05696
 Rotational constants (GHZ):           3.32996     1.30400     1.18690
 Zero-point vibrational energy     412442.3 (Joules/Mol)
                                   98.57607 (Kcal/Mol)
 Warning -- explicit consideration of  12 degrees of freedom as
           vibrations may cause significant error
 Vibrational temperatures:    183.58   221.30   234.45   294.95   416.67
          (Kelvin)            537.70   554.81   576.89   649.95   689.66
                              808.65   855.24  1068.90  1115.59  1162.14
                             1213.15  1250.97  1307.13  1360.71  1377.72
                             1405.08  1409.26  1473.80  1502.91  1507.33
                             1533.39  1562.00  1593.62  1621.75  1676.41
                             1741.82  1802.05  1841.73  1929.01  1992.05
                             2017.06  2051.96  2114.45  2123.38  2137.18
                             2175.66  4365.67  4462.76  4477.20  4489.57
                             4494.74  4590.82  4613.91  4627.18  4631.49
                             5365.29

 Zero-point correction=                           0.157091 (Hartree/Particle)
 Thermal correction to Energy=                    0.165583
 Thermal correction to Enthalpy=                  0.166527
 Thermal correction to Gibbs Free Energy=         0.124479
 Sum of electronic and zero-point Energies=           -422.961944
 Sum of electronic and thermal Energies=              -422.953451
 Sum of electronic and thermal Enthalpies=            -422.952507
 Sum of electronic and thermal Free Energies=         -422.994556

                     E (Thermal)             CV                S
                      KCal/Mol        Cal/Mol-Kelvin    Cal/Mol-Kelvin
 Total                  103.905             33.529             88.499
 Electronic               0.000              0.000              0.000
 Translational            0.889              2.981             40.409
 Rotational               0.889              2.981             28.524
 Vibrational            102.128             27.568             19.566
 Vibration     1          0.611              1.926              2.982
 Vibration     2          0.619              1.898              2.625
 Vibration     3          0.623              1.888              2.515
 Vibration     4          0.640              1.833              2.088
 Vibration     5          0.686              1.693              1.476
 Vibration     6          0.745              1.526              1.064
 Vibration     7          0.754              1.501              1.017
 Vibration     8          0.767              1.468              0.959
 Vibration     9          0.810              1.357              0.791
 Vibration    10          0.836              1.296              0.712
 Vibration    11          0.918              1.113              0.520
 Vibration    12          0.952              1.044              0.459

 Normal termination of Gaussian 09 at Mon Jan 27 16:57:37 2020.
