 Gaussian 09, Revision D.01,
 Gaussian 09:  ES64L-G09RevD.01 24-Apr-2013

 -----------------------------
 # b3lyp 6-31G(2df,p) opt Freq
 -----------------------------

 -----
 titel
 -----
 Symbolic Z-matrix:
 Charge =  0 Multiplicity = 1

 SCF Done:  E(RB3LYP) =  -423.129131123     A.U. after   14 cycles
 Optimization completed.
    -- Stationary point found.
 Normal termination of Gaussian 09 at Tue Jan 28 08:19:40 2020.

 ----------------------------------------------------------------------
 #N Geom=AllCheck Guess=TCheck SCRF=Check GenChk RB3LYP/6-31G(2df,p) Fr
 eq
 ----------------------------------------------------------------------

 Structure from the checkpoint file:  "/scratch/puck/g09_1b408c48-6897-42e9-8532-eb76b16efeb1/Gau-14697.chk"
 -----
 titel
 -----
 Charge =  0 Multiplicity = 1

                         Standard orientation:
 ---------------------------------------------------------------------
 Center     Atomic      Atomic             Coordinates (Angstroms)
 Number     Number       Type             X           Y           Z
 ---------------------------------------------------------------------
      1          8           0       -2.913462   -0.094679   -0.429050
      2          6           0       -1.563116    0.005534   -0.827332
      3          6           0       -0.636186   -0.411912    0.320413
      4          8           0       -0.991267    0.318170    1.494524
      5          6           0        0.845480   -0.261524   -0.010781
      6          6           0        1.826652   -1.226177    0.640375
      7          6           0        1.515231   -1.363608   -0.819383
      8          6           0        1.274393    1.099666   -0.199710
      9          6           0        1.589728    2.256416   -0.313820
     10          1           0       -2.938152    0.266225    0.467179
     11          1           0       -1.421576   -0.653261   -1.690814
     12          1           0       -1.305160    1.030293   -1.143552
     13          1           0       -0.838254   -1.461013    0.564442
     14          1           0       -0.614670    1.203557    1.400838
     15          1           0        2.795096   -0.831382    0.922587
     16          1           0        1.409028   -1.948667    1.332606
     17          1           0        2.267624   -1.065728   -1.539487
     18          1           0        0.885321   -2.187264   -1.138262
     19          1           0        1.885482    3.268938   -0.437908
 ---------------------------------------------------------------------

 SCF Done:  E(RB3LYP) =  -423.129131123     A.U. after    1 cycles

 The electronic state is 1-A.
 Alpha  occ. eigenvalues --  -19.14744 -19.12333 -10.24182 -10.22904 -10.22031
 Alpha  occ. eigenvalues --  -10.20650 -10.20382 -10.19501 -10.18558  -1.03563
 Alpha  occ. eigenvalues --   -1.00099  -0.88642  -0.75928  -0.73659  -0.64752
 Alpha  occ. eigenvalues --   -0.62181  -0.61570  -0.54013  -0.51712  -0.51116
 Alpha  occ. eigenvalues --   -0.48933  -0.46660  -0.43468  -0.43065  -0.39631
 Alpha  occ. eigenvalues --   -0.38292  -0.36551  -0.34623  -0.33078  -0.31873
 Alpha  occ. eigenvalues --   -0.29231  -0.28046  -0.26293  -0.24772
 Alpha virt. eigenvalues --    0.03262   0.03949   0.08526   0.08921   0.10194
 Alpha virt. eigenvalues --    0.11834   0.12193   0.13152   0.14248   0.16397
 Alpha virt. eigenvalues --    0.16712   0.17651   0.20294   0.21554   0.21816

 Mulliken charges:
               1
     1  O   -0.424997
     2  C   -0.067649
     3  C    0.018622
     4  O   -0.446594
     5  C    0.149248
     6  C   -0.302205
     7  C   -0.298724
     8  C    0.252876
     9  C   -0.457955
    10  H    0.284586
    11  H    0.104899
    12  H    0.089226
    13  H    0.091132
    14  H    0.287430
    15  H    0.131247
    16  H    0.130146
    17  H    0.131520
    18  H    0.127059
    19  H    0.200133
 Sum of Mulliken charges =   0.00000

 Dipole moment (field-independent basis, Debye):
    X=              2.4261    Y=              0.4066    Z=             -0.0586  Tot=              2.4607
 Quadrupole moment (field-independent basis, Debye-Ang):
   XX=            -59.3064   YY=            -46.3241   ZZ=            -55.2891
   XY=             -0.6821   XZ=             -2.3298   YZ=              0.9145

  Exact polarizability:  77.501   4.118  91.485  -1.486  -0.981  64.505
 Approx polarizability: 102.541  10.268 146.491  -3.490  -1.809  97.545

                      1                      2                      3
                      A                      A                      A
 Frequencies --     69.9381               103.2427               148.2955
 Red. masses --      4.0658                 3.8968                 3.8106
 Frc consts  --      0.0117                 0.0245                 0.0494
 IR Inten    --      0.9785                 4.1461                 3.3110

                      4                      5                      6
                      A                      A                      A
 Frequencies --    161.7696               220.1559               255.3071
 Red. masses --      3.7485                 2.5339                 3.2868
 Frc consts  --      0.0578                 0.0724                 0.1262
 IR Inten    --      1.0270                 0.9235                 1.5553

                      7                      8                      9
                      A                      A                      A
 Frequencies --    294.2653               385.0228               389.8492
 Red. masses --      3.2887                 4.8531                 1.1738
 Frc consts  --      0.1678                 0.4239                 0.1051
 IR Inten    --      1.8793                 3.7724                39.4882

                     10                     11                     12
                      A                      A                      A
 Frequencies --    425.9749               504.0473               531.1311
 Red. masses --      3.7972                 2.2145                 1.2917
 Frc consts  --      0.4060                 0.3315                 0.2147
 IR Inten    --      6.9689                 6.1469               151.9878

                     13                     14                     15
                      A                      A                      A
 Frequencies --    565.2153               571.8654               593.2056
 Red. masses --      3.8982                 2.8939                 1.4465
 Frc consts  --      0.7337                 0.5576                 0.2999
 IR Inten    --      3.6361                26.1955                28.3251

                     16                     17                     18
                      A                      A                      A
 Frequencies --    667.4691               752.6085               789.1739
 Red. masses --      1.2288                 2.6766                 1.1765
 Frc consts  --      0.3226                 0.8932                 0.4317
 IR Inten    --     42.0745                 9.2780                 3.8026

                     19                     20                     21
                      A                      A                      A
 Frequencies --    868.3729               899.2042               946.0240
 Red. masses --      2.3912                 5.5962                 1.3308
 Frc consts  --      1.0624                 2.6660                 0.7017
 IR Inten    --     14.2261                12.8880                 4.1511

                     22                     23                     24
                      A                      A                      A
 Frequencies --    958.3664               977.0050              1061.7531
 Red. masses --      1.4254                 3.3243                 1.4250
 Frc consts  --      0.7714                 1.8696                 0.9465
 IR Inten    --     11.2129                12.6057                 9.0378

                     25                     26                     27
                      A                      A                      A
 Frequencies --   1076.5920              1082.7180              1091.9076
 Red. masses --      2.1522                 1.9763                 2.1679
 Frc consts  --      1.4697                 1.3650                 1.5229
 IR Inten    --     39.7081                43.7572                60.1872

                     28                     29                     30
                      A                      A                      A
 Frequencies --   1108.9326              1193.6064              1202.2893
 Red. masses --      3.5338                 1.3145                 1.1288
 Frc consts  --      2.5603                 1.1034                 0.9613
 IR Inten    --     52.3829                 0.1363                41.3376

                     31                     32                     33
                      A                      A                      A
 Frequencies --   1240.1758              1286.2787              1310.3141
 Red. masses --      1.7164                 2.7984                 1.4230
 Frc consts  --      1.5554                 2.7279                 1.4395
 IR Inten    --      3.6086                 3.4001                 8.6233

                     34                     35                     36
                      A                      A                      A
 Frequencies --   1348.7082              1385.8384              1429.1449
 Red. masses --      2.0294                 1.2143                 1.2352
 Frc consts  --      2.1750                 1.3740                 1.4864
 IR Inten    --      4.5890                21.2297                87.5227

                     37                     38                     39
                      A                      A                      A
 Frequencies --   1444.3760              1466.7169              1494.9898
 Red. masses --      1.3036                 1.0865                 1.2878
 Frc consts  --      1.6024                 1.3772                 1.6958
 IR Inten    --     45.5773                 4.1058                 0.7397

                     40                     41                     42
                      A                      A                      A
 Frequencies --   1509.0068              2223.7471              2968.2838
 Red. masses --      1.0946                 6.0353                 1.0698
 Frc consts  --      1.4686                17.5841                 5.5537
 IR Inten    --      1.3363                 9.7645                43.2274

                     43                     44                     45
                      A                      A                      A
 Frequencies --   3052.3237              3072.7776              3139.0147
 Red. masses --      1.0843                 1.0928                 1.0520
 Frc consts  --      5.9519                 6.0795                 6.1071
 IR Inten    --     16.4714                34.9531                10.5701

                     46                     47                     48
                      A                      A                      A
 Frequencies --   3143.7829              3224.8905              3239.2428
 Red. masses --      1.0578                 1.1182                 1.1164
 Frc consts  --      6.1595                 6.8515                 6.9015
 IR Inten    --      6.4303                 0.1920                 7.2587

                     49                     50                     51
                      A                      A                      A
 Frequencies --   3499.8971              3755.9386              3762.7760
 Red. masses --      1.1595                 1.0655                 1.0649
 Frc consts  --      8.3679                 8.8562                 8.8834
 IR Inten    --     82.2488                40.1432                26.4808

 - Thermochemistry -
 -------------------
 Temperature   298.150 Kelvin.  Pressure   1.00000 Atm.
 Atom     1 has atomic number  8 and mass  15.99491

 Molecular mass:   126.06808 amu.
 Principal axes and moments of inertia in atomic units:
                           1         2         3
     Eigenvalues --   795.979441502.207081755.41879
           X            0.99980  -0.02014   0.00105
           Y            0.02013   0.99979   0.00376
           Z           -0.00113  -0.00374   0.99999
 This molecule is an asymmetric top.
 Rotational symmetry number  1.
 Warning -- assumption of classical behavior for rotation
           may cause significant error
 Rotational temperatures (Kelvin)      0.10881     0.05766     0.04934
 Rotational constants (GHZ):           2.26732     1.20139     1.02810
 Zero-point vibrational energy     412074.8 (Joules/Mol)
                                   98.48825 (Kcal/Mol)
 Warning -- explicit consideration of  15 degrees of freedom as
           vibrations may cause significant error
 Vibrational temperatures:    100.63   148.54   213.36   232.75   316.75
          (Kelvin)            367.33   423.38   553.96   560.91   612.88
                              725.21   764.18   813.22   822.79   853.49
                              960.34  1082.83  1135.44  1249.39  1293.75
                             1361.12  1378.87  1405.69  1527.62  1548.97
                             1557.79  1571.01  1595.50  1717.33  1729.82
                             1784.33  1850.67  1885.25  1940.49  1993.91
                             2056.22  2078.13  2110.28  2150.95  2171.12
                             3199.47  4270.69  4391.61  4421.04  4516.34
                             4523.20  4639.89  4660.54  5035.56  5403.95
                             5413.79

 Zero-point correction=                           0.156951 (Hartree/Particle)
 Thermal correction to Energy=                    0.166677
 Thermal correction to Enthalpy=                  0.167621
 Thermal correction to Gibbs Free Energy=         0.122452
 Sum of electronic and zero-point Energies=           -422.972180
 Sum of electronic and thermal Energies=              -422.962454
 Sum of electronic and thermal Enthalpies=            -422.961510
 Sum of electronic and thermal Free Energies=         -423.006679

                     E (Thermal)             CV                S
                      KCal/Mol        Cal/Mol-Kelvin    Cal/Mol-Kelvin
 Total                  104.592             36.624             95.067
 Electronic               0.000              0.000              0.000
 Translational            0.889              2.981             40.409
 Rotational               0.889              2.981             29.130
 Vibrational            102.814             30.662             25.528
 Vibration     1          0.598              1.968              4.155
 Vibration     2          0.605              1.947              3.392
 Vibration     3          0.618              1.905              2.694
 Vibration     4          0.622              1.889              2.529
 Vibration     5          0.647              1.810              1.958
 Vibration     6          0.666              1.754              1.694
 Vibration     7          0.689              1.684              1.449
 Vibration     8          0.754              1.502              1.019
 Vibration     9          0.758              1.492              1.001
 Vibration    10          0.788              1.414              0.872
 Vibration    11          0.859              1.241              0.648
 Vibration    12          0.886              1.181              0.585
 Vibration    13          0.921              1.107              0.514
 Vibration    14          0.928              1.092              0.501
 Vibration    15          0.951              1.046              0.461

 Optimization completed.
    -- Stationary point found.
 Normal termination of Gaussian 09 at Tue Jan 28 09:04:28 2020.
