 Gaussian 09, Revision D.01,
 Gaussian 09:  ES64L-G09RevD.01 24-Apr-2013

 -----------------------------
 # b3lyp 6-31G(2df,p) opt Freq
 -----------------------------

 -----
 titel
 -----
 Symbolic Z-matrix:
 Charge =  0 Multiplicity = 1

 SCF Done:  E(RB3LYP) =  -423.204908820     A.U. after   14 cycles
 Optimization completed.
    -- Stationary point found.
 Normal termination of Gaussian 09 at Tue Jan 28 02:06:14 2020.

 ----------------------------------------------------------------------
 #N Geom=AllCheck Guess=TCheck SCRF=Check GenChk RB3LYP/6-31G(2df,p) Fr
 eq
 ----------------------------------------------------------------------

 Structure from the checkpoint file:  "/scratch/puck/g09_7139dd07-3ac2-482c-a8a1-a29c00249d09/Gau-4746.chk"
 -----
 titel
 -----
 Charge =  0 Multiplicity = 1

                         Standard orientation:
 ---------------------------------------------------------------------
 Center     Atomic      Atomic             Coordinates (Angstroms)
 Number     Number       Type             X           Y           Z
 ---------------------------------------------------------------------
      1          6           0       -2.805958    1.507100   -0.234049
      2          6           0       -1.992776    0.249894   -0.430980
      3          6           0       -2.186684   -0.946208    0.429221
      4          6           0       -0.913063   -0.120423    0.592780
      5          6           0        0.348746   -0.698007    0.069090
      6          8           0        0.375725   -1.449731   -0.886236
      7          6           0        1.656619   -0.294184    0.752153
      8          6           0        2.648913    0.254778   -0.264516
      9          8           0        3.337079    1.221739   -0.074088
     10          1           0       -2.266250    2.392479   -0.585553
     11          1           0       -3.748784    1.447761   -0.788767
     12          1           0       -3.052167    1.659804    0.821901
     13          1           0       -1.692663    0.033783   -1.452365
     14          1           0       -2.903684   -0.893090    1.241644
     15          1           0       -2.051000   -1.924018   -0.018540
     16          1           0       -0.836096    0.510122    1.471115
     17          1           0        1.532605    0.419673    1.568146
     18          1           0        2.097494   -1.217163    1.153532
     19          1           0        2.683338   -0.323107   -1.210719
 ---------------------------------------------------------------------

 SCF Done:  E(RB3LYP) =  -423.204908820     A.U. after    1 cycles

 The electronic state is 1-A.
 Alpha  occ. eigenvalues --  -19.14531 -19.13333 -10.27983 -10.27854 -10.21173
 Alpha  occ. eigenvalues --  -10.20660 -10.20557 -10.20219 -10.19073  -1.05341
 Alpha  occ. eigenvalues --   -1.04507  -0.87770  -0.77996  -0.72730  -0.66098
 Alpha  occ. eigenvalues --   -0.59249  -0.57837  -0.54482  -0.51009  -0.48011
 Alpha  occ. eigenvalues --   -0.47270  -0.44632  -0.44008  -0.42430  -0.41822
 Alpha  occ. eigenvalues --   -0.40352  -0.39065  -0.38740  -0.37195  -0.35795
 Alpha  occ. eigenvalues --   -0.30871  -0.29229  -0.27096  -0.24545
 Alpha virt. eigenvalues --   -0.03590  -0.01589   0.08392   0.09929   0.11682
 Alpha virt. eigenvalues --    0.13384   0.13750   0.14086   0.14757   0.16217
 Alpha virt. eigenvalues --    0.16579   0.17516   0.18305   0.20199   0.22346

 Mulliken charges:
               1
     1  C   -0.412874
     2  C    0.027740
     3  C   -0.276508
     4  C   -0.136558
     5  C    0.363551
     6  O   -0.342333
     7  C   -0.380396
     8  C    0.162866
     9  O   -0.234877
    10  H    0.127349
    11  H    0.127856
    12  H    0.117587
    13  H    0.114089
    14  H    0.118254
    15  H    0.138911
    16  H    0.091948
    17  H    0.126557
    18  H    0.157468
    19  H    0.109371
 Sum of Mulliken charges =   0.00000

 Dipole moment (field-independent basis, Debye):
    X=             -2.5766    Y=             -0.1757    Z=              1.7073  Tot=              3.0959
 Quadrupole moment (field-independent basis, Debye-Ang):
   XX=            -57.4524   YY=            -57.2325   ZZ=            -52.3921
   XY=             -6.7335   XZ=              0.4627   YZ=             -2.6494

  Exact polarizability:  98.779   1.686  73.571  -0.806   2.259  67.082
 Approx polarizability: 125.198   8.288 115.203  -0.628   9.406 106.978

                      1                      2                      3
                      A                      A                      A
 Frequencies --     23.9680                50.4342               104.2080
 Red. masses --      5.2100                 2.9498                 3.4596
 Frc consts  --      0.0018                 0.0044                 0.0221
 IR Inten    --      2.3316                 0.6191                10.0762

                      4                      5                      6
                      A                      A                      A
 Frequencies --    162.9228               173.0543               218.2603
 Red. masses --      3.5540                 2.6114                 1.1962
 Frc consts  --      0.0556                 0.0461                 0.0336
 IR Inten    --      2.0604                 0.6842                 1.1085

                      7                      8                      9
                      A                      A                      A
 Frequencies --    258.9116               324.4132               359.2196
 Red. masses --      3.1654                 3.4711                 2.8582
 Frc consts  --      0.1250                 0.2152                 0.2173
 IR Inten    --      8.7550                 2.4937                 0.9616

                     10                     11                     12
                      A                      A                      A
 Frequencies --    403.1289               471.8256               590.3073
 Red. masses --      2.2759                 5.0833                 2.2810
 Frc consts  --      0.2179                 0.6667                 0.4683
 IR Inten    --      0.6957                10.9696                13.5380

                     13                     14                     15
                      A                      A                      A
 Frequencies --    705.6906               762.1797               796.8440
 Red. masses --      3.2413                 2.5711                 1.8980
 Frc consts  --      0.9510                 0.8800                 0.7101
 IR Inten    --      0.4451                 2.0414                 7.3864

                     16                     17                     18
                      A                      A                      A
 Frequencies --    831.4457               876.9315               892.0324
 Red. masses --      2.6693                 2.7409                 1.2961
 Frc consts  --      1.0872                 1.2419                 0.6077
 IR Inten    --     18.4094                17.2542                 3.2493

                     19                     20                     21
                      A                      A                      A
 Frequencies --    954.4449               973.1095              1029.2259
 Red. masses --      1.3525                 2.4778                 2.0613
 Frc consts  --      0.7259                 1.3824                 1.2865
 IR Inten    --      6.2177                21.2343                17.1311

                     22                     23                     24
                      A                      A                      A
 Frequencies --   1050.6419              1075.7946              1103.5476
 Red. masses --      3.2031                 1.4353                 1.4892
 Frc consts  --      2.0832                 0.9787                 1.0685
 IR Inten    --     68.0263                41.6627                11.6343

                     25                     26                     27
                      A                      A                      A
 Frequencies --   1111.1911              1117.1552              1148.2352
 Red. masses --      1.5998                 1.3755                 1.4445
 Frc consts  --      1.1639                 1.0114                 1.1221
 IR Inten    --    137.1022                20.9189                 2.2353

                     28                     29                     30
                      A                      A                      A
 Frequencies --   1193.0266              1199.9330              1236.2789
 Red. masses --      1.3920                 1.5929                 1.7813
 Frc consts  --      1.1673                 1.3513                 1.6040
 IR Inten    --      5.2506                 1.0641                 1.7427

                     31                     32                     33
                      A                      A                      A
 Frequencies --   1284.6868              1354.5715              1405.6672
 Red. masses --      1.4657                 1.5851                 1.1673
 Frc consts  --      1.4253                 1.7136                 1.3589
 IR Inten    --     44.0085                52.6681                 4.3576

                     34                     35                     36
                      A                      A                      A
 Frequencies --   1412.8032              1432.3082              1441.3944
 Red. masses --      1.2675                 1.5937                 1.1087
 Frc consts  --      1.4906                 1.9263                 1.3572
 IR Inten    --     26.3054                38.9444                16.3153

                     37                     38                     39
                      A                      A                      A
 Frequencies --   1475.7131              1491.3045              1502.0275
 Red. masses --      1.4181                 1.0567                 1.0966
 Frc consts  --      1.8196                 1.3846                 1.4577
 IR Inten    --     22.7640                 2.8769                 9.6873

                     40                     41                     42
                      A                      A                      A
 Frequencies --   1764.9408              1836.9601              2932.8047
 Red. masses --     10.7379                 9.7641                 1.0854
 Frc consts  --     19.7074                19.4124                 5.5005
 IR Inten    --    140.5796               198.3946                53.5704

                     43                     44                     45
                      A                      A                      A
 Frequencies --   3030.7943              3030.9287              3095.7920
 Red. masses --      1.0359                 1.0642                 1.1008
 Frc consts  --      5.6065                 5.7599                 6.2161
 IR Inten    --     26.5910                 0.5090                18.6132

                     46                     47                     48
                      A                      A                      A
 Frequencies --   3100.8580              3126.2000              3135.4275
 Red. masses --      1.1011                 1.0965                 1.0539
 Frc consts  --      6.2382                 6.3137                 6.1044
 IR Inten    --     18.6436                 6.9378                10.6936

                     49                     50                     51
                      A                      A                      A
 Frequencies --   3158.9756              3178.3913              3231.6017
 Red. masses --      1.0883                 1.0892                 1.1171
 Frc consts  --      6.3984                 6.4832                 6.8738
 IR Inten    --      5.2861                 8.8880                 2.8831

 - Thermochemistry -
 -------------------
 Temperature   298.150 Kelvin.  Pressure   1.00000 Atm.
 Atom     1 has atomic number  6 and mass  12.00000

 Molecular mass:   126.06808 amu.
 Principal axes and moments of inertia in atomic units:
                           1         2         3
     Eigenvalues --   583.287112176.668292457.28881
           X            0.99959  -0.02839   0.00215
           Y            0.02844   0.99931  -0.02376
           Z           -0.00147   0.02381   0.99972
 This molecule is an asymmetric top.
 Rotational symmetry number  1.
 Warning -- assumption of classical behavior for rotation
           may cause significant error
 Rotational temperatures (Kelvin)      0.14849     0.03979     0.03525
 Rotational constants (GHZ):           3.09409     0.82913     0.73444
 Zero-point vibrational energy     410453.8 (Joules/Mol)
                                   98.10081 (Kcal/Mol)
 Warning -- explicit consideration of  12 degrees of freedom as
           vibrations may cause significant error
 Vibrational temperatures:     34.48    72.56   149.93   234.41   248.99
          (Kelvin)            314.03   372.52   466.76   516.84   580.01
                              678.85   849.32  1015.33  1096.61  1146.48
                             1196.26  1261.71  1283.43  1373.23  1400.09
                             1480.82  1511.64  1547.83  1587.76  1598.75
                             1607.34  1652.05  1716.50  1726.43  1778.73
                             1848.38  1948.92  2022.44  2032.71  2060.77
                             2073.84  2123.22  2145.65  2161.08  2539.35
                             2642.97  4219.65  4360.63  4360.82  4454.15
                             4461.44  4497.90  4511.18  4545.06  4572.99
                             4649.55

 Zero-point correction=                           0.156334 (Hartree/Particle)
 Thermal correction to Energy=                    0.166155
 Thermal correction to Enthalpy=                  0.167099
 Thermal correction to Gibbs Free Energy=         0.119733
 Sum of electronic and zero-point Energies=           -423.048575
 Sum of electronic and thermal Energies=              -423.038754
 Sum of electronic and thermal Enthalpies=            -423.037810
 Sum of electronic and thermal Free Energies=         -423.085175

                     E (Thermal)             CV                S
                      KCal/Mol        Cal/Mol-Kelvin    Cal/Mol-Kelvin
 Total                  104.264             34.456             99.690
 Electronic               0.000              0.000              0.000
 Translational            0.889              2.981             40.409
 Rotational               0.889              2.981             29.524
 Vibrational            102.486             28.494             29.757
 Vibration     1          0.593              1.985              6.275
 Vibration     2          0.595              1.977              4.800
 Vibration     3          0.605              1.946              3.374
 Vibration     4          0.623              1.888              2.516
 Vibration     5          0.627              1.876              2.402
 Vibration     6          0.646              1.813              1.973
 Vibration     7          0.668              1.748              1.669
 Vibration     8          0.709              1.627              1.288
 Vibration     9          0.734              1.556              1.125
 Vibration    10          0.769              1.463              0.951
 Vibration    11          0.829              1.313              0.732
 Vibration    12          0.948              1.052              0.467

 Normal termination of Gaussian 09 at Tue Jan 28 02:41:21 2020.
