 Gaussian 09, Revision D.01,
 Gaussian 09:  ES64L-G09RevD.01 24-Apr-2013

 -----------------------------
 # b3lyp 6-31G(2df,p) opt Freq
 -----------------------------

 -----
 titel
 -----
 Symbolic Z-matrix:
 Charge =  0 Multiplicity = 1

 SCF Done:  E(RB3LYP) =  -423.151972467     A.U. after   15 cycles
 Optimization completed.
    -- Stationary point found.
 Normal termination of Gaussian 09 at Tue Jan 28 08:20:39 2020.

 ----------------------------------------------------------------------
 #N Geom=AllCheck Guess=TCheck SCRF=Check GenChk RB3LYP/6-31G(2df,p) Fr
 eq
 ----------------------------------------------------------------------

 Structure from the checkpoint file:  "/scratch/puck/g09_57eae351-7070-4652-862e-75983042d87a/Gau-59938.chk"
 -----
 titel
 -----
 Charge =  0 Multiplicity = 1

                         Standard orientation:
 ---------------------------------------------------------------------
 Center     Atomic      Atomic             Coordinates (Angstroms)
 Number     Number       Type             X           Y           Z
 ---------------------------------------------------------------------
      1          6           0        1.268119    1.909872    0.283704
      2          6           0        0.920041    0.494586   -0.213479
      3          6           0        2.014250   -0.447855    0.256364
      4          8           0        2.837405   -0.964321   -0.452007
      5          6           0       -0.455474    0.006839    0.316335
      6          6           0       -0.806568   -1.406099   -0.216137
      7          8           0       -2.022995   -1.889848    0.302251
      8          6           0       -1.535978    0.927406   -0.028406
      9          6           0       -2.455431    1.633766   -0.350799
     10          1           0        2.217368    2.246265   -0.142121
     11          1           0        0.485696    2.615003   -0.006103
     12          1           0        1.356687    1.933856    1.375901
     13          1           0        0.916651    0.477382   -1.308046
     14          1           0        2.023182   -0.609140    1.362380
     15          1           0       -0.400924   -0.064185    1.412392
     16          1           0       -0.806565   -1.380291   -1.316944
     17          1           0       -0.034448   -2.115646    0.098187
     18          1           0       -2.710220   -1.259552    0.054629
     19          1           0       -3.256461    2.278565   -0.617715
 ---------------------------------------------------------------------

 SCF Done:  E(RB3LYP) =  -423.151972467     A.U. after    1 cycles

 The electronic state is 1-A.
 Alpha  occ. eigenvalues --  -19.14757 -19.14112 -10.27759 -10.24131 -10.22826
 Alpha  occ. eigenvalues --  -10.21338 -10.19931 -10.19528 -10.19110  -1.05486
 Alpha  occ. eigenvalues --   -1.02604  -0.84411  -0.76875  -0.73162  -0.66065
 Alpha  occ. eigenvalues --   -0.64832  -0.58190  -0.54147  -0.51790  -0.48899
 Alpha  occ. eigenvalues --   -0.48530  -0.45669  -0.44128  -0.42173  -0.41577
 Alpha  occ. eigenvalues --   -0.40197  -0.38813  -0.37564  -0.36309  -0.33340
 Alpha  occ. eigenvalues --   -0.29326  -0.28644  -0.26980  -0.25519
 Alpha virt. eigenvalues --   -0.03062   0.03405   0.03851   0.09090   0.09651
 Alpha virt. eigenvalues --    0.10809   0.11560   0.12974   0.14531   0.14942
 Alpha virt. eigenvalues --    0.15841   0.16246   0.17679   0.18136   0.22494

 Mulliken charges:
               1
     1  C   -0.420235
     2  C   -0.070205
     3  C    0.157568
     4  O   -0.247611
     5  C   -0.194715
     6  C   -0.068650
     7  O   -0.418952
     8  C    0.291905
     9  C   -0.445634
    10  H    0.134369
    11  H    0.144276
    12  H    0.123505
    13  H    0.106025
    14  H    0.074886
    15  H    0.116371
    16  H    0.103326
    17  H    0.121957
    18  H    0.287439
    19  H    0.204376
 Sum of Mulliken charges =   0.00000

 Dipole moment (field-independent basis, Debye):
    X=             -1.5250    Y=              2.5466    Z=              0.3697  Tot=              2.9912
 Quadrupole moment (field-independent basis, Debye-Ang):
   XX=            -57.0933   YY=            -56.3260   ZZ=            -53.3769
   XY=             -0.9230   XZ=              5.4892   YZ=             -0.4938

  Exact polarizability:  93.833 -12.638  79.904   2.638  -2.149  62.109
 Approx polarizability: 134.370 -27.389 114.969   2.165  -4.944 100.361

                      1                      2                      3
                      A                      A                      A
 Frequencies --     53.8930                61.3024               111.8643
 Red. masses --      4.0181                 6.0342                 3.3864
 Frc consts  --      0.0069                 0.0134                 0.0250
 IR Inten    --      0.7323                 5.1636                 3.8092

                      4                      5                      6
                      A                      A                      A
 Frequencies --    141.7712               174.4871               212.2687
 Red. masses --      3.6957                 3.0266                 2.0963
 Frc consts  --      0.0438                 0.0543                 0.0557
 IR Inten    --      0.1015                 1.0620                 0.1381

                      7                      8                      9
                      A                      A                      A
 Frequencies --    221.7332               296.3090               335.4645
 Red. masses --      1.2011                 2.5305                 3.1889
 Frc consts  --      0.0348                 0.1309                 0.2114
 IR Inten    --      0.6869                 0.2779                 4.6777

                     10                     11                     12
                      A                      A                      A
 Frequencies --    355.3286               395.3630               421.8212
 Red. masses --      3.2514                 1.3068                 3.1848
 Frc consts  --      0.2419                 0.1204                 0.3339
 IR Inten    --     14.3241                87.8537                29.1660

                     13                     14                     15
                      A                      A                      A
 Frequencies --    461.2113               548.1104               624.1669
 Red. masses --      6.6989                 3.5700                 3.1947
 Frc consts  --      0.8396                 0.6319                 0.7333
 IR Inten    --      3.7026                 5.3546                15.1616

                     16                     17                     18
                      A                      A                      A
 Frequencies --    633.2498               662.0912               823.5600
 Red. masses --      1.2408                 1.2228                 2.4507
 Frc consts  --      0.2932                 0.3158                 0.9793
 IR Inten    --     40.4396                42.9520                 1.3736

                     19                     20                     21
                      A                      A                      A
 Frequencies --    896.3868               932.2986               959.7744
 Red. masses --      1.6423                 1.8285                 1.9757
 Frc consts  --      0.7775                 0.9364                 1.0723
 IR Inten    --     23.7091                22.5987                 1.9846

                     22                     23                     24
                      A                      A                      A
 Frequencies --   1013.5043              1051.8535              1088.8898
 Red. masses --      3.1643                 1.9863                 4.1428
 Frc consts  --      1.9151                 1.2948                 2.8941
 IR Inten    --      3.3126                 4.5838               106.8669

                     25                     26                     27
                      A                      A                      A
 Frequencies --   1112.3664              1137.1601              1155.0192
 Red. masses --      2.7910                 2.7745                 1.8624
 Frc consts  --      2.0347                 2.1139                 1.4639
 IR Inten    --      9.6972                10.7193                 5.2605

                     28                     29                     30
                      A                      A                      A
 Frequencies --   1209.5609              1243.4143              1297.6762
 Red. masses --      1.2084                 1.2852                 1.3099
 Frc consts  --      1.0417                 1.1707                 1.2996
 IR Inten    --     15.8528                 7.1727                 6.4811

                     31                     32                     33
                      A                      A                      A
 Frequencies --   1331.2224              1366.9885              1387.9905
 Red. masses --      1.3546                 1.4393                 1.2033
 Frc consts  --      1.4143                 1.5846                 1.3658
 IR Inten    --      7.2953                 5.0751                 0.8976

                     34                     35                     36
                      A                      A                      A
 Frequencies --   1402.2365              1425.9894              1430.9616
 Red. masses --      1.1974                 1.1917                 1.2163
 Frc consts  --      1.3872                 1.4277                 1.4674
 IR Inten    --      4.9340                 3.4132                57.5693

                     37                     38                     39
                      A                      A                      A
 Frequencies --   1496.5741              1498.6923              1501.6935
 Red. masses --      1.0557                 1.0423                 1.0906
 Frc consts  --      1.3931                 1.3794                 1.4490
 IR Inten    --      3.6641                 8.1075                 0.5255

                     40                     41                     42
                      A                      A                      A
 Frequencies --   1837.3000              2225.2196              2833.8380
 Red. masses --     10.4673                 5.9389                 1.0809
 Frc consts  --     20.8183                17.3262                 5.1142
 IR Inten    --    180.7324                 1.1873                92.3670

                     43                     44                     45
                      A                      A                      A
 Frequencies --   2985.6042              3009.9020              3037.0923
 Red. masses --      1.0692                 1.0798                 1.0373
 Frc consts  --      5.6152                 5.7637                 5.6371
 IR Inten    --     33.7329                17.9787                17.4841

                     46                     47                     48
                      A                      A                      A
 Frequencies --   3068.3959              3079.9178              3108.7160
 Red. masses --      1.0841                 1.0950                 1.0988
 Frc consts  --      6.0135                 6.1200                 6.2563
 IR Inten    --     10.3097                28.7549                21.7617

                     49                     50                     51
                      A                      A                      A
 Frequencies --   3129.5916              3499.9709              3784.6538
 Red. masses --      1.1021                 1.1614                 1.0655
 Frc consts  --      6.3600                 8.3819                 8.9923
 IR Inten    --      8.9296                74.6527                24.1004

 - Thermochemistry -
 -------------------
 Temperature   298.150 Kelvin.  Pressure   1.00000 Atm.
 Atom     1 has atomic number  6 and mass  12.00000

 Molecular mass:   126.06808 amu.
 Principal axes and moments of inertia in atomic units:
                           1         2         3
     Eigenvalues --   844.249131551.068122253.39253
           X            0.99956   0.02636   0.01378
           Y           -0.02643   0.99964   0.00512
           Z           -0.01364  -0.00548   0.99989
 This molecule is an asymmetric top.
 Rotational symmetry number  1.
 Warning -- assumption of classical behavior for rotation
           may cause significant error
 Rotational temperatures (Kelvin)      0.10259     0.05584     0.03844
 Rotational constants (GHZ):           2.13769     1.16355     0.80090
 Zero-point vibrational energy     407175.6 (Joules/Mol)
                                   97.31731 (Kcal/Mol)
 Warning -- explicit consideration of  14 degrees of freedom as
           vibrations may cause significant error
 Vibrational temperatures:     77.54    88.20   160.95   203.98   251.05
          (Kelvin)            305.41   319.02   426.32   482.66   511.24
                              568.84   606.91   663.58   788.61   898.04
                              911.10   952.60  1184.92  1289.70  1341.37
                             1380.90  1458.20  1513.38  1566.67  1600.45
                             1636.12  1661.81  1740.29  1788.99  1867.06
                             1915.33  1966.79  1997.01  2017.50  2051.68
                             2058.83  2153.23  2156.28  2160.60  2643.46
                             3201.59  4077.26  4295.61  4330.57  4369.69
                             4414.73  4431.31  4472.74  4502.78  5035.67
                             5445.27

 Zero-point correction=                           0.155085 (Hartree/Particle)
 Thermal correction to Energy=                    0.165699
 Thermal correction to Enthalpy=                  0.166644
 Thermal correction to Gibbs Free Energy=         0.118801
 Sum of electronic and zero-point Energies=           -422.996887
 Sum of electronic and thermal Energies=              -422.986273
 Sum of electronic and thermal Enthalpies=            -422.985329
 Sum of electronic and thermal Free Energies=         -423.033171

                     E (Thermal)             CV                S
                      KCal/Mol        Cal/Mol-Kelvin    Cal/Mol-Kelvin
 Total                  103.978             37.514            100.693
 Electronic               0.000              0.000              0.000
 Translational            0.889              2.981             40.409
 Rotational               0.889              2.981             29.469
 Vibrational            102.200             31.552             30.815
 Vibration     1          0.596              1.976              4.669
 Vibration     2          0.597              1.973              4.415
 Vibration     3          0.607              1.940              3.236
 Vibration     4          0.615              1.911              2.780
 Vibration     5          0.627              1.874              2.387
 Vibration     6          0.643              1.822              2.024
 Vibration     7          0.648              1.808              1.945
 Vibration     8          0.690              1.681              1.438
 Vibration     9          0.717              1.605              1.234
 Vibration    10          0.731              1.564              1.142
 Vibration    11          0.762              1.480              0.980
 Vibration    12          0.784              1.423              0.886
 Vibration    13          0.819              1.336              0.763
 Vibration    14          0.903              1.144              0.548

 Optimization completed.
    -- Stationary point found.
 Normal termination of Gaussian 09 at Tue Jan 28 10:09:07 2020.
