 Gaussian 09, Revision D.01,
 Gaussian 09:  ES64L-G09RevD.01 24-Apr-2013

 -----------------------------
 # b3lyp 6-31G(2df,p) opt Freq
 -----------------------------

 -----
 titel
 -----
 Symbolic Z-matrix:
 Charge =  0 Multiplicity = 1

 SCF Done:  E(RB3LYP) =  -423.221117577     A.U. after   14 cycles
 Optimization completed.
    -- Stationary point found.
 Normal termination of Gaussian 09 at Tue Jan 28 00:02:28 2020.

 ----------------------------------------------------------------------
 #N Geom=AllCheck Guess=TCheck SCRF=Check GenChk RB3LYP/6-31G(2df,p) Fr
 eq
 ----------------------------------------------------------------------

 Structure from the checkpoint file:  "/scratch/puck/g09_6bda40cc-cd64-44f7-b152-d0f6511a4493/Gau-56466.chk"
 -----
 titel
 -----
 Charge =  0 Multiplicity = 1

                         Standard orientation:
 ---------------------------------------------------------------------
 Center     Atomic      Atomic             Coordinates (Angstroms)
 Number     Number       Type             X           Y           Z
 ---------------------------------------------------------------------
      1          6           0        2.982498   -0.475716    0.483171
      2          6           0        1.505597   -0.150664    0.455421
      3          6           0        0.938856    0.778496   -0.608018
      4          6           0       -0.221906    1.705600   -0.314198
      5          6           0       -1.283859    1.020050    0.558314
      6          6           0       -1.660842   -0.382817    0.110232
      7          8           0       -2.766469   -0.838291    0.216974
      8          8           0       -0.676109   -1.167008   -0.401844
      9          6           0        0.633547   -0.689723   -0.645469
     10          1           0        3.170697   -1.425804    0.994243
     11          1           0        3.387556   -0.558024   -0.531099
     12          1           0        3.550265    0.304552    1.001601
     13          1           0        1.034477   -0.098288    1.433168
     14          1           0        1.643987    1.140986   -1.351279
     15          1           0        0.118941    2.625505    0.173939
     16          1           0       -0.677898    2.006745   -1.265272
     17          1           0       -0.929477    0.938747    1.593027
     18          1           0       -2.209536    1.596673    0.595306
     19          1           0        1.088266   -1.320060   -1.401400
 ---------------------------------------------------------------------

 SCF Done:  E(RB3LYP) =  -423.221117577     A.U. after    1 cycles

 The electronic state is 1-A.
 Alpha  occ. eigenvalues --  -19.18067 -19.11381 -10.30262 -10.25060 -10.20518
 Alpha  occ. eigenvalues --  -10.20495 -10.20449 -10.20369 -10.19112  -1.09496
 Alpha  occ. eigenvalues --   -1.01320  -0.87784  -0.79467  -0.72662  -0.67487
 Alpha  occ. eigenvalues --   -0.65333  -0.58311  -0.52511  -0.51689  -0.49260
 Alpha  occ. eigenvalues --   -0.46793  -0.45069  -0.43511  -0.42734  -0.41190
 Alpha  occ. eigenvalues --   -0.40615  -0.38058  -0.37706  -0.36455  -0.35186
 Alpha  occ. eigenvalues --   -0.33599  -0.28474  -0.26556  -0.25394
 Alpha virt. eigenvalues --    0.01326   0.07858   0.08767   0.09704   0.12440
 Alpha virt. eigenvalues --    0.13439   0.13905   0.14948   0.15507   0.15940
 Alpha virt. eigenvalues --    0.17625   0.17887   0.18915   0.20201   0.22152

 Mulliken charges:
               1
     1  C   -0.419297
     2  C   -0.050990
     3  C   -0.077483
     4  C   -0.237850
     5  C   -0.356593
     6  C    0.408657
     7  O   -0.322745
     8  O   -0.225153
     9  C    0.110793
    10  H    0.127459
    11  H    0.118138
    12  H    0.123311
    13  H    0.093147
    14  H    0.092524
    15  H    0.111072
    16  H    0.117587
    17  H    0.139060
    18  H    0.137140
    19  H    0.111225
 Sum of Mulliken charges =   0.00000

 Dipole moment (field-independent basis, Debye):
    X=              3.6979    Y=              2.5175    Z=              0.0092  Tot=              4.4735
 Quadrupole moment (field-independent basis, Debye-Ang):
   XX=            -61.0751   YY=            -54.1717   ZZ=            -50.7537
   XY=             -6.2049   XZ=             -0.3226   YZ=              0.1768

  Exact polarizability:  93.469  -1.523  71.425  -1.096   0.054  62.935
 Approx polarizability: 126.606   2.834 105.051  -2.305   0.744  98.166

                      1                      2                      3
                      A                      A                      A
 Frequencies --     84.5063               171.6093               195.3811
 Red. masses --      6.2145                 2.4705                 1.1038
 Frc consts  --      0.0261                 0.0429                 0.0248
 IR Inten    --      1.2202                 2.4094                 0.1793

                      4                      5                      6
                      A                      A                      A
 Frequencies --    227.9324               257.1693               321.7341
 Red. masses --      2.3642                 2.6151                 2.5577
 Frc consts  --      0.0724                 0.1019                 0.1560
 IR Inten    --      0.6430                 0.5157                 1.1978

                      7                      8                      9
                      A                      A                      A
 Frequencies --    369.7443               457.6458               477.2211
 Red. masses --      4.2991                 4.7572                 3.2160
 Frc consts  --      0.3463                 0.5870                 0.4315
 IR Inten    --      0.7388                 4.1580                 2.5741

                     10                     11                     12
                      A                      A                      A
 Frequencies --    559.4316               605.5070               721.5333
 Red. masses --      3.7220                 3.8802                 2.5219
 Frc consts  --      0.6863                 0.8382                 0.7735
 IR Inten    --      1.7510                 2.8572                 8.9688

                     13                     14                     15
                      A                      A                      A
 Frequencies --    755.0196               804.5483               833.5364
 Red. masses --      3.9665                 2.4543                 2.4082
 Frc consts  --      1.3322                 0.9360                 0.9858
 IR Inten    --      4.7762                 3.3698                15.4220

                     16                     17                     18
                      A                      A                      A
 Frequencies --    897.5650               919.7887               948.6324
 Red. masses --      2.5840                 1.8749                 1.8856
 Frc consts  --      1.2265                 0.9346                 0.9997
 IR Inten    --      6.5586                16.9449                 6.3581

                     19                     20                     21
                      A                      A                      A
 Frequencies --    994.7963              1029.1357              1070.2187
 Red. masses --      1.6122                 1.7214                 1.5743
 Frc consts  --      0.9400                 1.0742                 1.0624
 IR Inten    --      1.1056                 1.6070                 4.3270

                     22                     23                     24
                      A                      A                      A
 Frequencies --   1099.9136              1105.6969              1124.3178
 Red. masses --      1.6237                 1.4376                 2.9033
 Frc consts  --      1.1573                 1.0356                 2.1624
 IR Inten    --     28.5654                14.5752                20.9010

                     25                     26                     27
                      A                      A                      A
 Frequencies --   1138.5263              1164.9749              1197.4969
 Red. masses --      1.6264                 2.3709                 2.1532
 Frc consts  --      1.2421                 1.8958                 1.8192
 IR Inten    --     12.6664                30.6881               100.4496

                     28                     29                     30
                      A                      A                      A
 Frequencies --   1216.3943              1241.2965              1269.6481
 Red. masses --      1.4219                 1.7438                 1.6799
 Frc consts  --      1.2396                 1.5831                 1.5955
 IR Inten    --     35.4600                32.5929                65.1212

                     31                     32                     33
                      A                      A                      A
 Frequencies --   1318.9752              1354.1985              1375.6458
 Red. masses --      1.3755                 1.4343                 1.5697
 Frc consts  --      1.4099                 1.5497                 1.7502
 IR Inten    --      2.1477                 7.0350                11.5402

                     34                     35                     36
                      A                      A                      A
 Frequencies --   1384.5863              1418.5881              1464.4744
 Red. masses --      1.4520                 1.2514                 2.1480
 Frc consts  --      1.6401                 1.4838                 2.7143
 IR Inten    --     48.2328                 1.5226                 8.1436

                     37                     38                     39
                      A                      A                      A
 Frequencies --   1471.7632              1492.9606              1499.1000
 Red. masses --      1.1047                 1.0463                 1.0680
 Frc consts  --      1.4098                 1.3740                 1.4141
 IR Inten    --      7.9235                 3.1521                 3.4857

                     40                     41                     42
                      A                      A                      A
 Frequencies --   1504.7294              1845.8590              3028.5872
 Red. masses --      1.1316                12.3454                 1.0575
 Frc consts  --      1.5096                24.7830                 5.7147
 IR Inten    --      6.4170               372.9653                41.9358

                     43                     44                     45
                      A                      A                      A
 Frequencies --   3029.4010              3042.8229              3066.5183
 Red. masses --      1.0379                 1.0716                 1.0996
 Frc consts  --      5.6120                 5.8459                 6.0921
 IR Inten    --     24.4938                 7.0539                24.6727

                     46                     47                     48
                      A                      A                      A
 Frequencies --   3094.1955              3097.6977              3121.2221
 Red. masses --      1.1010                 1.1009                 1.0937
 Frc consts  --      6.2104                 6.2240                 6.2775
 IR Inten    --     21.1905                18.5074                11.2980

                     49                     50                     51
                      A                      A                      A
 Frequencies --   3139.8924              3151.8832              3174.9914
 Red. masses --      1.0889                 1.0872                 1.0898
 Frc consts  --      6.3250                 6.3635                 6.4724
 IR Inten    --      7.2004                14.1318                20.2455

 - Thermochemistry -
 -------------------
 Temperature   298.150 Kelvin.  Pressure   1.00000 Atm.
 Atom     1 has atomic number  6 and mass  12.00000

 Molecular mass:   126.06808 amu.
 Principal axes and moments of inertia in atomic units:
                           1         2         3
     Eigenvalues --   547.844261477.117791768.85910
           X            0.99927  -0.03818   0.00249
           Y            0.03819   0.99927  -0.00312
           Z           -0.00237   0.00321   0.99999
 This molecule is an asymmetric top.
 Rotational symmetry number  1.
 Warning -- assumption of classical behavior for rotation
           may cause significant error
 Rotational temperatures (Kelvin)      0.15810     0.05864     0.04897
 Rotational constants (GHZ):           3.29426     1.22180     1.02029
 Zero-point vibrational energy     420720.7 (Joules/Mol)
                                  100.55467 (Kcal/Mol)
 Warning -- explicit consideration of  11 degrees of freedom as
           vibrations may cause significant error
 Vibrational temperatures:    121.59   246.91   281.11   327.94   370.01
          (Kelvin)            462.90   531.98   658.45   686.61   804.90
                              871.19  1038.12  1086.30  1157.56  1199.27
                             1291.39  1323.37  1364.87  1431.29  1480.69
                             1539.80  1582.53  1590.85  1617.64  1638.08
                             1676.14  1722.93  1750.12  1785.95  1826.74
                             1897.71  1948.39  1979.24  1992.11  2041.03
                             2107.05  2117.54  2148.03  2156.87  2164.97
                             2655.78  4357.46  4358.63  4377.94  4412.03
                             4451.85  4456.89  4490.74  4517.60  4534.85
                             4568.10

 Zero-point correction=                           0.160244 (Hartree/Particle)
 Thermal correction to Energy=                    0.168417
 Thermal correction to Enthalpy=                  0.169361
 Thermal correction to Gibbs Free Energy=         0.127505
 Sum of electronic and zero-point Energies=           -423.060874
 Sum of electronic and thermal Energies=              -423.052701
 Sum of electronic and thermal Enthalpies=            -423.051757
 Sum of electronic and thermal Free Energies=         -423.093613

                     E (Thermal)             CV                S
                      KCal/Mol        Cal/Mol-Kelvin    Cal/Mol-Kelvin
 Total                  105.683             31.391             88.093
 Electronic               0.000              0.000              0.000
 Translational            0.889              2.981             40.409
 Rotational               0.889              2.981             28.750
 Vibrational            103.906             25.430             18.934
 Vibration     1          0.601              1.960              3.783
 Vibration     2          0.626              1.877              2.418
 Vibration     3          0.636              1.846              2.176
 Vibration     4          0.651              1.798              1.895
 Vibration     5          0.667              1.751              1.681
 Vibration     6          0.707              1.632              1.301
 Vibration     7          0.742              1.534              1.081
 Vibration     8          0.816              1.344              0.773
 Vibration     9          0.834              1.301              0.718
 Vibration    10          0.915              1.119              0.525
 Vibration    11          0.964              1.020              0.440

 Normal termination of Gaussian 09 at Tue Jan 28 01:23:48 2020.
