 Gaussian 09, Revision D.01,
 Gaussian 09:  ES64L-G09RevD.01 24-Apr-2013

 -----------------------------
 # b3lyp 6-31G(2df,p) opt Freq
 -----------------------------

 -----
 titel
 -----
 Symbolic Z-matrix:
 Charge =  0 Multiplicity = 1

 SCF Done:  E(RB3LYP) =  -423.160866999     A.U. after   13 cycles
 Optimization completed.
    -- Stationary point found.
 Normal termination of Gaussian 09 at Mon Jan 27 22:04:24 2020.

 ----------------------------------------------------------------------
 #N Geom=AllCheck Guess=TCheck SCRF=Check GenChk RB3LYP/6-31G(2df,p) Fr
 eq
 ----------------------------------------------------------------------

 Structure from the checkpoint file:  "/scratch/puck/g09_2ff8f166-2880-48c2-8278-b1f50ed67000/Gau-53200.chk"
 -----
 titel
 -----
 Charge =  0 Multiplicity = 1

                         Standard orientation:
 ---------------------------------------------------------------------
 Center     Atomic      Atomic             Coordinates (Angstroms)
 Number     Number       Type             X           Y           Z
 ---------------------------------------------------------------------
      1          8           0        0.418295    1.950190   -0.629582
      2          6           0        0.092218    0.728586   -0.016769
      3          6           0       -1.296720    0.866920    0.625829
      4          8           0       -1.896847   -0.415102    0.600803
      5          6           0       -1.510604   -1.013371   -0.631932
      6          6           0       -0.050657   -0.623709   -0.847848
      7          6           0        0.951395   -1.262957    0.115067
      8          6           0        2.254535   -0.526824    0.052397
      9          6           0        1.129881    0.055109    0.873450
     10          1           0        1.364078    1.949848   -0.808376
     11          1           0       -1.264980    1.206229    1.664807
     12          1           0       -1.869358    1.596634    0.031782
     13          1           0       -1.678234   -2.091008   -0.543351
     14          1           0       -2.128828   -0.632404   -1.461328
     15          1           0        0.240110   -0.602772   -1.901700
     16          1           0        0.864868   -2.258225    0.533653
     17          1           0        3.068841   -0.947585    0.633297
     18          1           0        2.577522   -0.064713   -0.879601
     19          1           0        1.234113    0.220769    1.939884
 ---------------------------------------------------------------------

 SCF Done:  E(RB3LYP) =  -423.160866999     A.U. after    1 cycles

 The electronic state is 1-A.
 Alpha  occ. eigenvalues --  -19.14097 -19.13415 -10.23979 -10.22360 -10.21937
 Alpha  occ. eigenvalues --  -10.19718 -10.19617 -10.19384 -10.18694  -1.03927
 Alpha  occ. eigenvalues --   -1.02081  -0.89408  -0.74760  -0.73482  -0.62617
 Alpha  occ. eigenvalues --   -0.62208  -0.57960  -0.55506  -0.50402  -0.49973
 Alpha  occ. eigenvalues --   -0.49288  -0.44576  -0.44049  -0.41048  -0.40102
 Alpha  occ. eigenvalues --   -0.38824  -0.37162  -0.36661  -0.33389  -0.30856
 Alpha  occ. eigenvalues --   -0.29121  -0.27139  -0.25825  -0.24893
 Alpha virt. eigenvalues --    0.07085   0.09623   0.10401   0.11219   0.12046
 Alpha virt. eigenvalues --    0.13936   0.14264   0.15143   0.16704   0.17256
 Alpha virt. eigenvalues --    0.18260   0.18638   0.19950   0.20683   0.23385

 Mulliken charges:
               1
     1  O   -0.485912
     2  C    0.378637
     3  C   -0.119991
     4  O   -0.249494
     5  C   -0.106594
     6  C   -0.117133
     7  C   -0.017564
     8  C   -0.328126
     9  C   -0.102658
    10  H    0.281188
    11  H    0.106578
    12  H    0.098769
    13  H    0.105543
    14  H    0.091314
    15  H    0.070127
    16  H    0.091095
    17  H    0.118048
    18  H    0.098176
    19  H    0.087997
 Sum of Mulliken charges =   0.00000

 Dipole moment (field-independent basis, Debye):
    X=              2.0098    Y=             -0.6279    Z=             -0.4396  Tot=              2.1510
 Quadrupole moment (field-independent basis, Debye-Ang):
   XX=            -52.8291   YY=            -54.3525   ZZ=            -52.0673
   XY=              0.5201   XZ=              1.6794   YZ=              1.3907

  Exact polarizability:  80.614  -1.015  73.552   2.189   2.068  67.387
 Approx polarizability: 108.586   0.677 111.936   0.334   2.691 104.371

                      1                      2                      3
                      A                      A                      A
 Frequencies --    149.3489               205.5730               266.9096
 Red. masses --      2.7019                 4.3018                 2.5118
 Frc consts  --      0.0355                 0.1071                 0.1054
 IR Inten    --      0.9629                 5.2182                 1.0810

                      4                      5                      6
                      A                      A                      A
 Frequencies --    297.3971               324.7319               376.8093
 Red. masses --      1.7777                 1.4719                 2.4584
 Frc consts  --      0.0926                 0.0914                 0.2057
 IR Inten    --     28.8024                43.3286                 9.1613

                      7                      8                      9
                      A                      A                      A
 Frequencies --    409.8567               475.4713               592.3150
 Red. masses --      3.1408                 3.2854                 3.6439
 Frc consts  --      0.3109                 0.4376                 0.7532
 IR Inten    --      1.1494                 4.0443                 1.0488

                     10                     11                     12
                      A                      A                      A
 Frequencies --    634.7317               717.6780               784.3049
 Red. masses --      4.2954                 4.7821                 1.8948
 Frc consts  --      1.0196                 1.4512                 0.6867
 IR Inten    --      0.9407                14.8948                 5.3569

                     13                     14                     15
                      A                      A                      A
 Frequencies --    788.4813               877.2567               889.0271
 Red. masses --      2.0756                 1.8418                 2.9789
 Frc consts  --      0.7603                 0.8351                 1.3872
 IR Inten    --      2.0994                 9.1131                 7.7974

                     16                     17                     18
                      A                      A                      A
 Frequencies --    935.6722               943.0744               966.8300
 Red. masses --      2.3694                 2.8355                 2.9706
 Frc consts  --      1.2222                 1.4858                 1.6360
 IR Inten    --     14.0716                13.0738                10.6021

                     19                     20                     21
                      A                      A                      A
 Frequencies --    985.6176              1013.6807              1043.1149
 Red. masses --      1.3227                 1.3766                 1.8136
 Frc consts  --      0.7571                 0.8334                 1.1627
 IR Inten    --      5.0209                 0.8694                33.5436

                     22                     23                     24
                      A                      A                      A
 Frequencies --   1063.0984              1066.5937              1088.9209
 Red. masses --      1.3212                 2.3050                 1.4238
 Frc consts  --      0.8798                 1.5450                 0.9947
 IR Inten    --      8.8471                62.7346                 5.0090

                     25                     26                     27
                      A                      A                      A
 Frequencies --   1102.6571              1121.6411              1131.5264
 Red. masses --      1.6278                 3.3395                 3.2684
 Frc consts  --      1.1661                 2.4754                 2.4655
 IR Inten    --      2.4722                23.8916                28.2545

                     28                     29                     30
                      A                      A                      A
 Frequencies --   1163.4566              1183.2680              1215.6787
 Red. masses --      2.0630                 1.6662                 1.5029
 Frc consts  --      1.6453                 1.3745                 1.3086
 IR Inten    --      2.3268                67.9082                16.8693

                     31                     32                     33
                      A                      A                      A
 Frequencies --   1247.6055              1270.6996              1289.1184
 Red. masses --      1.5820                 1.3823                 1.5046
 Frc consts  --      1.4509                 1.3151                 1.4731
 IR Inten    --     29.4565                 2.3171                 5.8677

                     34                     35                     36
                      A                      A                      A
 Frequencies --   1319.1152              1342.5758              1358.0054
 Red. masses --      1.5465                 2.4125                 1.3633
 Frc consts  --      1.5855                 2.5621                 1.4813
 IR Inten    --     14.4915                 4.2388                11.4812

                     37                     38                     39
                      A                      A                      A
 Frequencies --   1393.2765              1408.0199              1495.7053
 Red. masses --      2.0143                 1.4785                 1.2021
 Frc consts  --      2.3038                 1.7270                 1.5845
 IR Inten    --     49.6779                 7.1317                 2.1727

                     40                     41                     42
                      A                      A                      A
 Frequencies --   1499.9416              1515.0368              2971.6105
 Red. masses --      1.0838                 1.1035                 1.0701
 Frc consts  --      1.4367                 1.4924                 5.5672
 IR Inten    --      0.2194                 2.1129                60.9621

                     43                     44                     45
                      A                      A                      A
 Frequencies --   2986.5505              3072.2073              3080.4990
 Red. masses --      1.0690                 1.0869                 1.0927
 Frc consts  --      5.6177                 6.0444                 6.1093
 IR Inten    --     62.5694                37.9982                32.5266

                     46                     47                     48
                      A                      A                      A
 Frequencies --   3090.9282              3093.3877              3171.1599
 Red. masses --      1.0952                 1.0608                 1.0908
 Frc consts  --      6.1648                 5.9810                 6.4631
 IR Inten    --     20.7332                26.0717                15.9135

                     49                     50                     51
                      A                      A                      A
 Frequencies --   3185.2136              3198.4855              3819.2860
 Red. masses --      1.0983                 1.1044                 1.0658
 Frc consts  --      6.5653                 6.6569                 9.1600
 IR Inten    --      4.6609                20.1088                16.8035

 - Thermochemistry -
 -------------------
 Temperature   298.150 Kelvin.  Pressure   1.00000 Atm.
 Atom     1 has atomic number  8 and mass  15.99491

 Molecular mass:   126.06808 amu.
 Principal axes and moments of inertia in atomic units:
                           1         2         3
     Eigenvalues --   685.281041008.784821306.40152
           X            0.99964  -0.02186   0.01571
           Y            0.02141   0.99938   0.02787
           Z           -0.01631  -0.02752   0.99949
 This molecule is an asymmetric top.
 Rotational symmetry number  1.
 Warning -- assumption of classical behavior for rotation
           may cause significant error
 Rotational temperatures (Kelvin)      0.12639     0.08586     0.06630
 Rotational constants (GHZ):           2.63358     1.78902     1.38146
 Zero-point vibrational energy     422420.2 (Joules/Mol)
                                  100.96086 (Kcal/Mol)
 Warning -- explicit consideration of   9 degrees of freedom as
           vibrations may cause significant error
 Vibrational temperatures:    214.88   295.77   384.02   427.89   467.22
          (Kelvin)            542.14   589.69   684.10   852.21   913.24
                             1032.58  1128.44  1134.45  1262.18  1279.11
                             1346.22  1356.87  1391.05  1418.08  1458.46
                             1500.81  1529.56  1534.59  1566.71  1586.48
                             1613.79  1628.01  1673.95  1702.46  1749.09
                             1795.02  1828.25  1854.75  1897.91  1931.66
                             1953.86  2004.61  2025.82  2151.98  2158.08
                             2179.80  4275.48  4296.97  4420.22  4432.15
                             4447.15  4450.69  4562.59  4582.81  4601.90
                             5495.09

 Zero-point correction=                           0.160891 (Hartree/Particle)
 Thermal correction to Energy=                    0.168306
 Thermal correction to Enthalpy=                  0.169251
 Thermal correction to Gibbs Free Energy=         0.129464
 Sum of electronic and zero-point Energies=           -422.999976
 Sum of electronic and thermal Energies=              -422.992561
 Sum of electronic and thermal Enthalpies=            -422.991616
 Sum of electronic and thermal Free Energies=         -423.031403

                     E (Thermal)             CV                S
                      KCal/Mol        Cal/Mol-Kelvin    Cal/Mol-Kelvin
 Total                  105.614             30.269             83.737
 Electronic               0.000              0.000              0.000
 Translational            0.889              2.981             40.409
 Rotational               0.889              2.981             28.292
 Vibrational            103.836             24.307             15.036
 Vibration     1          0.618              1.903              2.681
 Vibration     2          0.640              1.832              2.083
 Vibration     3          0.672              1.734              1.616
 Vibration     4          0.691              1.679              1.432
 Vibration     5          0.709              1.626              1.286
 Vibration     6          0.747              1.520              1.052
 Vibration     7          0.774              1.449              0.927
 Vibration     8          0.832              1.304              0.722
 Vibration     9          0.950              1.048              0.463

 Optimization completed.
    -- Stationary point found.
 Normal termination of Gaussian 09 at Mon Jan 27 22:56:48 2020.
