 Gaussian 09, Revision D.01,
 Gaussian 09:  ES64L-G09RevD.01 24-Apr-2013

 -----------------------------
 # b3lyp 6-31G(2df,p) opt Freq
 -----------------------------

 -----
 titel
 -----
 Symbolic Z-matrix:
 Charge =  0 Multiplicity = 1

 SCF Done:  E(RB3LYP) =  -423.169279954     A.U. after   14 cycles
 Optimization completed.
    -- Stationary point found.
 Normal termination of Gaussian 09 at Mon Jan 27 22:04:35 2020.

 ----------------------------------------------------------------------
 #N Geom=AllCheck Guess=TCheck SCRF=Check GenChk RB3LYP/6-31G(2df,p) Fr
 eq
 ----------------------------------------------------------------------

 Structure from the checkpoint file:  "/scratch/puck/g09_7c6fcc5f-32ab-4f70-9eba-90a6bb0b9486/Gau-62981.chk"
 -----
 titel
 -----
 Charge =  0 Multiplicity = 1

                         Standard orientation:
 ---------------------------------------------------------------------
 Center     Atomic      Atomic             Coordinates (Angstroms)
 Number     Number       Type             X           Y           Z
 ---------------------------------------------------------------------
      1          6           0       -1.317413   -1.873995   -0.611584
      2          6           0       -0.825954   -0.459343   -0.848852
      3          6           0       -0.883045    0.506095    0.275334
      4          8           0       -1.520247    0.278894    1.468499
      5          6           0       -0.509027    1.921094   -0.134160
      6          6           0        0.828798    1.404710   -0.753167
      7          6           0        0.528961   -0.016815   -0.282845
      8          6           0        1.510110   -0.895872    0.340600
      9          8           0        2.679406   -0.606472    0.490956
     10          1           0       -0.848129   -2.575468   -1.307179
     11          1           0       -1.102010   -2.231169    0.400419
     12          1           0       -2.400954   -1.932519   -0.766415
     13          1           0       -1.047490   -0.090205   -1.852441
     14          1           0       -2.073036   -0.506770    1.398949
     15          1           0       -1.219422    2.423738   -0.799661
     16          1           0       -0.337730    2.551456    0.740749
     17          1           0        0.923676    1.523109   -1.837168
     18          1           0        1.716937    1.814255   -0.271868
     19          1           0        1.120310   -1.871046    0.707028
 ---------------------------------------------------------------------

 SCF Done:  E(RB3LYP) =  -423.169279954     A.U. after    1 cycles

 The electronic state is 1-A.
 Alpha  occ. eigenvalues --  -19.17204 -19.11688 -10.26517 -10.25556 -10.21657
 Alpha  occ. eigenvalues --  -10.20448 -10.19849 -10.19329 -10.18849  -1.06052
 Alpha  occ. eigenvalues --   -1.02322  -0.90092  -0.77712  -0.70384  -0.68292
 Alpha  occ. eigenvalues --   -0.63355  -0.58403  -0.54516  -0.51201  -0.49058
 Alpha  occ. eigenvalues --   -0.46791  -0.45871  -0.41533  -0.41076  -0.40690
 Alpha  occ. eigenvalues --   -0.39132  -0.38404  -0.38278  -0.35989  -0.35239
 Alpha  occ. eigenvalues --   -0.33526  -0.29263  -0.24453  -0.22890
 Alpha virt. eigenvalues --   -0.01576   0.05349   0.09577   0.10362   0.11698
 Alpha virt. eigenvalues --    0.12317   0.13061   0.14589   0.15606   0.15888
 Alpha virt. eigenvalues --    0.17933   0.18397   0.19217   0.20397   0.22605

 Mulliken charges:
               1
     1  C   -0.457878
     2  C   -0.130317
     3  C    0.366066
     4  O   -0.442674
     5  C   -0.277776
     6  C   -0.293512
     7  C    0.174319
     8  C    0.049153
     9  O   -0.284663
    10  H    0.141191
    11  H    0.127207
    12  H    0.127830
    13  H    0.089993
    14  H    0.296861
    15  H    0.100681
    16  H    0.124354
    17  H    0.100044
    18  H    0.133706
    19  H    0.055412
 Sum of Mulliken charges =   0.00000

 Dipole moment (field-independent basis, Debye):
    X=             -3.9842    Y=             -0.7727    Z=             -1.3954  Tot=              4.2916
 Quadrupole moment (field-independent basis, Debye-Ang):
   XX=            -61.0481   YY=            -49.7752   ZZ=            -53.9927
   XY=              4.6737   XZ=             -1.2887   YZ=             -1.1415

  Exact polarizability:  89.844   0.167  82.631   2.025  -2.325  65.357
 Approx polarizability: 147.756  -4.307 112.230   1.920  -1.529 101.796

                      1                      2                      3
                      A                      A                      A
 Frequencies --     98.8493               154.6344               178.0897
 Red. masses --      6.6680                 2.6530                 1.9269
 Frc consts  --      0.0384                 0.0374                 0.0360
 IR Inten    --      2.3673                11.4407                 8.6645

                      4                      5                      6
                      A                      A                      A
 Frequencies --    210.9670               217.0056               232.8056
 Red. masses --      1.7697                 1.7744                 1.9028
 Frc consts  --      0.0464                 0.0492                 0.0608
 IR Inten    --      7.8735                 9.7881                 2.1961

                      7                      8                      9
                      A                      A                      A
 Frequencies --    270.2070               287.7999               394.0376
 Red. masses --      1.7225                 2.1533                 2.7629
 Frc consts  --      0.0741                 0.1051                 0.2528
 IR Inten    --      0.2988                 9.4605                26.6637

                     10                     11                     12
                      A                      A                      A
 Frequencies --    462.6819               510.2201               552.0782
 Red. masses --      2.9263                 3.2630                 5.1975
 Frc consts  --      0.3691                 0.5005                 0.9334
 IR Inten    --     16.4122                 5.9754                 4.6356

                     13                     14                     15
                      A                      A                      A
 Frequencies --    635.7268               674.7087               740.1464
 Red. masses --      4.4454                 4.0829                 3.1480
 Frc consts  --      1.0585                 1.0951                 1.0161
 IR Inten    --     39.9148                 4.3113                54.3144

                     16                     17                     18
                      A                      A                      A
 Frequencies --    783.5463               804.3585               946.7450
 Red. masses --      2.6353                 1.4304                 2.7810
 Frc consts  --      0.9533                 0.5453                 1.4686
 IR Inten    --      3.1453                38.9733                 2.3178

                     19                     20                     21
                      A                      A                      A
 Frequencies --    977.2909               990.2905              1031.5640
 Red. masses --      1.8532                 1.4132                 1.5969
 Frc consts  --      1.0428                 0.8166                 1.0012
 IR Inten    --     44.8465                 2.8213                 3.1498

                     22                     23                     24
                      A                      A                      A
 Frequencies --   1042.1061              1067.3072              1095.0130
 Red. masses --      1.9013                 1.6610                 1.7516
 Frc consts  --      1.2166                 1.1148                 1.2375
 IR Inten    --     14.7812                 3.6751                59.9680

                     25                     26                     27
                      A                      A                      A
 Frequencies --   1133.5110              1163.1807              1192.5440
 Red. masses --      1.7852                 1.8593                 1.8429
 Frc consts  --      1.3514                 1.4822                 1.5442
 IR Inten    --     31.7038                 5.6553                45.2781

                     28                     29                     30
                      A                      A                      A
 Frequencies --   1213.2283              1240.9630              1257.8359
 Red. masses --      1.3692                 1.4630                 1.4787
 Frc consts  --      1.1874                 1.3274                 1.3784
 IR Inten    --      6.3105                 0.6849                 8.9981

                     31                     32                     33
                      A                      A                      A
 Frequencies --   1319.8566              1370.0460              1382.0325
 Red. masses --      1.5537                 2.2047                 2.5249
 Frc consts  --      1.5947                 2.4382                 2.8414
 IR Inten    --     72.4449                61.7658                22.7115

                     34                     35                     36
                      A                      A                      A
 Frequencies --   1422.8979              1431.1261              1451.0064
 Red. masses --      1.3574                 2.1423                 1.5448
 Frc consts  --      1.6192                 2.5852                 1.9163
 IR Inten    --      6.7794                33.6736                21.8806

                     37                     38                     39
                      A                      A                      A
 Frequencies --   1480.7965              1500.5381              1505.4468
 Red. masses --      1.0894                 1.1193                 1.0572
 Frc consts  --      1.4075                 1.4849                 1.4116
 IR Inten    --      0.0340                 5.0784                 4.4495

                     40                     41                     42
                      A                      A                      A
 Frequencies --   1511.1161              1772.5220              2879.3828
 Red. masses --      1.1555                 9.8971                 1.0805
 Frc consts  --      1.5546                18.3207                 5.2781
 IR Inten    --     20.5719               282.1316               112.9998

                     43                     44                     45
                      A                      A                      A
 Frequencies --   3032.9505              3043.2559              3056.3537
 Red. masses --      1.0378                 1.0641                 1.0663
 Frc consts  --      5.6246                 5.8064                 5.8689
 IR Inten    --     25.1619                40.7684                44.5999

                     46                     47                     48
                      A                      A                      A
 Frequencies --   3072.2035              3096.1454              3110.8803
 Red. masses --      1.0884                 1.0988                 1.1001
 Frc consts  --      6.0524                 6.2061                 6.2729
 IR Inten    --     13.0923                23.2399                16.6083

                     49                     50                     51
                      A                      A                      A
 Frequencies --   3113.3637              3137.4640              3809.3577
 Red. masses --      1.1004                 1.1000                 1.0660
 Frc consts  --      6.2844                 6.3795                 9.1137
 IR Inten    --      9.4549                14.1107                33.7810

 - Thermochemistry -
 -------------------
 Temperature   298.150 Kelvin.  Pressure   1.00000 Atm.
 Atom     1 has atomic number  6 and mass  12.00000

 Molecular mass:   126.06808 amu.
 Principal axes and moments of inertia in atomic units:
                           1         2         3
     Eigenvalues --   870.044861170.040551506.34195
           X            0.99416   0.10781   0.00523
           Y           -0.10774   0.99410  -0.01227
           Z           -0.00652   0.01164   0.99991
 This molecule is an asymmetric top.
 Rotational symmetry number  1.
 Warning -- assumption of classical behavior for rotation
           may cause significant error
 Rotational temperatures (Kelvin)      0.09955     0.07403     0.05750
 Rotational constants (GHZ):           2.07431     1.54246     1.19810
 Zero-point vibrational energy     413059.7 (Joules/Mol)
                                   98.72363 (Kcal/Mol)
 Warning -- explicit consideration of  12 degrees of freedom as
           vibrations may cause significant error
 Vibrational temperatures:    142.22   222.48   256.23   303.53   312.22
          (Kelvin)            334.95   388.77   414.08   566.93   665.70
                              734.09   794.32   914.67   970.75  1064.90
                             1127.35  1157.29  1362.15  1406.10  1424.81
                             1484.19  1499.36  1535.62  1575.48  1630.87
                             1673.56  1715.80  1745.56  1785.47  1809.74
                             1898.98  1971.19  1988.43  2047.23  2059.07
                             2087.67  2130.53  2158.94  2166.00  2174.16
                             2550.26  4142.78  4363.73  4378.56  4397.41
                             4420.21  4454.66  4475.86  4479.43  4514.11
                             5480.81

 Zero-point correction=                           0.157326 (Hartree/Particle)
 Thermal correction to Energy=                    0.166517
 Thermal correction to Enthalpy=                  0.167461
 Thermal correction to Gibbs Free Energy=         0.123757
 Sum of electronic and zero-point Energies=           -423.011954
 Sum of electronic and thermal Energies=              -423.002763
 Sum of electronic and thermal Enthalpies=            -423.001819
 Sum of electronic and thermal Free Energies=         -423.045523

                     E (Thermal)             CV                S
                      KCal/Mol        Cal/Mol-Kelvin    Cal/Mol-Kelvin
 Total                  104.491             34.342             91.983
 Electronic               0.000              0.000              0.000
 Translational            0.889              2.981             40.409
 Rotational               0.889              2.981             28.818
 Vibrational            102.714             28.380             22.756
 Vibration     1          0.604              1.950              3.477
 Vibration     2          0.620              1.898              2.614
 Vibration     3          0.629              1.869              2.348
 Vibration     4          0.643              1.824              2.035
 Vibration     5          0.646              1.815              1.984
 Vibration     6          0.654              1.791              1.857
 Vibration     7          0.674              1.728              1.595
 Vibration     8          0.685              1.696              1.487
 Vibration     9          0.761              1.483              0.985
 Vibration    10          0.820              1.333              0.758
 Vibration    11          0.865              1.227              0.633
 Vibration    12          0.907              1.135              0.540

 Optimization completed.
    -- Stationary point found.
 Normal termination of Gaussian 09 at Mon Jan 27 22:49:07 2020.
