 Gaussian 09, Revision D.01,
 Gaussian 09:  ES64L-G09RevD.01 24-Apr-2013

 -----------------------------
 # b3lyp 6-31G(2df,p) opt Freq
 -----------------------------

 -----
 titel
 -----
 Symbolic Z-matrix:
 Charge =  0 Multiplicity = 1

 SCF Done:  E(RB3LYP) =  -423.128752243     A.U. after   14 cycles
 Optimization completed.
    -- Stationary point found.
 Normal termination of Gaussian 09 at Mon Jan 27 22:04:32 2020.

 ----------------------------------------------------------------------
 #N Geom=AllCheck Guess=TCheck SCRF=Check GenChk RB3LYP/6-31G(2df,p) Fr
 eq
 ----------------------------------------------------------------------

 Structure from the checkpoint file:  "/scratch/puck/g09_52545ae0-ee3b-41d6-aa16-529a88930675/Gau-62983.chk"
 -----
 titel
 -----
 Charge =  0 Multiplicity = 1

                         Standard orientation:
 ---------------------------------------------------------------------
 Center     Atomic      Atomic             Coordinates (Angstroms)
 Number     Number       Type             X           Y           Z
 ---------------------------------------------------------------------
      1          6           0        0.114725    2.151907    0.277885
      2          6           0        0.101351    0.824232   -0.464423
      3          6           0        1.179235   -0.229491   -0.087229
      4          6           0        2.573677   -0.354475   -0.606553
      5          8           0        0.923032   -0.592186    1.280876
      6          6           0        0.150235   -1.233741    0.248374
      7          6           0       -0.955349   -0.251780   -0.094211
      8          6           0       -2.327518   -0.158772    0.394582
      9          8           0       -2.031680   -0.575720   -0.952586
     10          1           0        0.966369    2.768642   -0.029175
     11          1           0       -0.795699    2.725462    0.074836
     12          1           0        0.182660    1.982810    1.355776
     13          1           0        0.072186    0.968311   -1.550620
     14          1           0        3.194643    0.479626   -0.260771
     15          1           0        3.028587   -1.284214   -0.254892
     16          1           0        2.581590   -0.348947   -1.701134
     17          1           0        0.154365   -2.317045    0.202113
     18          1           0       -2.727054   -0.933974    1.046656
     19          1           0       -2.806601    0.815298    0.480345
 ---------------------------------------------------------------------

 SCF Done:  E(RB3LYP) =  -423.128752243     A.U. after    1 cycles

 The electronic state is 1-A.
 Alpha  occ. eigenvalues --  -19.15361 -19.15237 -10.24449 -10.24397 -10.23551
 Alpha  occ. eigenvalues --  -10.23338 -10.19660 -10.19031 -10.17745  -1.08326
 Alpha  occ. eigenvalues --   -1.06741  -0.80634  -0.74354  -0.71545  -0.66608
 Alpha  occ. eigenvalues --   -0.62418  -0.58268  -0.53685  -0.50837  -0.49649
 Alpha  occ. eigenvalues --   -0.45298  -0.44908  -0.43680  -0.41840  -0.40361
 Alpha  occ. eigenvalues --   -0.39165  -0.38127  -0.37676  -0.34525  -0.32932
 Alpha  occ. eigenvalues --   -0.32008  -0.29110  -0.26511  -0.24724
 Alpha virt. eigenvalues --    0.07510   0.08620   0.10331   0.10850   0.11623
 Alpha virt. eigenvalues --    0.13593   0.13765   0.14288   0.14770   0.15999
 Alpha virt. eigenvalues --    0.16440   0.17579   0.18338   0.19991   0.21579

 Mulliken charges:
               1
     1  C   -0.416741
     2  C   -0.147632
     3  C    0.418008
     4  C   -0.505353
     5  O   -0.286684
     6  C   -0.174864
     7  C    0.451206
     8  C   -0.264637
     9  O   -0.280279
    10  H    0.116011
    11  H    0.118645
    12  H    0.134011
    13  H    0.091946
    14  H    0.132742
    15  H    0.136774
    16  H    0.128791
    17  H    0.110140
    18  H    0.119371
    19  H    0.118546
 Sum of Mulliken charges =   0.00000

 Dipole moment (field-independent basis, Debye):
    X=              0.7059    Y=              0.4842    Z=             -0.3126  Tot=              0.9113
 Quadrupole moment (field-independent basis, Debye-Ang):
   XX=            -51.7505   YY=            -50.4768   ZZ=            -56.9418
   XY=             -1.0724   XZ=             -6.2797   YZ=             -0.6684

  Exact polarizability:  89.097   1.161  75.280  -5.147  -2.008  62.479
 Approx polarizability: 117.721   4.660 105.421  -1.853  -2.521 105.148

                      1                      2                      3
                      A                      A                      A
 Frequencies --     98.0376               186.7086               194.8732
 Red. masses --      3.6878                 1.1006                 2.5865
 Frc consts  --      0.0209                 0.0226                 0.0579
 IR Inten    --      1.7594                 0.4995                 0.1467

                      4                      5                      6
                      A                      A                      A
 Frequencies --    214.4710               220.4222               229.6945
 Red. masses --      1.7955                 1.2938                 2.7957
 Frc consts  --      0.0487                 0.0370                 0.0869
 IR Inten    --      0.5111                 0.8204                 1.2551

                      7                      8                      9
                      A                      A                      A
 Frequencies --    313.6340               345.4639               442.8099
 Red. masses --      4.0760                 3.2689                 2.4691
 Frc consts  --      0.2362                 0.2299                 0.2852
 IR Inten    --      9.8315                 4.7551                 1.3774

                     10                     11                     12
                      A                      A                      A
 Frequencies --    485.7701               562.1873               588.2390
 Red. masses --      6.9155                 4.0225                 3.4916
 Frc consts  --      0.9615                 0.7491                 0.7118
 IR Inten    --      1.6082                 6.2545                 5.9273

                     13                     14                     15
                      A                      A                      A
 Frequencies --    684.8731               751.5502               817.7935
 Red. masses --      3.3799                 3.6848                 2.7451
 Frc consts  --      0.9341                 1.2263                 1.0817
 IR Inten    --      3.2914                 4.7417                10.7221

                     16                     17                     18
                      A                      A                      A
 Frequencies --    860.8700               874.8747               895.0110
 Red. masses --      2.1914                 2.1805                 3.6000
 Frc consts  --      0.9569                 0.9833                 1.6991
 IR Inten    --     18.2142                 4.7460                22.0167

                     19                     20                     21
                      A                      A                      A
 Frequencies --    956.4871               995.1975              1007.5489
 Red. masses --      2.0168                 1.7065                 1.5915
 Frc consts  --      1.0871                 0.9958                 0.9519
 IR Inten    --     25.4519                 3.0387                 7.7411

                     22                     23                     24
                      A                      A                      A
 Frequencies --   1050.1595              1088.0224              1101.1623
 Red. masses --      1.8609                 2.3513                 1.7966
 Frc consts  --      1.2092                 1.6400                 1.2836
 IR Inten    --     15.4599                18.6592                 1.7120

                     25                     26                     27
                      A                      A                      A
 Frequencies --   1118.3954              1136.1263              1150.9280
 Red. masses --      1.3831                 2.0682                 1.4205
 Frc consts  --      1.0193                 1.5729                 1.1086
 IR Inten    --      2.0028                 1.1985                 1.9588

                     28                     29                     30
                      A                      A                      A
 Frequencies --   1161.6279              1204.7946              1231.0465
 Red. masses --      1.8513                 1.6971                 1.8483
 Frc consts  --      1.4719                 1.4514                 1.6503
 IR Inten    --      1.8786                 2.8007                17.1036

                     31                     32                     33
                      A                      A                      A
 Frequencies --   1251.4694              1349.6145              1402.4216
 Red. masses --      2.3359                 1.6673                 1.3027
 Frc consts  --      2.1555                 1.7893                 1.5095
 IR Inten    --      8.6352                 3.0944                 2.5566

                     34                     35                     36
                      A                      A                      A
 Frequencies --   1404.6526              1442.1606              1464.3439
 Red. masses --      1.2689                 2.2974                 2.2397
 Frc consts  --      1.4750                 2.8152                 2.8296
 IR Inten    --      3.8145                17.6372                 8.7048

                     37                     38                     39
                      A                      A                      A
 Frequencies --   1482.0355              1493.0108              1496.2027
 Red. masses --      1.1127                 1.1002                 1.1127
 Frc consts  --      1.4399                 1.4449                 1.4677
 IR Inten    --     10.4625                 0.9721                 2.1993

                     40                     41                     42
                      A                      A                      A
 Frequencies --   1502.9224              1540.2514              3033.7857
 Red. masses --      1.0758                 1.8062                 1.0363
 Frc consts  --      1.4317                 2.5247                 5.6196
 IR Inten    --      5.3401                 9.8573                21.0430

                     43                     44                     45
                      A                      A                      A
 Frequencies --   3035.1313              3052.3647              3085.3676
 Red. masses --      1.0369                 1.0832                 1.0506
 Frc consts  --      5.6277                 5.9460                 5.8924
 IR Inten    --     23.8605                13.1987                20.5923

                     46                     47                     48
                      A                      A                      A
 Frequencies --   3094.9915              3097.8453              3121.1025
 Red. masses --      1.1004                 1.0997                 1.1010
 Frc consts  --      6.2106                 6.2179                 6.3188
 IR Inten    --     23.5718                17.6258                 8.2651

                     49                     50                     51
                      A                      A                      A
 Frequencies --   3122.3707              3172.8059              3185.1447
 Red. masses --      1.1012                 1.1194                 1.0950
 Frc consts  --      6.3252                 6.6394                 6.5455
 IR Inten    --     19.4001                17.9402                14.0002

 - Thermochemistry -
 -------------------
 Temperature   298.150 Kelvin.  Pressure   1.00000 Atm.
 Atom     1 has atomic number  6 and mass  12.00000

 Molecular mass:   126.06808 amu.
 Principal axes and moments of inertia in atomic units:
                           1         2         3
     Eigenvalues --   659.771821270.411291503.42075
           X            0.99901  -0.01216  -0.04271
           Y            0.01289   0.99977   0.01706
           Z            0.04250  -0.01759   0.99894
 This molecule is an asymmetric top.
 Rotational symmetry number  1.
 Warning -- assumption of classical behavior for rotation
           may cause significant error
 Rotational temperatures (Kelvin)      0.13128     0.06818     0.05761
 Rotational constants (GHZ):           2.73540     1.42060     1.20042
 Zero-point vibrational energy     411508.1 (Joules/Mol)
                                   98.35279 (Kcal/Mol)
 Warning -- explicit consideration of  12 degrees of freedom as
           vibrations may cause significant error
 Vibrational temperatures:    141.05   268.63   280.38   308.58   317.14
          (Kelvin)            330.48   451.25   497.04   637.10   698.91
                              808.86   846.34   985.38  1081.31  1176.62
                             1238.60  1258.75  1287.72  1376.17  1431.87
                             1449.64  1510.94  1565.42  1584.32  1609.12
                             1634.63  1655.93  1671.32  1733.43  1771.20
                             1800.58  1941.79  2017.77  2020.98  2074.94
                             2106.86  2132.32  2148.11  2152.70  2162.37
                             2216.08  4364.94  4366.87  4391.67  4439.15
                             4453.00  4457.10  4490.56  4492.39  4564.95
                             4582.71

 Zero-point correction=                           0.156735 (Hartree/Particle)
 Thermal correction to Energy=                    0.165514
 Thermal correction to Enthalpy=                  0.166458
 Thermal correction to Gibbs Free Energy=         0.123679
 Sum of electronic and zero-point Energies=           -422.972017
 Sum of electronic and thermal Energies=              -422.963238
 Sum of electronic and thermal Enthalpies=            -422.962294
 Sum of electronic and thermal Free Energies=         -423.005073

                     E (Thermal)             CV                S
                      KCal/Mol        Cal/Mol-Kelvin    Cal/Mol-Kelvin
 Total                  103.862             33.418             90.036
 Electronic               0.000              0.000              0.000
 Translational            0.889              2.981             40.409
 Rotational               0.889              2.981             28.623
 Vibrational            102.084             27.457             21.004
 Vibration     1          0.603              1.951              3.493
 Vibration     2          0.632              1.858              2.260
 Vibration     3          0.636              1.847              2.181
 Vibration     4          0.644              1.819              2.005
 Vibration     5          0.647              1.810              1.956
 Vibration     6          0.652              1.796              1.881
 Vibration     7          0.701              1.648              1.343
 Vibration     8          0.724              1.584              1.187
 Vibration     9          0.802              1.377              0.818
 Vibration    10          0.842              1.282              0.695
 Vibration    11          0.918              1.113              0.519
 Vibration    12          0.945              1.057              0.470

 Optimization completed.
    -- Stationary point found.
 Normal termination of Gaussian 09 at Mon Jan 27 22:49:05 2020.
