 Gaussian 09, Revision D.01,
 Gaussian 09:  ES64L-G09RevD.01 24-Apr-2013

 -----------------------------
 # b3lyp 6-31G(2df,p) opt Freq
 -----------------------------

 -----
 titel
 -----
 Symbolic Z-matrix:
 Charge =  0 Multiplicity = 1

 SCF Done:  E(RB3LYP) =  -423.222480063     A.U. after   14 cycles
 Optimization completed.
    -- Stationary point found.
 Normal termination of Gaussian 09 at Tue Jan 28 00:42:09 2020.

 ----------------------------------------------------------------------
 #N Geom=AllCheck Guess=TCheck SCRF=Check GenChk RB3LYP/6-31G(2df,p) Fr
 eq
 ----------------------------------------------------------------------

 Structure from the checkpoint file:  "/scratch/puck/g09_230ab3ef-6783-442a-9339-7bf2600c6f99/Gau-81429.chk"
 -----
 titel
 -----
 Charge =  0 Multiplicity = 1

                         Standard orientation:
 ---------------------------------------------------------------------
 Center     Atomic      Atomic             Coordinates (Angstroms)
 Number     Number       Type             X           Y           Z
 ---------------------------------------------------------------------
      1          6           0       -2.010338   -1.531442   -0.006983
      2          6           0       -0.756595   -0.687796   -0.232231
      3          6           0        0.415266   -1.083441    0.682866
      4          6           0        1.672991   -0.267126    0.393384
      5          8           0        2.213345   -0.747239   -0.844067
      6          6           0        1.366438    1.210911    0.305260
      7          6           0        0.139540    1.689077    0.075890
      8          6           0       -1.041883    0.808507   -0.111783
      9          8           0       -2.159388    1.277176   -0.198838
     10          1           0       -2.355404   -1.452861    1.029587
     11          1           0       -2.824817   -1.191604   -0.649435
     12          1           0       -1.807855   -2.585534   -0.219308
     13          1           0       -0.409134   -0.826165   -1.267053
     14          1           0        0.133166   -0.934245    1.732194
     15          1           0        0.650981   -2.144843    0.556894
     16          1           0        2.404699   -0.431626    1.199516
     17          1           0        2.922570   -0.155998   -1.117254
     18          1           0        2.205356    1.896613    0.417942
     19          1           0       -0.063729    2.754629    0.021733
 ---------------------------------------------------------------------

 SCF Done:  E(RB3LYP) =  -423.222480063     A.U. after    1 cycles

 The electronic state is 1-A.
 Alpha  occ. eigenvalues --  -19.14857 -19.12395 -10.26164 -10.24869 -10.21145
 Alpha  occ. eigenvalues --  -10.19781 -10.19153 -10.18988 -10.17063  -1.03280
 Alpha  occ. eigenvalues --   -1.02845  -0.83600  -0.77852  -0.72920  -0.67229
 Alpha  occ. eigenvalues --   -0.60971  -0.59028  -0.53826  -0.50244  -0.47945
 Alpha  occ. eigenvalues --   -0.46625  -0.44616  -0.41912  -0.41184  -0.40393
 Alpha  occ. eigenvalues --   -0.38514  -0.38222  -0.36946  -0.34902  -0.33305
 Alpha  occ. eigenvalues --   -0.32465  -0.28649  -0.27520  -0.23971
 Alpha virt. eigenvalues --   -0.05721   0.05312   0.07440   0.10571   0.11709
 Alpha virt. eigenvalues --    0.12675   0.14155   0.15979   0.16735   0.17612
 Alpha virt. eigenvalues --    0.17821   0.18983   0.21388   0.21599   0.23178

 Mulliken charges:
               1
     1  C   -0.407949
     2  C   -0.093583
     3  C   -0.222545
     4  C    0.066043
     5  O   -0.431958
     6  C   -0.090232
     7  C   -0.129797
     8  C    0.373446
     9  O   -0.333730
    10  H    0.117410
    11  H    0.135529
    12  H    0.109009
    13  H    0.119546
    14  H    0.104117
    15  H    0.113190
    16  H    0.072409
    17  H    0.284446
    18  H    0.103510
    19  H    0.111137
 Sum of Mulliken charges =   0.00000

 Dipole moment (field-independent basis, Debye):
    X=              3.3698    Y=             -0.0558    Z=              0.6918  Tot=              3.4406
 Quadrupole moment (field-independent basis, Debye-Ang):
   XX=            -54.4238   YY=            -53.8482   ZZ=            -52.6871
   XY=              7.6414   XZ=             -0.2456   YZ=             -0.9762

  Exact polarizability:  98.416  -0.719  79.255   2.974  -0.564  57.406
 Approx polarizability: 155.952 -13.554 110.973   5.458   0.350  91.050

                      1                      2                      3
                      A                      A                      A
 Frequencies --     70.5085               128.9840               191.0454
 Red. masses --      5.5985                 3.2137                 1.2076
 Frc consts  --      0.0164                 0.0315                 0.0260
 IR Inten    --      3.2975                 1.1564                 0.4753

                      4                      5                      6
                      A                      A                      A
 Frequencies --    225.1156               248.2947               286.9827
 Red. masses --      2.4492                 1.2098                 2.7950
 Frc consts  --      0.0731                 0.0439                 0.1356
 IR Inten    --      6.9958               106.2698                 4.0539

                      7                      8                      9
                      A                      A                      A
 Frequencies --    322.8893               371.7773               422.6218
 Red. masses --      3.0709                 2.3388                 4.8669
 Frc consts  --      0.1886                 0.1905                 0.5122
 IR Inten    --     10.0512                 4.7119                 3.7916

                     10                     11                     12
                      A                      A                      A
 Frequencies --    455.4899               532.6599               562.9367
 Red. masses --      2.6156                 4.8681                 4.5323
 Frc consts  --      0.3197                 0.8138                 0.8462
 IR Inten    --      1.3863                 5.5691                 9.7864

                     13                     14                     15
                      A                      A                      A
 Frequencies --    679.6597               728.6708               804.0546
 Red. masses --      4.1404                 2.3251                 3.7059
 Frc consts  --      1.1269                 0.7274                 1.4116
 IR Inten    --      2.2226                 3.5432                10.6310

                     16                     17                     18
                      A                      A                      A
 Frequencies --    822.6562               857.5955               910.3461
 Red. masses --      2.2329                 1.9281                 1.8446
 Frc consts  --      0.8903                 0.8355                 0.9007
 IR Inten    --      3.4981                14.9936                 4.5763

                     19                     20                     21
                      A                      A                      A
 Frequencies --    954.0225               995.9069              1031.1147
 Red. masses --      2.1049                 1.8472                 1.2920
 Frc consts  --      1.1288                 1.0794                 0.8093
 IR Inten    --     13.1153                15.3175                 1.0626

                     22                     23                     24
                      A                      A                      A
 Frequencies --   1053.0824              1085.0574              1112.2137
 Red. masses --      2.0788                 2.4103                 2.5286
 Frc consts  --      1.3583                 1.6720                 1.8429
 IR Inten    --     52.4317                18.1390                12.5722

                     25                     26                     27
                      A                      A                      A
 Frequencies --   1130.9035              1150.5672              1214.5100
 Red. masses --      1.5505                 1.5981                 1.4874
 Frc consts  --      1.1684                 1.2465                 1.2927
 IR Inten    --      9.9183                14.3706                16.2956

                     28                     29                     30
                      A                      A                      A
 Frequencies --   1227.8839              1249.1108              1304.0504
 Red. masses --      1.2965                 1.3206                 1.2893
 Frc consts  --      1.1517                 1.2140                 1.2918
 IR Inten    --     41.5602                34.1700                 5.2626

                     31                     32                     33
                      A                      A                      A
 Frequencies --   1344.8756              1364.9132              1389.9395
 Red. masses --      1.4148                 1.2860                 1.8701
 Frc consts  --      1.5077                 1.4116                 2.1287
 IR Inten    --      2.6184                13.2873                 2.0005

                     34                     35                     36
                      A                      A                      A
 Frequencies --   1404.3559              1410.4098              1426.2380
 Red. masses --      1.6418                 1.2656                 1.6026
 Frc consts  --      1.9077                 1.4833                 1.9207
 IR Inten    --     15.9705                 1.5313                23.4081

                     37                     38                     39
                      A                      A                      A
 Frequencies --   1479.4248              1491.6836              1499.1782
 Red. masses --      1.0989                 1.0447                 1.0552
 Frc consts  --      1.4170                 1.3696                 1.3973
 IR Inten    --      5.6484                 7.8484                 5.4438

                     40                     41                     42
                      A                      A                      A
 Frequencies --   1690.5610              1775.9677              2974.9893
 Red. masses --      6.9450                11.7656                 1.0827
 Frc consts  --     11.6946                21.8642                 5.6458
 IR Inten    --      2.8581               182.7984                56.3314

                     43                     44                     45
                      A                      A                      A
 Frequencies --   3006.2410              3037.8199              3042.4026
 Red. masses --      1.0797                 1.0550                 1.0441
 Frc consts  --      5.7490                 5.7363                 5.6942
 IR Inten    --      2.7143                14.3514                42.1109

                     46                     47                     48
                      A                      A                      A
 Frequencies --   3086.4367              3105.2850              3134.6382
 Red. masses --      1.1020                 1.1011                 1.0998
 Frc consts  --      6.1854                 6.2558                 6.3669
 IR Inten    --     14.3492                28.3284                11.1112

                     49                     50                     51
                      A                      A                      A
 Frequencies --   3135.1736              3182.4630              3813.6239
 Red. masses --      1.0872                 1.0949                 1.0665
 Frc consts  --      6.2962                 6.5336                 9.1386
 IR Inten    --     16.6463                11.4940                23.9247

 - Thermochemistry -
 -------------------
 Temperature   298.150 Kelvin.  Pressure   1.00000 Atm.
 Atom     1 has atomic number  6 and mass  12.00000

 Molecular mass:   126.06808 amu.
 Principal axes and moments of inertia in atomic units:
                           1         2         3
     Eigenvalues --   717.671361244.191411741.86572
           X            0.99627   0.08612   0.00463
           Y           -0.08607   0.99624  -0.01002
           Z           -0.00548   0.00959   0.99994
 This molecule is an asymmetric top.
 Rotational symmetry number  1.
 Warning -- assumption of classical behavior for rotation
           may cause significant error
 Rotational temperatures (Kelvin)      0.12069     0.06961     0.04972
 Rotational constants (GHZ):           2.51472     1.45053     1.03610
 Zero-point vibrational energy     418258.3 (Joules/Mol)
                                   99.96614 (Kcal/Mol)
 Warning -- explicit consideration of  12 degrees of freedom as
           vibrations may cause significant error
 Vibrational temperatures:    101.45   185.58   274.87   323.89   357.24
          (Kelvin)            412.90   464.57   534.90   608.06   655.35
                              766.38   809.94   977.88  1048.39  1156.85
                             1183.62  1233.89  1309.78  1372.62  1432.89
                             1483.54  1515.15  1561.15  1600.23  1627.12
                             1655.41  1747.41  1766.65  1797.19  1876.24
                             1934.97  1963.80  1999.81  2020.55  2029.26
                             2052.04  2128.56  2146.20  2156.98  2432.34
                             2555.22  4280.34  4325.30  4370.74  4377.33
                             4440.69  4467.81  4510.04  4510.81  4578.85
                             5486.95

 Zero-point correction=                           0.159306 (Hartree/Particle)
 Thermal correction to Energy=                    0.168140
 Thermal correction to Enthalpy=                  0.169085
 Thermal correction to Gibbs Free Energy=         0.125833
 Sum of electronic and zero-point Energies=           -423.063174
 Sum of electronic and thermal Energies=              -423.054340
 Sum of electronic and thermal Enthalpies=            -423.053396
 Sum of electronic and thermal Free Energies=         -423.096647

                     E (Thermal)             CV                S
                      KCal/Mol        Cal/Mol-Kelvin    Cal/Mol-Kelvin
 Total                  105.510             33.339             91.030
 Electronic               0.000              0.000              0.000
 Translational            0.889              2.981             40.409
 Rotational               0.889              2.981             28.832
 Vibrational            103.732             27.377             21.789
 Vibration     1          0.598              1.968              4.139
 Vibration     2          0.611              1.924              2.961
 Vibration     3          0.634              1.852              2.218
 Vibration     4          0.650              1.803              1.918
 Vibration     5          0.662              1.766              1.743
 Vibration     6          0.684              1.698              1.492
 Vibration     7          0.708              1.630              1.295
 Vibration     8          0.743              1.530              1.072
 Vibration     9          0.785              1.421              0.883
 Vibration    10          0.814              1.349              0.779
 Vibration    11          0.888              1.178              0.581
 Vibration    12          0.919              1.111              0.518

 Normal termination of Gaussian 09 at Tue Jan 28 01:25:23 2020.
