 Gaussian 09, Revision D.01,
 Gaussian 09:  ES64L-G09RevD.01 24-Apr-2013

 -----------------------------
 # b3lyp 6-31G(2df,p) opt Freq
 -----------------------------

 -----
 titel
 -----
 Symbolic Z-matrix:
 Charge =  0 Multiplicity = 1

 SCF Done:  E(RB3LYP) =  -423.199503734     A.U. after   13 cycles
 Optimization completed.
    -- Stationary point found.
 Normal termination of Gaussian 09 at Mon Jan 27 11:19:41 2020.

 ----------------------------------------------------------------------
 #N Geom=AllCheck Guess=TCheck SCRF=Check GenChk RB3LYP/6-31G(2df,p) Fr
 eq
 ----------------------------------------------------------------------

 Structure from the checkpoint file:  "/scratch/puck/g09_6daef8f5-a376-4337-ac70-393121a08b9d/Gau-164863.chk"
 -----
 titel
 -----
 Charge =  0 Multiplicity = 1

                         Standard orientation:
 ---------------------------------------------------------------------
 Center     Atomic      Atomic             Coordinates (Angstroms)
 Number     Number       Type             X           Y           Z
 ---------------------------------------------------------------------
      1          6           0       -1.217344    0.937249   -0.758397
      2          6           0       -1.386788   -0.488342   -0.235203
      3          8           0       -0.464969   -1.418412   -0.848417
      4          6           0        0.457379   -1.320033    0.268792
      5          6           0        1.711897   -0.525693   -0.067155
      6          6           0        1.367768    0.883981   -0.607370
      7          6           0        0.045129    1.413873   -0.002469
      8          8           0       -0.135730    0.858256    1.313567
      9          6           0       -0.558833   -0.466201    1.076527
     10          1           0       -1.116612    0.966516   -1.845728
     11          1           0       -2.077011    1.548248   -0.463998
     12          1           0       -2.412597   -0.864518   -0.243584
     13          1           0        0.692694   -2.312375    0.669061
     14          1           0        2.296964   -0.437002    0.855405
     15          1           0        2.326939   -1.076736   -0.785370
     16          1           0        2.185157    1.569683   -0.365222
     17          1           0        1.283714    0.865451   -1.698234
     18          1           0        0.074167    2.499393    0.111896
     19          1           0       -0.963063   -0.886417    1.996228
 ---------------------------------------------------------------------

 SCF Done:  E(RB3LYP) =  -423.199503734     A.U. after    1 cycles

 The electronic state is 1-A.
 Alpha  occ. eigenvalues --  -19.14208 -19.12911 -10.23263 -10.22994 -10.22975
 Alpha  occ. eigenvalues --  -10.22775 -10.18232 -10.18177 -10.18170  -1.05869
 Alpha  occ. eigenvalues --   -1.01727  -0.78789  -0.77211  -0.73461  -0.65115
 Alpha  occ. eigenvalues --   -0.63250  -0.57556  -0.53642  -0.51185  -0.48996
 Alpha  occ. eigenvalues --   -0.46455  -0.43833  -0.43297  -0.41822  -0.40343
 Alpha  occ. eigenvalues --   -0.39168  -0.36664  -0.34863  -0.34434  -0.33274
 Alpha  occ. eigenvalues --   -0.31573  -0.29020  -0.24879  -0.24583
 Alpha virt. eigenvalues --    0.08112   0.08641   0.11528   0.12262   0.13133
 Alpha virt. eigenvalues --    0.13502   0.15475   0.15596   0.16251   0.17346
 Alpha virt. eigenvalues --    0.18423   0.18759   0.19413   0.20630   0.22951

 Mulliken charges:
               1
     1  C   -0.236516
     2  C    0.086449
     3  O   -0.317217
     4  C    0.086497
     5  C   -0.213960
     6  C   -0.221631
     7  C    0.074338
     8  O   -0.263431
     9  C    0.047227
    10  H    0.111624
    11  H    0.103364
    12  H    0.078048
    13  H    0.073128
    14  H    0.110354
    15  H    0.105450
    16  H    0.100578
    17  H    0.108323
    18  H    0.081558
    19  H    0.085817
 Sum of Mulliken charges =   0.00000

 Dipole moment (field-independent basis, Debye):
    X=              0.0713    Y=              0.5011    Z=              0.0487  Tot=              0.5085
 Quadrupole moment (field-independent basis, Debye-Ang):
   XX=            -49.9421   YY=            -53.4160   ZZ=            -55.5441
   XY=             -0.7670   XZ=             -0.6543   YZ=             -5.1095

  Exact polarizability:  77.429  -1.443  73.928   0.282  -4.418  65.352
 Approx polarizability: 106.147  -1.400 106.631   1.597  -1.199 103.954

                      1                      2                      3
                      A                      A                      A
 Frequencies --    153.3451               314.0920               325.3982
 Red. masses --      2.1331                 3.0330                 2.5362
 Frc consts  --      0.0296                 0.1763                 0.1582
 IR Inten    --      1.6842                 3.7792                 0.9033

                      4                      5                      6
                      A                      A                      A
 Frequencies --    412.4536               467.2391               514.7278
 Red. masses --      1.9637                 5.0805                 5.0403
 Frc consts  --      0.1968                 0.6535                 0.7868
 IR Inten    --      3.0748                12.4495                 0.0823

                      7                      8                      9
                      A                      A                      A
 Frequencies --    617.7311               663.2974               750.8066
 Red. masses --      5.1412                 5.0790                 1.8346
 Frc consts  --      1.1559                 1.3166                 0.6093
 IR Inten    --      1.8776                 2.2404                 3.9979

                     10                     11                     12
                      A                      A                      A
 Frequencies --    791.0174               812.4064               854.1381
 Red. masses --      2.9625                 2.8319                 2.5305
 Frc consts  --      1.0922                 1.1012                 1.0877
 IR Inten    --      1.1646                 4.1525                13.0611

                     13                     14                     15
                      A                      A                      A
 Frequencies --    860.0315               881.1874               900.7493
 Red. masses --      2.0882                 3.3043                 2.3697
 Frc consts  --      0.9100                 1.5117                 1.1328
 IR Inten    --      4.3562                 0.0503                 6.3495

                     16                     17                     18
                      A                      A                      A
 Frequencies --    937.7058               964.5516               983.7251
 Red. masses --      2.3560                 3.3492                 2.8120
 Frc consts  --      1.2206                 1.8359                 1.6033
 IR Inten    --     11.0722                32.0601                47.6472

                     19                     20                     21
                      A                      A                      A
 Frequencies --   1008.6258              1019.9839              1062.9437
 Red. masses --      2.8025                 2.0417                 2.1705
 Frc consts  --      1.6798                 1.2515                 1.4448
 IR Inten    --     16.2979                 8.7398                 8.5085

                     22                     23                     24
                      A                      A                      A
 Frequencies --   1069.3647              1084.7253              1113.2878
 Red. masses --      2.4728                 1.9988                 3.1283
 Frc consts  --      1.6661                 1.3857                 2.2844
 IR Inten    --     21.8847                32.0988                44.2414

                     25                     26                     27
                      A                      A                      A
 Frequencies --   1173.0606              1178.9188              1214.5190
 Red. masses --      1.5798                 1.1936                 1.5052
 Frc consts  --      1.2808                 0.9774                 1.3081
 IR Inten    --     16.9558                 1.2523                 3.9944

                     28                     29                     30
                      A                      A                      A
 Frequencies --   1226.4652              1246.9727              1280.0088
 Red. masses --      1.7033                 1.3782                 1.2836
 Frc consts  --      1.5096                 1.2626                 1.2391
 IR Inten    --      6.3900                 0.1371                 1.6098

                     31                     32                     33
                      A                      A                      A
 Frequencies --   1299.8874              1325.7996              1331.4632
 Red. masses --      1.3470                 1.3129                 1.3989
 Frc consts  --      1.3410                 1.3596                 1.4612
 IR Inten    --      4.1903                 3.4090                 0.2628

                     34                     35                     36
                      A                      A                      A
 Frequencies --   1341.5627              1360.4539              1365.4822
 Red. masses --      1.5532                 1.4780                 1.5219
 Frc consts  --      1.6470                 1.6117                 1.6719
 IR Inten    --      1.5097                 8.0325                 6.5533

                     37                     38                     39
                      A                      A                      A
 Frequencies --   1382.3317              1394.0878              1464.2494
 Red. masses --      1.4807                 1.3997                 1.0997
 Frc consts  --      1.6670                 1.6028                 1.3892
 IR Inten    --      2.2384                 2.6635                 2.8433

                     40                     41                     42
                      A                      A                      A
 Frequencies --   1471.5500              1497.0878              3035.8113
 Red. masses --      1.0853                 1.0912                 1.0711
 Frc consts  --      1.3847                 1.4410                 5.8162
 IR Inten    --      4.2661                 3.4172                 6.1151

                     43                     44                     45
                      A                      A                      A
 Frequencies --   3047.9486              3052.1321              3053.5251
 Red. masses --      1.0713                 1.0639                 1.0668
 Frc consts  --      5.8636                 5.8392                 5.8608
 IR Inten    --     60.7011                18.8989                28.0615

                     46                     47                     48
                      A                      A                      A
 Frequencies --   3078.8078              3081.8052              3091.0989
 Red. masses --      1.0998                 1.0888                 1.0916
 Frc consts  --      6.1421                 6.0927                 6.1453
 IR Inten    --     14.7436                62.0345                29.9984

                     49                     50                     51
                      A                      A                      A
 Frequencies --   3098.1638              3117.2727              3128.5440
 Red. masses --      1.1010                 1.1024                 1.0913
 Frc consts  --      6.2264                 6.3114                 6.2931
 IR Inten    --     35.7200                19.0728                32.9751

 - Thermochemistry -
 -------------------
 Temperature   298.150 Kelvin.  Pressure   1.00000 Atm.
 Atom     1 has atomic number  6 and mass  12.00000

 Molecular mass:   126.06808 amu.
 Principal axes and moments of inertia in atomic units:
                           1         2         3
     Eigenvalues --   767.66035 780.60433 993.15977
           X            0.61565   0.78798  -0.00840
           Y            0.78251  -0.61257  -0.11152
           Z            0.09302  -0.06208   0.99373
 This molecule is an asymmetric top.
 Rotational symmetry number  1.
 Warning -- assumption of classical behavior for rotation
           may cause significant error
 Rotational temperatures (Kelvin)      0.11283     0.11096     0.08721
 Rotational constants (GHZ):           2.35096     2.31198     1.81717
 Zero-point vibrational energy     430072.7 (Joules/Mol)
                                  102.78985 (Kcal/Mol)
 Warning -- explicit consideration of   7 degrees of freedom as
           vibrations may cause significant error
 Vibrational temperatures:    220.63   451.91   468.17   593.43   672.25
          (Kelvin)            740.58   888.78   954.34  1080.24  1138.10
                             1168.87  1228.91  1237.39  1267.83  1295.98
                             1349.15  1387.77  1415.36  1451.19  1467.53
                             1529.34  1538.58  1560.68  1601.77  1687.77
                             1696.20  1747.42  1764.61  1794.11  1841.64
                             1870.25  1907.53  1915.68  1930.21  1957.39
                             1964.62  1988.86  2005.78  2106.73  2117.23
                             2153.97  4367.85  4385.31  4391.33  4393.34
                             4429.71  4434.02  4447.40  4457.56  4485.05
                             4501.27

 Zero-point correction=                           0.163806 (Hartree/Particle)
 Thermal correction to Energy=                    0.170085
 Thermal correction to Enthalpy=                  0.171029
 Thermal correction to Gibbs Free Energy=         0.133444
 Sum of electronic and zero-point Energies=           -423.035698
 Sum of electronic and thermal Energies=              -423.029419
 Sum of electronic and thermal Enthalpies=            -423.028475
 Sum of electronic and thermal Free Energies=         -423.066060

                     E (Thermal)             CV                S
                      KCal/Mol        Cal/Mol-Kelvin    Cal/Mol-Kelvin
 Total                  106.730             26.771             79.105
 Electronic               0.000              0.000              0.000
 Translational            0.889              2.981             40.409
 Rotational               0.889              2.981             27.878
 Vibrational            104.952             20.810             10.818
 Vibration     1          0.619              1.899              2.630
 Vibration     2          0.702              1.647              1.341
 Vibration     3          0.710              1.625              1.283
 Vibration     4          0.776              1.443              0.918
 Vibration     5          0.825              1.323              0.745
 Vibration     6          0.870              1.217              0.622
 Vibration     7          0.978              0.994              0.420

 Optimization completed.
    -- Stationary point found.
 Normal termination of Gaussian 09 at Mon Jan 27 12:11:10 2020.
