 Gaussian 09, Revision D.01,
 Gaussian 09:  ES64L-G09RevD.01 24-Apr-2013

 -----------------------------
 # b3lyp 6-31G(2df,p) opt Freq
 -----------------------------

 -----
 titel
 -----
 Symbolic Z-matrix:
 Charge =  0 Multiplicity = 1

 SCF Done:  E(RB3LYP) =  -423.145102281     A.U. after   14 cycles
 Optimization completed.
    -- Stationary point found.
 Normal termination of Gaussian 09 at Tue Jan 28 08:10:39 2020.

 ----------------------------------------------------------------------
 #N Geom=AllCheck Guess=TCheck SCRF=Check GenChk RB3LYP/6-31G(2df,p) Fr
 eq
 ----------------------------------------------------------------------

 Structure from the checkpoint file:  "/scratch/puck/g09_0e3f2bee-b3e8-4b9c-af95-f99c8e72ec33/Gau-127655.chk"
 -----
 titel
 -----
 Charge =  0 Multiplicity = 1

                         Standard orientation:
 ---------------------------------------------------------------------
 Center     Atomic      Atomic             Coordinates (Angstroms)
 Number     Number       Type             X           Y           Z
 ---------------------------------------------------------------------
      1          6           0       -2.498398   -0.390407   -0.381513
      2          6           0       -1.288358    0.043530    0.436793
      3          8           0       -0.808503    1.239819   -0.168876
      4          6           0        0.483800    1.667601    0.203555
      5          6           0        1.503692    0.545379    0.059562
      6          8           0        1.278756   -0.194513   -1.178074
      7          6           0        0.882845   -1.336341   -0.420720
      8          6           0        1.190727   -0.696715    0.907728
      9          6           0       -0.234491   -1.049452    0.556635
     10          1           0       -2.981997   -1.259358    0.075656
     11          1           0       -3.226028    0.423646   -0.437233
     12          1           0       -2.190875   -0.651523   -1.397877
     13          1           0       -1.614482    0.275677    1.468018
     14          1           0        0.719080    2.499676   -0.467560
     15          1           0        0.515181    2.043927    1.241738
     16          1           0        2.533898    0.908345    0.120676
     17          1           0        1.107800   -2.314240   -0.830486
     18          1           0        1.734754   -1.044395    1.775345
     19          1           0       -0.598259   -1.945775    1.055097
 ---------------------------------------------------------------------

 SCF Done:  E(RB3LYP) =  -423.145102281     A.U. after    1 cycles

 The electronic state is 1-A.
 Alpha  occ. eigenvalues --  -19.13494 -19.13396 -10.24108 -10.23816 -10.23420
 Alpha  occ. eigenvalues --  -10.22645 -10.19531 -10.19393 -10.17003  -1.05780
 Alpha  occ. eigenvalues --   -1.02079  -0.84152  -0.77384  -0.72077  -0.64467
 Alpha  occ. eigenvalues --   -0.63683  -0.56112  -0.53870  -0.53131  -0.48260
 Alpha  occ. eigenvalues --   -0.47930  -0.45290  -0.44640  -0.40823  -0.39986
 Alpha  occ. eigenvalues --   -0.38538  -0.36982  -0.35574  -0.34520  -0.33887
 Alpha  occ. eigenvalues --   -0.29988  -0.27116  -0.24996  -0.22745
 Alpha virt. eigenvalues --    0.07739   0.08847   0.10885   0.11862   0.12759
 Alpha virt. eigenvalues --    0.14332   0.14589   0.15340   0.16762   0.16861
 Alpha virt. eigenvalues --    0.17574   0.18050   0.19145   0.19926   0.22191

 Mulliken charges:
               1
     1  C   -0.392134
     2  C    0.118522
     3  O   -0.257211
     4  C   -0.091671
     5  C    0.086555
     6  O   -0.291717
     7  C    0.092900
     8  C   -0.190180
     9  C   -0.075931
    10  H    0.107431
    11  H    0.122840
    12  H    0.132212
    13  H    0.062417
    14  H    0.114345
    15  H    0.085994
    16  H    0.084247
    17  H    0.105053
    18  H    0.094798
    19  H    0.091530
 Sum of Mulliken charges =   0.00000

 Dipole moment (field-independent basis, Debye):
    X=              0.4960    Y=             -0.9944    Z=              2.1508  Tot=              2.4209
 Quadrupole moment (field-independent basis, Debye-Ang):
   XX=            -51.9819   YY=            -49.9733   ZZ=            -54.9776
   XY=              2.5275   XZ=              1.6316   YZ=              0.3538

  Exact polarizability:  81.009   4.683  76.419   0.341   0.810  65.260
 Approx polarizability: 108.339   6.845 108.560  -1.124   1.174 106.505

                      1                      2                      3
                      A                      A                      A
 Frequencies --    104.9276               216.5277               251.6605
 Red. masses --      3.6246                 1.4102                 1.7486
 Frc consts  --      0.0235                 0.0390                 0.0652
 IR Inten    --      1.7582                 0.5914                 1.2045

                      4                      5                      6
                      A                      A                      A
 Frequencies --    295.4826               346.1340               395.8992
 Red. masses --      2.5695                 3.0113                 4.2165
 Frc consts  --      0.1322                 0.2126                 0.3894
 IR Inten    --      1.4035                 2.0423                 3.7493

                      7                      8                      9
                      A                      A                      A
 Frequencies --    456.8926               512.8834               684.1772
 Red. masses --      4.3319                 3.8206                 3.7074
 Frc consts  --      0.5328                 0.5921                 1.0225
 IR Inten    --      0.2857                 2.9236                10.3260

                     10                     11                     12
                      A                      A                      A
 Frequencies --    701.0593               750.1504               791.3126
 Red. masses --      2.9457                 3.2466                 1.9812
 Frc consts  --      0.8530                 1.0764                 0.7309
 IR Inten    --      4.3959                 5.3201                10.0026

                     13                     14                     15
                      A                      A                      A
 Frequencies --    817.5206               819.9731               875.8901
 Red. masses --      1.8191                 3.3106                 2.4754
 Frc consts  --      0.7163                 1.3115                 1.1189
 IR Inten    --      3.3492                22.2451                28.0995

                     16                     17                     18
                      A                      A                      A
 Frequencies --    908.3572               956.7516               987.5578
 Red. masses --      2.2999                 2.4024                 2.1684
 Frc consts  --      1.1181                 1.2956                 1.2460
 IR Inten    --      4.5821                 3.7471                 0.8889

                     19                     20                     21
                      A                      A                      A
 Frequencies --    999.6605              1018.8094              1037.4825
 Red. masses --      1.7580                 2.0334                 2.1575
 Frc consts  --      1.0351                 1.2435                 1.3682
 IR Inten    --     12.8179                 7.0381                 7.7731

                     22                     23                     24
                      A                      A                      A
 Frequencies --   1054.3154              1079.8493              1099.7497
 Red. masses --      1.3576                 2.0623                 2.1653
 Frc consts  --      0.8891                 1.4168                 1.5430
 IR Inten    --      4.3211                31.1210                15.4416

                     25                     26                     27
                      A                      A                      A
 Frequencies --   1117.8271              1133.5083              1155.1803
 Red. masses --      2.2375                 2.5262                 3.2033
 Frc consts  --      1.6473                 1.9124                 2.5186
 IR Inten    --      5.6647                24.8802                66.1568

                     28                     29                     30
                      A                      A                      A
 Frequencies --   1187.7655              1239.3635              1262.4459
 Red. masses --      1.8206                 1.2858                 1.3998
 Frc consts  --      1.5133                 1.1636                 1.3144
 IR Inten    --     32.6652                11.9134                 3.5977

                     31                     32                     33
                      A                      A                      A
 Frequencies --   1294.7218              1322.9374              1335.5656
 Red. masses --      1.4161                 1.6895                 1.5408
 Frc consts  --      1.3986                 1.7421                 1.6193
 IR Inten    --      5.9431                 7.0840                15.4355

                     34                     35                     36
                      A                      A                      A
 Frequencies --   1370.1298              1376.8906              1407.7708
 Red. masses --      1.2768                 1.5278                 1.3516
 Frc consts  --      1.4122                 1.7065                 1.5782
 IR Inten    --      2.9171                12.0350                 5.7142

                     37                     38                     39
                      A                      A                      A
 Frequencies --   1409.3999              1441.3074              1483.6657
 Red. masses --      1.3764                 2.3512                 1.0646
 Frc consts  --      1.6109                 2.8777                 1.3807
 IR Inten    --     14.7563                10.5936                 1.9541

                     40                     41                     42
                      A                      A                      A
 Frequencies --   1487.3333              1499.7113              2920.3709
 Red. masses --      1.0935                 1.0566                 1.0815
 Frc consts  --      1.4252                 1.4002                 5.4343
 IR Inten    --      1.4359                 2.4811                62.9269

                     43                     44                     45
                      A                      A                      A
 Frequencies --   2953.1252              3043.2129              3064.9848
 Red. masses --      1.0706                 1.0346                 1.0884
 Frc consts  --      5.5010                 5.6453                 6.0243
 IR Inten    --     69.4480                18.0334                29.4388

                     46                     47                     48
                      A                      A                      A
 Frequencies --   3079.2313              3117.0441              3125.8080
 Red. masses --      1.0907                 1.1012                 1.1027
 Frc consts  --      6.0930                 6.3035                 6.3479
 IR Inten    --     47.1241                18.3708                19.6813

                     49                     50                     51
                      A                      A                      A
 Frequencies --   3136.7457              3179.7393              3201.9126
 Red. masses --      1.0866                 1.0906                 1.0982
 Frc consts  --      6.2990                 6.4966                 6.6334
 IR Inten    --     12.7274                23.2731                14.1377

 - Thermochemistry -
 -------------------
 Temperature   298.150 Kelvin.  Pressure   1.00000 Atm.
 Atom     1 has atomic number  6 and mass  12.00000

 Molecular mass:   126.06808 amu.
 Principal axes and moments of inertia in atomic units:
                           1         2         3
     Eigenvalues --   650.082181004.856411269.71162
           X            0.99833   0.05306   0.02275
           Y           -0.05326   0.99855   0.00838
           Z           -0.02227  -0.00957   0.99971
 This molecule is an asymmetric top.
 Rotational symmetry number  1.
 Warning -- assumption of classical behavior for rotation
           may cause significant error
 Rotational temperatures (Kelvin)      0.13324     0.08620     0.06822
 Rotational constants (GHZ):           2.77617     1.79602     1.42138
 Zero-point vibrational energy     421747.8 (Joules/Mol)
                                  100.80014 (Kcal/Mol)
 Warning -- explicit consideration of   8 degrees of freedom as
           vibrations may cause significant error
 Vibrational temperatures:    150.97   311.53   362.08   425.13   498.01
          (Kelvin)            569.61   657.37   737.92   984.38  1008.67
                             1079.30  1138.52  1176.23  1179.76  1260.21
                             1306.92  1376.55  1420.87  1438.29  1465.84
                             1492.70  1516.92  1553.66  1582.29  1608.30
                             1630.86  1662.04  1708.93  1783.17  1816.38
                             1862.81  1903.41  1921.58  1971.31  1981.04
                             2025.47  2027.81  2073.72  2134.66  2139.94
                             2157.75  4201.76  4248.88  4378.50  4409.82
                             4430.32  4484.73  4497.33  4513.07  4574.93
                             4606.83

 Zero-point correction=                           0.160635 (Hartree/Particle)
 Thermal correction to Energy=                    0.167915
 Thermal correction to Enthalpy=                  0.168859
 Thermal correction to Gibbs Free Energy=         0.129133
 Sum of electronic and zero-point Energies=           -422.984467
 Sum of electronic and thermal Energies=              -422.977187
 Sum of electronic and thermal Enthalpies=            -422.976243
 Sum of electronic and thermal Free Energies=         -423.015970

                     E (Thermal)             CV                S
                      KCal/Mol        Cal/Mol-Kelvin    Cal/Mol-Kelvin
 Total                  105.368             29.433             83.612
 Electronic               0.000              0.000              0.000
 Translational            0.889              2.981             40.409
 Rotational               0.889              2.981             28.208
 Vibrational            103.591             23.471             14.995
 Vibration     1          0.605              1.945              3.361
 Vibration     2          0.645              1.816              1.988
 Vibration     3          0.664              1.760              1.719
 Vibration     4          0.690              1.682              1.442
 Vibration     5          0.724              1.583              1.184
 Vibration     6          0.763              1.479              0.978
 Vibration     7          0.815              1.346              0.775
 Vibration     8          0.868              1.221              0.627

 Optimization completed.
    -- Stationary point found.
 Normal termination of Gaussian 09 at Tue Jan 28 08:54:14 2020.
