 Gaussian 09, Revision D.01,
 Gaussian 09:  ES64L-G09RevD.01 24-Apr-2013

 -----------------------------
 # b3lyp 6-31G(2df,p) opt Freq
 -----------------------------

 -----
 titel
 -----
 Symbolic Z-matrix:
 Charge =  0 Multiplicity = 1

 SCF Done:  E(RB3LYP) =  -423.146721362     A.U. after   14 cycles
 Optimization completed.
    -- Stationary point found.
 Normal termination of Gaussian 09 at Mon Jan 27 11:53:05 2020.

 ----------------------------------------------------------------------
 #N Geom=AllCheck Guess=TCheck SCRF=Check GenChk RB3LYP/6-31G(2df,p) Fr
 eq
 ----------------------------------------------------------------------

 Structure from the checkpoint file:  "/scratch/puck/g09_82a7f97b-a49b-4b18-bd52-75aae64c9852/Gau-20706.chk"
 -----
 titel
 -----
 Charge =  0 Multiplicity = 1

                         Standard orientation:
 ---------------------------------------------------------------------
 Center     Atomic      Atomic             Coordinates (Angstroms)
 Number     Number       Type             X           Y           Z
 ---------------------------------------------------------------------
      1          6           0        1.927552    0.000166   -1.068699
      2          8           0        2.286198   -0.000054    0.328522
      3          6           0        0.913193    0.000001   -0.019206
      4          6           0       -0.055551   -1.061222    0.505383
      5          6           0       -0.472743   -0.000249    1.573498
      6          6           0       -0.055546    1.061061    0.505719
      7          6           0       -1.203324    1.200478   -0.510587
      8          8           0       -1.958734    0.000101   -0.606113
      9          6           0       -1.203337   -1.200314   -0.510959
     10          1           0        2.160571    0.919119   -1.605610
     11          1           0        2.160570   -0.918616   -1.605901
     12          1           0        0.347408   -2.028012    0.813787
     13          1           0       -1.512726   -0.000298    1.904282
     14          1           0        0.204486   -0.000386    2.428731
     15          1           0        0.347415    2.027753    0.814428
     16          1           0       -1.914020    1.971730   -0.195079
     17          1           0       -0.800406    1.492844   -1.494322
     18          1           0       -1.914040   -1.971659   -0.195691
     19          1           0       -0.800423   -1.492376   -1.494786
 ---------------------------------------------------------------------

 SCF Done:  E(RB3LYP) =  -423.146721362     A.U. after    1 cycles

 The electronic state is 1-A.
 Alpha  occ. eigenvalues --  -19.14959 -19.14051 -10.23904 -10.23239 -10.23236
 Alpha  occ. eigenvalues --  -10.23235 -10.19480 -10.19480 -10.18772  -1.07031
 Alpha  occ. eigenvalues --   -1.03461  -0.85235  -0.75908  -0.67576  -0.64406
 Alpha  occ. eigenvalues --   -0.62860  -0.61975  -0.52710  -0.50277  -0.49251
 Alpha  occ. eigenvalues --   -0.48412  -0.46314  -0.45760  -0.40814  -0.40559
 Alpha  occ. eigenvalues --   -0.38741  -0.38026  -0.36672  -0.33535  -0.31727
 Alpha  occ. eigenvalues --   -0.29979  -0.28832  -0.25654  -0.25419
 Alpha virt. eigenvalues --    0.07558   0.09665   0.10412   0.12482   0.12910
 Alpha virt. eigenvalues --    0.13122   0.14052   0.14566   0.15594   0.15885
 Alpha virt. eigenvalues --    0.17042   0.17517   0.18103   0.20063   0.21675

 Mulliken charges:
               1
     1  C   -0.305153
     2  O   -0.307547
     3  C    0.520097
     4  C   -0.138954
     5  C   -0.236970
     6  C   -0.138953
     7  C   -0.074658
     8  O   -0.255339
     9  C   -0.074658
    10  H    0.115219
    11  H    0.115219
    12  H    0.079440
    13  H    0.107594
    14  H    0.115197
    15  H    0.079439
    16  H    0.110057
    17  H    0.089956
    18  H    0.110058
    19  H    0.089956
 Sum of Mulliken charges =   0.00000

 Dipole moment (field-independent basis, Debye):
    X=             -0.2537    Y=              0.0001    Z=             -0.6199  Tot=              0.6698
 Quadrupole moment (field-independent basis, Debye-Ang):
   XX=            -61.3848   YY=            -49.0094   ZZ=            -51.8178
   XY=              0.0008   XZ=             -4.5796   YZ=              0.0004

  Exact polarizability:  76.702   0.001  74.273  -5.750   0.000  72.397
 Approx polarizability: 110.235   0.001 106.986  -4.848   0.000 107.934

                      1                      2                      3
                      A                      A                      A
 Frequencies --    135.1913               218.8402               235.8753
 Red. masses --      4.7242                 2.2724                 2.4368
 Frc consts  --      0.0509                 0.0641                 0.0799
 IR Inten    --      3.7367                 0.1696                 4.6271

                      4                      5                      6
                      A                      A                      A
 Frequencies --    294.7727               371.0674               380.0869
 Red. masses --      4.3648                 2.1529                 2.1840
 Frc consts  --      0.2235                 0.1747                 0.1859
 IR Inten    --      5.7978                 0.0236                 1.1358

                      7                      8                      9
                      A                      A                      A
 Frequencies --    453.8209               548.6600               604.7340
 Red. masses --      7.1786                 4.2827                 3.3345
 Frc consts  --      0.8711                 0.7596                 0.7185
 IR Inten    --      2.3626                 0.2754                 9.2015

                     10                     11                     12
                      A                      A                      A
 Frequencies --    679.6615               831.4114               841.5199
 Red. masses --      3.0220                 2.9549                 3.2536
 Frc consts  --      0.8225                 1.2034                 1.3575
 IR Inten    --      4.1492                 0.2985                33.5841

                     13                     14                     15
                      A                      A                      A
 Frequencies --    844.5065               846.3943               893.2274
 Red. masses --      2.6722                 1.6419                 4.0887
 Frc consts  --      1.1229                 0.6930                 1.9220
 IR Inten    --      0.3015                 0.0946                 7.9514

                     16                     17                     18
                      A                      A                      A
 Frequencies --    925.1252               942.4773               975.1977
 Red. masses --      2.3199                 1.6808                 5.4988
 Frc consts  --      1.1698                 0.8796                 3.0811
 IR Inten    --     16.8349                 2.1638                42.0996

                     19                     20                     21
                      A                      A                      A
 Frequencies --   1004.1732              1036.8756              1064.5386
 Red. masses --      1.3341                 2.0972                 1.6218
 Frc consts  --      0.7926                 1.3285                 1.0828
 IR Inten    --     12.1847                 6.2362                26.1925

                     22                     23                     24
                      A                      A                      A
 Frequencies --   1077.7460              1115.1896              1116.9733
 Red. masses --      1.7819                 2.3519                 1.2626
 Frc consts  --      1.2195                 1.7233                 0.9281
 IR Inten    --      0.7953                 0.9041                 0.3853

                     25                     26                     27
                      A                      A                      A
 Frequencies --   1141.7510              1157.0155              1165.0765
 Red. masses --      1.7785                 1.5712                 2.3985
 Frc consts  --      1.3660                 1.2392                 1.9183
 IR Inten    --      0.0055                 0.4384                67.9305

                     28                     29                     30
                      A                      A                      A
 Frequencies --   1187.3615              1227.0090              1252.7116
 Red. masses --      1.5612                 1.5095                 1.4612
 Frc consts  --      1.2968                 1.3390                 1.3510
 IR Inten    --      0.1922                 2.5427                13.8730

                     31                     32                     33
                      A                      A                      A
 Frequencies --   1276.0416              1285.9576              1291.4316
 Red. masses --      1.3740                 1.4635                 1.6696
 Frc consts  --      1.3182                 1.4260                 1.6407
 IR Inten    --      1.6813                 3.1105                 0.4008

                     34                     35                     36
                      A                      A                      A
 Frequencies --   1314.0972              1378.7125              1408.9097
 Red. masses --      1.5473                 1.2710                 1.4153
 Frc consts  --      1.5742                 1.4234                 1.6552
 IR Inten    --      4.3975                 0.2003                21.1540

                     37                     38                     39
                      A                      A                      A
 Frequencies --   1448.1859              1487.2231              1505.8980
 Red. masses --      1.6888                 1.1412                 1.0813
 Frc consts  --      2.0868                 1.4872                 1.4447
 IR Inten    --     11.9671                 3.3408                 0.0145

                     40                     41                     42
                      A                      A                      A
 Frequencies --   1515.6831              1543.2735              2966.2443
 Red. masses --      1.0933                 1.8501                 1.0696
 Frc consts  --      1.4798                 2.5961                 5.5448
 IR Inten    --      1.0112                12.7962                57.9548

                     43                     44                     45
                      A                      A                      A
 Frequencies --   2972.5035              3064.2571              3066.4269
 Red. masses --      1.0708                 1.0921                 1.0936
 Frc consts  --      5.5746                 6.0418                 6.0589
 IR Inten    --     77.7437                25.0528                40.7523

                     46                     47                     48
                      A                      A                      A
 Frequencies --   3077.6697              3078.6790              3096.3474
 Red. masses --      1.0576                 1.0509                 1.0874
 Frc consts  --      5.9024                 5.8685                 6.1422
 IR Inten    --     28.3602                15.7347                57.8435

                     49                     50                     51
                      A                      A                      A
 Frequencies --   3097.9386              3141.8552              3162.7948
 Red. masses --      1.0882                 1.1102                 1.1187
 Frc consts  --      6.1533                 6.4571                 6.5932
 IR Inten    --      8.0347                16.1447                20.1921

 - Thermochemistry -
 -------------------
 Temperature   298.150 Kelvin.  Pressure   1.00000 Atm.
 Atom     1 has atomic number  6 and mass  12.00000

 Molecular mass:   126.06808 amu.
 Principal axes and moments of inertia in atomic units:
                           1         2         3
     Eigenvalues --   599.490401220.674331220.76322
           X            0.99949  -0.03195  -0.00024
           Y           -0.00001  -0.00783   0.99997
           Z            0.03195   0.99946   0.00783
 This molecule is an asymmetric top.
 Rotational symmetry number  1.
 Warning -- assumption of classical behavior for rotation
           may cause significant error
 Rotational temperatures (Kelvin)      0.14448     0.07096     0.07095
 Rotational constants (GHZ):           3.01046     1.47848     1.47837
 Zero-point vibrational energy     423173.7 (Joules/Mol)
                                  101.14095 (Kcal/Mol)
 Warning -- explicit consideration of   9 degrees of freedom as
           vibrations may cause significant error
 Vibrational temperatures:    194.51   314.86   339.37   424.11   533.88
          (Kelvin)            546.86   652.95   789.40   870.08   977.88
                             1196.21  1210.76  1215.05  1217.77  1285.15
                             1331.05  1356.01  1403.09  1444.78  1491.83
                             1531.63  1550.63  1604.51  1607.07  1642.72
                             1664.69  1676.28  1708.35  1765.39  1802.37
                             1835.94  1850.20  1858.08  1890.69  1983.66
                             2027.10  2083.61  2139.78  2166.65  2180.73
                             2220.42  4267.76  4276.76  4408.78  4411.90
                             4428.07  4429.53  4454.95  4457.24  4520.42
                             4550.55

 Zero-point correction=                           0.161178 (Hartree/Particle)
 Thermal correction to Energy=                    0.168367
 Thermal correction to Enthalpy=                  0.169311
 Thermal correction to Gibbs Free Energy=         0.129815
 Sum of electronic and zero-point Energies=           -422.985543
 Sum of electronic and thermal Energies=              -422.978354
 Sum of electronic and thermal Enthalpies=            -422.977410
 Sum of electronic and thermal Free Energies=         -423.016906

                     E (Thermal)             CV                S
                      KCal/Mol        Cal/Mol-Kelvin    Cal/Mol-Kelvin
 Total                  105.652             29.102             83.128
 Electronic               0.000              0.000              0.000
 Translational            0.889              2.981             40.409
 Rotational               0.889              2.981             28.282
 Vibrational            103.875             23.141             14.438
 Vibration     1          0.613              1.918              2.871
 Vibration     2          0.647              1.812              1.969
 Vibration     3          0.655              1.786              1.834
 Vibration     4          0.689              1.683              1.446
 Vibration     5          0.743              1.532              1.075
 Vibration     6          0.750              1.513              1.039
 Vibration     7          0.812              1.352              0.784
 Vibration     8          0.904              1.143              0.547
 Vibration     9          0.963              1.022              0.442

 Optimization completed.
    -- Stationary point found.
 Normal termination of Gaussian 09 at Mon Jan 27 12:38:01 2020.
