 Gaussian 09, Revision D.01,
 Gaussian 09:  ES64L-G09RevD.01 24-Apr-2013

 -----------------------------
 # b3lyp 6-31G(2df,p) opt Freq
 -----------------------------

 -----
 titel
 -----
 Symbolic Z-matrix:
 Charge =  0 Multiplicity = 1

 SCF Done:  E(RB3LYP) =  -423.151989359     A.U. after   14 cycles
 Optimization completed.
    -- Stationary point found.
 Normal termination of Gaussian 09 at Tue Jan 28 14:03:27 2020.

 ----------------------------------------------------------------------
 #N Geom=AllCheck Guess=TCheck SCRF=Check GenChk RB3LYP/6-31G(2df,p) Fr
 eq
 ----------------------------------------------------------------------

 Structure from the checkpoint file:  "/scratch/puck/g09_fb3f241c-b127-4042-9ef2-7c2dfe55a692/Gau-10202.chk"
 -----
 titel
 -----
 Charge =  0 Multiplicity = 1

                         Standard orientation:
 ---------------------------------------------------------------------
 Center     Atomic      Atomic             Coordinates (Angstroms)
 Number     Number       Type             X           Y           Z
 ---------------------------------------------------------------------
      1          6           0       -1.640248    1.670128   -0.615498
      2          6           0       -0.931668    0.532173    0.061556
      3          6           0       -1.237961   -0.118286    1.461989
      4          6           0       -0.015950   -0.952258    0.952551
      5          6           0        0.586227    0.424234    0.486088
      6          6           0        1.683414    0.464519   -0.564851
      7          8           0        2.954726    0.134886   -0.024132
      8          6           0       -0.760158   -0.931477   -0.390749
      9          8           0       -1.063475   -1.652073   -1.291751
     10          1           0       -2.696660    1.428903   -0.771256
     11          1           0       -1.586481    2.586634   -0.018943
     12          1           0       -1.200288    1.878233   -1.596095
     13          1           0       -1.019606    0.528961    2.314862
     14          1           0       -2.191024   -0.638276    1.578032
     15          1           0        0.486687   -1.769930    1.464753
     16          1           0        0.833724    1.074823    1.331263
     17          1           0        1.428732   -0.182657   -1.418542
     18          1           0        1.785455    1.484675   -0.951419
     19          1           0        2.927519   -0.788068    0.247896
 ---------------------------------------------------------------------

 SCF Done:  E(RB3LYP) =  -423.151989359     A.U. after    1 cycles

 The electronic state is 1-A.
 Alpha  occ. eigenvalues --  -19.14013 -19.13701 -10.27367 -10.23277 -10.21943
 Alpha  occ. eigenvalues --  -10.21363 -10.21169 -10.21166 -10.18982  -1.04986
 Alpha  occ. eigenvalues --   -1.02091  -0.92661  -0.74376  -0.73176  -0.64967
 Alpha  occ. eigenvalues --   -0.62119  -0.61627  -0.51671  -0.49268  -0.48400
 Alpha  occ. eigenvalues --   -0.45906  -0.44904  -0.44016  -0.43494  -0.41017
 Alpha  occ. eigenvalues --   -0.39575  -0.37986  -0.35352  -0.34976  -0.33327
 Alpha  occ. eigenvalues --   -0.32577  -0.32080  -0.27074  -0.24110
 Alpha virt. eigenvalues --    0.01010   0.06266   0.08971   0.11211   0.12539
 Alpha virt. eigenvalues --    0.13038   0.13369   0.13681   0.14595   0.15312
 Alpha virt. eigenvalues --    0.15658   0.17766   0.18107   0.19800   0.21318

 Mulliken charges:
               1
     1  C   -0.519624
     2  C    0.175739
     3  C   -0.275153
     4  C   -0.192786
     5  C   -0.031428
     6  C   -0.121704
     7  O   -0.413910
     8  C    0.413709
     9  O   -0.335143
    10  H    0.134931
    11  H    0.126009
    12  H    0.134540
    13  H    0.108833
    14  H    0.112919
    15  H    0.089679
    16  H    0.084726
    17  H    0.108206
    18  H    0.114843
    19  H    0.285613
 Sum of Mulliken charges =   0.00000

 Dipole moment (field-independent basis, Debye):
    X=             -0.5491    Y=              1.1234    Z=              1.9861  Tot=              2.3469
 Quadrupole moment (field-independent basis, Debye-Ang):
   XX=            -58.0575   YY=            -54.0269   ZZ=            -54.5472
   XY=             -6.2176   XZ=             -2.0501   YZ=             -4.5634

  Exact polarizability:  79.363  -1.304  75.337   1.188  -0.513  73.551
 Approx polarizability: 110.439   1.915 114.795   5.420   6.129 115.320

                      1                      2                      3
                      A                      A                      A
 Frequencies --     76.0795               139.1149               151.1990
 Red. masses --      3.8869                 5.0508                 1.5490
 Frc consts  --      0.0133                 0.0576                 0.0209
 IR Inten    --      3.8015                 1.5281                 0.7583

                      4                      5                      6
                      A                      A                      A
 Frequencies --    169.7336               207.2334               265.6731
 Red. masses --      1.4644                 3.4560                 2.1899
 Frc consts  --      0.0249                 0.0874                 0.0911
 IR Inten    --      1.3387                 2.5723                12.2904

                      7                      8                      9
                      A                      A                      A
 Frequencies --    291.2101               343.0733               446.3906
 Red. masses --      1.7721                 1.8124                 3.7937
 Frc consts  --      0.0885                 0.1257                 0.4454
 IR Inten    --     54.1669                43.5600                 2.7925

                     10                     11                     12
                      A                      A                      A
 Frequencies --    482.7248               537.3383               667.1636
 Red. masses --      3.0518                 2.9549                 3.7327
 Frc consts  --      0.4190                 0.5027                 0.9789
 IR Inten    --      0.4802                 2.5024                 0.5284

                     13                     14                     15
                      A                      A                      A
 Frequencies --    712.9703               749.6942               789.9740
 Red. masses --      3.3812                 3.4326                 4.2512
 Frc consts  --      1.0127                 1.1367                 1.5631
 IR Inten    --      3.2370                 0.3444                11.9548

                     16                     17                     18
                      A                      A                      A
 Frequencies --    811.9287               862.5429               896.6211
 Red. masses --      3.6882                 2.5936                 2.3399
 Frc consts  --      1.4325                 1.1369                 1.1083
 IR Inten    --      9.4448                 5.4353                 0.8972

                     19                     20                     21
                      A                      A                      A
 Frequencies --    978.5148              1001.7453              1024.4854
 Red. masses --      1.6659                 1.4488                 1.3308
 Frc consts  --      0.9398                 0.8566                 0.8229
 IR Inten    --     27.1660                23.0287                10.8476

                     22                     23                     24
                      A                      A                      A
 Frequencies --   1044.1432              1051.1562              1070.2308
 Red. masses --      1.5153                 1.4456                 4.3668
 Frc consts  --      0.9733                 0.9411                 2.9469
 IR Inten    --      1.3852                19.3906                62.5807

                     25                     26                     27
                      A                      A                      A
 Frequencies --   1095.5548              1145.0622              1170.8076
 Red. masses --      1.7033                 2.2871                 1.6390
 Frc consts  --      1.2045                 1.7668                 1.3237
 IR Inten    --      9.2303                 9.7125                 1.8341

                     28                     29                     30
                      A                      A                      A
 Frequencies --   1181.2111              1207.4914              1216.5701
 Red. masses --      1.6979                 1.7920                 1.5246
 Frc consts  --      1.3958                 1.5394                 1.3295
 IR Inten    --      1.5415                 0.6709                 5.2055

                     31                     32                     33
                      A                      A                      A
 Frequencies --   1234.5355              1346.4519              1357.5244
 Red. masses --      1.6533                 2.1751                 1.5896
 Frc consts  --      1.4846                 2.3233                 1.7259
 IR Inten    --      5.5546                 2.0165                 2.4278

                     34                     35                     36
                      A                      A                      A
 Frequencies --   1404.1827              1413.9250              1432.0444
 Red. masses --      1.1863                 1.4000                 1.4107
 Frc consts  --      1.3782                 1.6490                 1.7046
 IR Inten    --     29.1470                 1.3240                29.6434

                     37                     38                     39
                      A                      A                      A
 Frequencies --   1487.5454              1489.1414              1502.8732
 Red. masses --      1.0469                 1.0453                 1.0839
 Frc consts  --      1.3649                 1.3657                 1.4424
 IR Inten    --      5.5606                 4.7437                 1.2909

                     40                     41                     42
                      A                      A                      A
 Frequencies --   1515.6373              1907.4970              2989.1975
 Red. masses --      1.1329                12.2824                 1.0682
 Frc consts  --      1.5334                26.3306                 5.6235
 IR Inten    --      0.4888               335.8002                30.1457

                     43                     44                     45
                      A                      A                      A
 Frequencies --   3034.8412              3057.6551              3061.2010
 Red. masses --      1.0353                 1.0849                 1.0539
 Frc consts  --      5.6183                 5.9762                 5.8189
 IR Inten    --     21.1222                10.5315                31.8344

                     46                     47                     48
                      A                      A                      A
 Frequencies --   3071.4989              3102.9256              3105.3119
 Red. masses --      1.0938                 1.1013                 1.1008
 Frc consts  --      6.0798                 6.2472                 6.2542
 IR Inten    --     35.8278                14.2191                13.2819

                     49                     50                     51
                      A                      A                      A
 Frequencies --   3132.7612              3143.8653              3816.3383
 Red. masses --      1.1122                 1.0933                 1.0662
 Frc consts  --      6.4312                 6.3668                 9.1494
 IR Inten    --     22.7653                26.2179                15.5219

 - Thermochemistry -
 -------------------
 Temperature   298.150 Kelvin.  Pressure   1.00000 Atm.
 Atom     1 has atomic number  6 and mass  12.00000

 Molecular mass:   126.06808 amu.
 Principal axes and moments of inertia in atomic units:
                           1         2         3
     Eigenvalues --   788.473291391.376171514.62191
           X            0.99836  -0.05688  -0.00615
           Y            0.05484   0.98200  -0.18073
           Z            0.01632   0.18010   0.98351
 This molecule is an asymmetric top.
 Rotational symmetry number  1.
 Warning -- assumption of classical behavior for rotation
           may cause significant error
 Rotational temperatures (Kelvin)      0.10985     0.06225     0.05719
 Rotational constants (GHZ):           2.28891     1.29709     1.19155
 Zero-point vibrational energy     415071.8 (Joules/Mol)
                                   99.20455 (Kcal/Mol)
 Warning -- explicit consideration of  11 degrees of freedom as
           vibrations may cause significant error
 Vibrational temperatures:    109.46   200.16   217.54   244.21   298.16
          (Kelvin)            382.24   418.99   493.61   642.26   694.53
                              773.11   959.90  1025.80  1078.64  1136.60
                             1168.18  1241.01  1290.04  1407.86  1441.29
                             1474.00  1502.29  1512.38  1539.82  1576.26
                             1647.49  1684.53  1699.50  1737.31  1750.37
                             1776.22  1937.24  1953.17  2020.30  2034.32
                             2060.39  2140.24  2142.54  2162.30  2180.66
                             2744.46  4300.78  4366.45  4399.28  4404.38
                             4419.20  4464.41  4467.85  4507.34  4523.32
                             5490.85

 Zero-point correction=                           0.158093 (Hartree/Particle)
 Thermal correction to Energy=                    0.167127
 Thermal correction to Enthalpy=                  0.168071
 Thermal correction to Gibbs Free Energy=         0.124253
 Sum of electronic and zero-point Energies=           -422.993897
 Sum of electronic and thermal Energies=              -422.984863
 Sum of electronic and thermal Enthalpies=            -422.983918
 Sum of electronic and thermal Free Energies=         -423.027736

                     E (Thermal)             CV                S
                      KCal/Mol        Cal/Mol-Kelvin    Cal/Mol-Kelvin
 Total                  104.874             33.589             92.222
 Electronic               0.000              0.000              0.000
 Translational            0.889              2.981             40.409
 Rotational               0.889              2.981             28.898
 Vibrational            103.096             27.628             22.916
 Vibration     1          0.599              1.965              3.990
 Vibration     2          0.615              1.914              2.816
 Vibration     3          0.619              1.901              2.657
 Vibration     4          0.625              1.880              2.438
 Vibration     5          0.641              1.830              2.068
 Vibration     6          0.671              1.736              1.624
 Vibration     7          0.687              1.690              1.467
 Vibration     8          0.722              1.589              1.198
 Vibration     9          0.806              1.369              0.807
 Vibration    10          0.839              1.288              0.703
 Vibration    11          0.892              1.167              0.571

 Optimization completed.
    -- Stationary point found.
 Normal termination of Gaussian 09 at Tue Jan 28 14:52:58 2020.
