 Gaussian 09, Revision D.01,
 Gaussian 09:  ES64L-G09RevD.01 24-Apr-2013

 -----------------------------
 # b3lyp 6-31G(2df,p) opt Freq
 -----------------------------

 -----
 titel
 -----
 Symbolic Z-matrix:
 Charge =  0 Multiplicity = 1

 SCF Done:  E(RB3LYP) =  -423.148331605     A.U. after   14 cycles
 SCF Done:  E(RB3LYP) =  -423.148331592     A.U. after    7 cycles
 SCF Done:  E(RB3LYP) =  -423.148330791     A.U. after    7 cycles
 SCF Done:  E(RB3LYP) =  -423.148331831     A.U. after    7 cycles
 Optimization completed.
    -- Stationary point found.
 Normal termination of Gaussian 09 at Tue Jan 28 04:15:08 2020.

 ----------------------------------------------------------------------
 #N Geom=AllCheck Guess=TCheck SCRF=Check GenChk RB3LYP/6-31G(2df,p) Fr
 eq
 ----------------------------------------------------------------------

 Structure from the checkpoint file:  "/scratch/puck/g09_535c66e2-3b9d-47cd-ae8f-dcd46c5e8ba6/Gau-93521.chk"
 -----
 titel
 -----
 Charge =  0 Multiplicity = 1

                         Standard orientation:
 ---------------------------------------------------------------------
 Center     Atomic      Atomic             Coordinates (Angstroms)
 Number     Number       Type             X           Y           Z
 ---------------------------------------------------------------------
      1          6           0        2.187199   -0.000017    1.292504
      2          6           0        1.834472    0.000015   -0.199335
      3          6           0        1.007937   -1.233774   -0.594140
      4          8           0       -0.300442   -1.168969   -0.031106
      5          6           0       -0.968704    0.000001   -0.446194
      6          8           0       -0.300457    1.168970   -0.031089
      7          6           0        1.007923    1.233795   -0.594118
      8          6           0       -2.315762   -0.000014    0.118315
      9          6           0       -3.437019   -0.000019    0.544082
     10          1           0        1.279822   -0.000139    1.900827
     11          1           0        2.775269   -0.884939    1.556515
     12          1           0        2.775088    0.884997    1.556610
     13          1           0        2.755830    0.000028   -0.796446
     14          1           0        0.934379   -1.305545   -1.692405
     15          1           0        1.453008   -2.159462   -0.220100
     16          1           0       -1.024205    0.000008   -1.554313
     17          1           0        0.934366    1.305576   -1.692383
     18          1           0        1.452983    2.159485   -0.220069
     19          1           0       -4.425621    0.000066    0.932640
 ---------------------------------------------------------------------

 SCF Done:  E(RB3LYP) =  -423.148331831     A.U. after    1 cycles

 The electronic state is 1-A.
 Alpha  occ. eigenvalues --  -19.15034 -19.15034 -10.30196 -10.23473 -10.23473
 Alpha  occ. eigenvalues --  -10.19518 -10.18490 -10.18206 -10.17412  -1.08104
 Alpha  occ. eigenvalues --   -1.01031  -0.81729  -0.75943  -0.70411  -0.68172
 Alpha  occ. eigenvalues --   -0.66094  -0.57106  -0.54877  -0.50889  -0.50283
 Alpha  occ. eigenvalues --   -0.47717  -0.47413  -0.45860  -0.41986  -0.40577
 Alpha  occ. eigenvalues --   -0.38438  -0.36863  -0.35132  -0.32809  -0.32390
 Alpha  occ. eigenvalues --   -0.28171  -0.28125  -0.27087  -0.26243
 Alpha virt. eigenvalues --    0.03475   0.03932   0.08310   0.11960   0.12384
 Alpha virt. eigenvalues --    0.13598   0.13705   0.14748   0.14822   0.15820
 Alpha virt. eigenvalues --    0.17015   0.18337   0.18713   0.20179   0.22913

 Mulliken charges:
               1
     1  C   -0.387723
     2  C   -0.001100
     3  C   -0.084441
     4  O   -0.251735
     5  C    0.033944
     6  O   -0.251733
     7  C   -0.084440
     8  C    0.290246
     9  C   -0.388356
    10  H    0.145882
    11  H    0.110902
    12  H    0.110901
    13  H    0.074772
    14  H    0.089004
    15  H    0.112452
    16  H    0.080914
    17  H    0.089003
    18  H    0.112452
    19  H    0.199056
 Sum of Mulliken charges =   0.00000

 Dipole moment (field-independent basis, Debye):
    X=              1.4302    Y=              0.0001    Z=             -1.2157  Tot=              1.8771
 Quadrupole moment (field-independent basis, Debye-Ang):
   XX=            -45.4234   YY=            -55.4409   ZZ=            -52.3393
   XY=             -0.0004   XZ=             -2.1521   YZ=              0.0001

  Exact polarizability: 101.968   0.000  64.619  -6.547   0.000  66.151
 Approx polarizability: 138.330   0.000  94.638 -16.140   0.000  98.639

                      1                      2                      3
                      A                      A                      A
 Frequencies --     87.2776               151.8027               186.6160
 Red. masses --      3.7005                 3.8251                 1.1290
 Frc consts  --      0.0166                 0.0519                 0.0232
 IR Inten    --      0.9109                 2.8565                 0.8358

                      4                      5                      6
                      A                      A                      A
 Frequencies --    205.3862               226.1498               310.8517
 Red. masses --      3.5846                 3.2287                 4.1656
 Frc consts  --      0.0891                 0.0973                 0.2372
 IR Inten    --      4.4355                 0.4750                 0.1761

                      7                      8                      9
                      A                      A                      A
 Frequencies --    380.5635               406.9144               466.7252
 Red. masses --      1.8808                 2.1354                 5.4214
 Frc consts  --      0.1605                 0.2083                 0.6958
 IR Inten    --      0.0376                 0.8428                 1.8585

                     10                     11                     12
                      A                      A                      A
 Frequencies --    485.8795               536.0672               621.5022
 Red. masses --      4.4824                 6.1316                 6.8387
 Frc consts  --      0.6235                 1.0382                 1.5564
 IR Inten    --      0.4517                 2.6633                 1.7713

                     13                     14                     15
                      A                      A                      A
 Frequencies --    650.5814               674.4902               749.8299
 Red. masses --      1.2497                 1.2651                 2.6951
 Frc consts  --      0.3116                 0.3391                 0.8928
 IR Inten    --     38.5675                31.8913                 1.0069

                     16                     17                     18
                      A                      A                      A
 Frequencies --    795.4598               916.9483               939.9595
 Red. masses --      3.3403                 2.3517                 3.2286
 Frc consts  --      1.2453                 1.1650                 1.6807
 IR Inten    --      2.8845                 0.0125                22.6897

                     19                     20                     21
                      A                      A                      A
 Frequencies --    942.3048               985.9838               997.6089
 Red. masses --      1.5718                 2.6721                 2.2291
 Frc consts  --      0.8223                 1.5305                 1.3071
 IR Inten    --     11.2959                24.7027                10.3511

                     22                     23                     24
                      A                      A                      A
 Frequencies --   1002.6830              1027.4825              1086.1613
 Red. masses --      2.4212                 5.1566                 2.1444
 Frc consts  --      1.4342                 3.2075                 1.4906
 IR Inten    --     44.9210                85.2379                39.5472

                     25                     26                     27
                      A                      A                      A
 Frequencies --   1144.7287              1148.6324              1185.5366
 Red. masses --      1.6187                 3.6139                 2.4346
 Frc consts  --      1.2498                 2.8092                 2.0161
 IR Inten    --      4.8445               199.5294                61.0249

                     28                     29                     30
                      A                      A                      A
 Frequencies --   1259.8588              1285.6661              1327.7380
 Red. masses --      1.1962                 1.1133                 1.7562
 Frc consts  --      1.1187                 1.0842                 1.8241
 IR Inten    --     17.8501                 8.9587                 2.5991

                     31                     32                     33
                      A                      A                      A
 Frequencies --   1366.1141              1369.0778              1393.6778
 Red. masses --      1.5108                 1.1597                 1.2858
 Frc consts  --      1.6612                 1.2807                 1.4715
 IR Inten    --     28.4650                 0.0002                11.8277

                     34                     35                     36
                      A                      A                      A
 Frequencies --   1401.5234              1409.8836              1426.7889
 Red. masses --      1.2279                 1.4875                 1.3357
 Frc consts  --      1.4211                 1.7421                 1.6020
 IR Inten    --      5.3092               107.3609                10.0160

                     37                     38                     39
                      A                      A                      A
 Frequencies --   1489.1601              1489.6356              1503.5052
 Red. masses --      1.0571                 1.0918                 1.0537
 Frc consts  --      1.3812                 1.4275                 1.4034
 IR Inten    --      1.6117                 3.9858                 4.9204

                     40                     41                     42
                      A                      A                      A
 Frequencies --   1506.2789              2259.7583              2889.4724
 Red. masses --      1.0870                 5.8631                 1.0785
 Frc consts  --      1.4531                17.6402                 5.3053
 IR Inten    --      8.2148                15.9759                49.1315

                     43                     44                     45
                      A                      A                      A
 Frequencies --   2962.6289              2970.6964              3027.3756
 Red. masses --      1.0702                 1.0706                 1.0815
 Frc consts  --      5.5344                 5.5667                 5.8400
 IR Inten    --     19.7849                90.6173                44.4065

                     46                     47                     48
                      A                      A                      A
 Frequencies --   3039.1700              3091.7434              3094.4531
 Red. masses --      1.0389                 1.0931                 1.0937
 Frc consts  --      5.6537                 6.1564                 6.1703
 IR Inten    --     22.7340                19.4303                23.0476

                     49                     50                     51
                      A                      A                      A
 Frequencies --   3101.3214              3130.4554              3504.3905
 Red. masses --      1.1007                 1.0997                 1.1656
 Frc consts  --      6.2378                 6.3493                 8.4339
 IR Inten    --     43.5476                16.3304                58.4816

 - Thermochemistry -
 -------------------
 Temperature   298.150 Kelvin.  Pressure   1.00000 Atm.
 Atom     1 has atomic number  6 and mass  12.00000

 Molecular mass:   126.06808 amu.
 Principal axes and moments of inertia in atomic units:
                           1         2         3
     Eigenvalues --   528.962291596.026251743.14553
           X            0.99997   0.00000   0.00736
           Y            0.00000   1.00000   0.00000
           Z           -0.00736   0.00000   0.99997
 This molecule is an asymmetric top.
 Rotational symmetry number  1.
 Warning -- assumption of classical behavior for rotation
           may cause significant error
 Rotational temperatures (Kelvin)      0.16374     0.05427     0.04969
 Rotational constants (GHZ):           3.41185     1.13077     1.03534
 Zero-point vibrational energy     416387.2 (Joules/Mol)
                                   99.51892 (Kcal/Mol)
 Warning -- explicit consideration of  11 degrees of freedom as
           vibrations may cause significant error
 Vibrational temperatures:    125.57   218.41   268.50   295.50   325.38
          (Kelvin)            447.25   547.55   585.46   671.51   699.07
                              771.28   894.20   936.04   970.44  1078.84
                             1144.49  1319.28  1352.39  1355.76  1418.61
                             1435.33  1442.64  1478.32  1562.74  1647.01
                             1652.62  1705.72  1812.65  1849.78  1910.32
                             1965.53  1969.80  2005.19  2016.48  2028.51
                             2052.83  2142.57  2143.25  2163.21  2167.20
                             3251.28  4157.30  4262.56  4274.16  4355.71
                             4372.68  4448.32  4452.22  4462.10  4504.02
                             5042.03

 Zero-point correction=                           0.158594 (Hartree/Particle)
 Thermal correction to Energy=                    0.167258
 Thermal correction to Enthalpy=                  0.168202
 Thermal correction to Gibbs Free Energy=         0.125469
 Sum of electronic and zero-point Energies=           -422.989738
 Sum of electronic and thermal Energies=              -422.981074
 Sum of electronic and thermal Enthalpies=            -422.980130
 Sum of electronic and thermal Free Energies=         -423.022863

                     E (Thermal)             CV                S
                      KCal/Mol        Cal/Mol-Kelvin    Cal/Mol-Kelvin
 Total                  104.956             33.167             89.938
 Electronic               0.000              0.000              0.000
 Translational            0.889              2.981             40.409
 Rotational               0.889              2.981             28.778
 Vibrational            103.178             27.206             20.752
 Vibration     1          0.601              1.958              3.720
 Vibration     2          0.619              1.901              2.650
 Vibration     3          0.632              1.858              2.261
 Vibration     4          0.640              1.832              2.084
 Vibration     5          0.650              1.801              1.909
 Vibration     6          0.700              1.653              1.358
 Vibration     7          0.750              1.512              1.037
 Vibration     8          0.772              1.455              0.938
 Vibration     9          0.824              1.324              0.747
 Vibration    10          0.842              1.281              0.694
 Vibration    11          0.891              1.170              0.574

 Optimization completed.
    -- Stationary point found.
 Normal termination of Gaussian 09 at Tue Jan 28 04:53:52 2020.
