 Gaussian 09, Revision D.01,
 Gaussian 09:  ES64L-G09RevD.01 24-Apr-2013

 -----------------------------
 # b3lyp 6-31G(2df,p) opt Freq
 -----------------------------

 -----
 titel
 -----
 Symbolic Z-matrix:
 Charge =  0 Multiplicity = 1

 SCF Done:  E(RB3LYP) =  -423.143132351     A.U. after   13 cycles
 Optimization completed.
    -- Stationary point found.
 Normal termination of Gaussian 09 at Mon Jan 27 22:01:01 2020.

 ----------------------------------------------------------------------
 #N Geom=AllCheck Guess=TCheck SCRF=Check GenChk RB3LYP/6-31G(2df,p) Fr
 eq
 ----------------------------------------------------------------------

 Structure from the checkpoint file:  "/scratch/puck/g09_bb10aa6b-7b08-4abb-b0d6-7dfb7f4223c1/Gau-26423.chk"
 -----
 titel
 -----
 Charge =  0 Multiplicity = 1

                         Standard orientation:
 ---------------------------------------------------------------------
 Center     Atomic      Atomic             Coordinates (Angstroms)
 Number     Number       Type             X           Y           Z
 ---------------------------------------------------------------------
      1          6           0        2.494600    0.296485    0.186124
      2          6           0        0.998523    0.150046   -0.004927
      3          6           0        0.281582    1.471282   -0.248171
      4          8           0       -1.122701    1.396682   -0.409496
      5          6           0       -1.795312    0.525107    0.473870
      6          6           0       -1.159222   -0.858378    0.466842
      7          8           0       -0.826665   -1.254942   -0.897423
      8          6           0        0.559827   -1.181867   -0.580195
      9          6           0        0.321777   -0.876352    0.877770
     10          1           0        2.722259    0.949634    1.036528
     11          1           0        2.965672   -0.672716    0.379757
     12          1           0        2.967542    0.726592   -0.703975
     13          1           0        0.531269    2.138637    0.597748
     14          1           0        0.653557    1.949286   -1.161578
     15          1           0       -1.807215    0.908377    1.509928
     16          1           0       -2.827328    0.483595    0.112351
     17          1           0       -1.788422   -1.609425    0.954012
     18          1           0        1.227514   -1.873243   -1.082780
     19          1           0        0.739426   -1.292593    1.785480
 ---------------------------------------------------------------------

 SCF Done:  E(RB3LYP) =  -423.143132351     A.U. after    1 cycles

 The electronic state is 1-A.
 Alpha  occ. eigenvalues --  -19.13578 -19.13485 -10.23918 -10.23832 -10.22795
 Alpha  occ. eigenvalues --  -10.22687 -10.20235 -10.19238 -10.18787  -1.05833
 Alpha  occ. eigenvalues --   -1.02185  -0.85114  -0.75971  -0.71506  -0.68775
 Alpha  occ. eigenvalues --   -0.62543  -0.56479  -0.53961  -0.51221  -0.48149
 Alpha  occ. eigenvalues --   -0.47991  -0.46251  -0.44283  -0.42159  -0.39565
 Alpha  occ. eigenvalues --   -0.39163  -0.38597  -0.37336  -0.34366  -0.33665
 Alpha  occ. eigenvalues --   -0.29771  -0.27018  -0.24777  -0.22583
 Alpha virt. eigenvalues --    0.07921   0.09204   0.09588   0.11222   0.12606
 Alpha virt. eigenvalues --    0.12824   0.15083   0.15843   0.16358   0.16577
 Alpha virt. eigenvalues --    0.17466   0.18337   0.19041   0.20219   0.22106

 Mulliken charges:
               1
     1  C   -0.468077
     2  C    0.246273
     3  C   -0.128245
     4  O   -0.241097
     5  C   -0.092727
     6  C    0.073282
     7  O   -0.293310
     8  C    0.065960
     9  C   -0.200446
    10  H    0.121949
    11  H    0.120235
    12  H    0.123892
    13  H    0.082129
    14  H    0.110406
    15  H    0.086099
    16  H    0.115377
    17  H    0.084678
    18  H    0.102585
    19  H    0.091037
 Sum of Mulliken charges =   0.00000

 Dipole moment (field-independent basis, Debye):
    X=              1.5331    Y=             -0.3800    Z=              2.0345  Tot=              2.5757
 Quadrupole moment (field-independent basis, Debye-Ang):
   XX=            -50.3943   YY=            -54.7874   ZZ=            -53.6842
   XY=              0.6652   XZ=             -3.7588   YZ=             -0.9737

  Exact polarizability:  85.159   3.260  72.257  -4.093  -0.125  65.755
 Approx polarizability: 113.641   5.487 104.396  -3.613   1.260 108.202

                      1                      2                      3
                      A                      A                      A
 Frequencies --    175.9185               210.3973               235.3595
 Red. masses --      2.2393                 1.1295                 2.5915
 Frc consts  --      0.0408                 0.0295                 0.0846
 IR Inten    --      1.1800                 0.5632                 3.5637

                      4                      5                      6
                      A                      A                      A
 Frequencies --    294.9452               306.2713               359.6020
 Red. masses --      2.5551                 3.6576                 2.6652
 Frc consts  --      0.1310                 0.2021                 0.2031
 IR Inten    --      0.5633                 0.4808                 3.2337

                      7                      8                      9
                      A                      A                      A
 Frequencies --    417.5815               478.7648               554.4077
 Red. masses --      2.6900                 5.8308                 4.0489
 Frc consts  --      0.2764                 0.7875                 0.7332
 IR Inten    --      1.2276                 1.4181                 3.8335

                     10                     11                     12
                      A                      A                      A
 Frequencies --    682.3737               738.5489               767.0438
 Red. masses --      4.2123                 4.0679                 3.2720
 Frc consts  --      1.1556                 1.3073                 1.1343
 IR Inten    --     11.8596                 5.1911                20.2171

                     13                     14                     15
                      A                      A                      A
 Frequencies --    829.9643               875.5997               890.3351
 Red. masses --      1.4500                 2.7452                 2.8593
 Frc consts  --      0.5885                 1.2400                 1.3354
 IR Inten    --      6.0827                19.3603                14.3425

                     16                     17                     18
                      A                      A                      A
 Frequencies --    901.2659               931.3696               983.6620
 Red. masses --      2.4619                 2.1980                 1.6057
 Frc consts  --      1.1782                 1.1234                 0.9154
 IR Inten    --     12.1457                 3.6464                 7.6471

                     19                     20                     21
                      A                      A                      A
 Frequencies --   1021.6725              1024.7422              1039.1105
 Red. masses --      1.7301                 2.4130                 1.5655
 Frc consts  --      1.0640                 1.4929                 0.9959
 IR Inten    --      2.8354                10.7727                 1.6116

                     22                     23                     24
                      A                      A                      A
 Frequencies --   1044.4721              1070.2169              1103.6191
 Red. masses --      2.6413                 1.8737                 3.0322
 Frc consts  --      1.6977                 1.2645                 2.1759
 IR Inten    --     44.1883                 2.5639                15.9845

                     25                     26                     27
                      A                      A                      A
 Frequencies --   1139.0960              1153.9848              1184.3022
 Red. masses --      2.2435                 4.2843                 2.8517
 Frc consts  --      1.7151                 3.3614                 2.3566
 IR Inten    --     27.6882                46.0165                23.3734

                     28                     29                     30
                      A                      A                      A
 Frequencies --   1234.0765              1251.6089              1276.1330
 Red. masses --      1.2616                 1.4293                 1.6030
 Frc consts  --      1.1320                 1.3192                 1.5381
 IR Inten    --      3.7949                 8.9624                 1.3650

                     31                     32                     33
                      A                      A                      A
 Frequencies --   1295.6661              1326.2259              1340.0085
 Red. masses --      1.4535                 1.5058                 1.6217
 Frc consts  --      1.4376                 1.5605                 1.7157
 IR Inten    --     18.7626                 1.6495                 8.1948

                     34                     35                     36
                      A                      A                      A
 Frequencies --   1385.3782              1411.6536              1415.0171
 Red. masses --      1.5129                 2.0589                 1.2821
 Frc consts  --      1.7108                 2.4174                 1.5125
 IR Inten    --      0.2056                 7.1885                 0.0978

                     37                     38                     39
                      A                      A                      A
 Frequencies --   1440.8654              1485.8661              1490.6788
 Red. masses --      1.5070                 1.0862                 1.0521
 Frc consts  --      1.8434                 1.4129                 1.3775
 IR Inten    --     13.7733                 2.6744                 2.6977

                     40                     41                     42
                      A                      A                      A
 Frequencies --   1495.9494              1507.1928              2929.3421
 Red. masses --      1.0912                 1.1186                 1.0719
 Frc consts  --      1.4388                 1.4971                 5.4194
 IR Inten    --      2.0473                 4.9987                70.5449

                     43                     44                     45
                      A                      A                      A
 Frequencies --   2953.4128              3023.7500              3055.9897
 Red. masses --      1.0707                 1.0353                 1.0887
 Frc consts  --      5.5026                 5.5773                 5.9906
 IR Inten    --     67.6496                34.2736                34.4824

                     46                     47                     48
                      A                      A                      A
 Frequencies --   3062.5654              3082.3859              3085.4820
 Red. masses --      1.0881                 1.0911                 1.1011
 Frc consts  --      6.0132                 6.1076                 6.1760
 IR Inten    --     36.8074                39.5710                24.1221

                     49                     50                     51
                      A                      A                      A
 Frequencies --   3097.5436              3170.6471              3191.4947
 Red. masses --      1.1007                 1.0900                 1.0976
 Frc consts  --      6.2225                 6.4559                 6.5872
 IR Inten    --     20.1791                22.0835                12.1101

 - Thermochemistry -
 -------------------
 Temperature   298.150 Kelvin.  Pressure   1.00000 Atm.
 Atom     1 has atomic number  6 and mass  12.00000

 Molecular mass:   126.06808 amu.
 Principal axes and moments of inertia in atomic units:
                           1         2         3
     Eigenvalues --   668.59828 954.005031292.48346
           X            0.99958   0.02238  -0.01827
           Y           -0.02260   0.99967  -0.01195
           Z            0.01799   0.01236   0.99976
 This molecule is an asymmetric top.
 Rotational symmetry number  1.
 Warning -- assumption of classical behavior for rotation
           may cause significant error
 Rotational temperatures (Kelvin)      0.12955     0.09079     0.06701
 Rotational constants (GHZ):           2.69929     1.89175     1.39634
 Zero-point vibrational energy     421226.4 (Joules/Mol)
                                  100.67553 (Kcal/Mol)
 Warning -- explicit consideration of   9 degrees of freedom as
           vibrations may cause significant error
 Vibrational temperatures:    253.11   302.71   338.63   424.36   440.66
          (Kelvin)            517.39   600.81   688.83   797.67   981.78
                             1062.61  1103.60  1194.13  1259.79  1280.99
                             1296.72  1340.03  1415.27  1469.96  1474.37
                             1495.05  1502.76  1539.80  1587.86  1638.90
                             1660.32  1703.94  1775.56  1800.78  1836.07
                             1864.17  1908.14  1927.97  1993.25  2031.05
                             2035.89  2073.08  2137.83  2144.75  2152.33
                             2168.51  4214.66  4249.30  4350.50  4396.88
                             4406.34  4434.86  4439.31  4456.67  4561.85
                             4591.84

 Zero-point correction=                           0.160437 (Hartree/Particle)
 Thermal correction to Energy=                    0.167825
 Thermal correction to Enthalpy=                  0.168769
 Thermal correction to Gibbs Free Energy=         0.129081
 Sum of electronic and zero-point Energies=           -422.982696
 Sum of electronic and thermal Energies=              -422.975308
 Sum of electronic and thermal Enthalpies=            -422.974363
 Sum of electronic and thermal Free Energies=         -423.014052

                     E (Thermal)             CV                S
                      KCal/Mol        Cal/Mol-Kelvin    Cal/Mol-Kelvin
 Total                  105.312             29.836             83.531
 Electronic               0.000              0.000              0.000
 Translational            0.889              2.981             40.409
 Rotational               0.889              2.981             28.202
 Vibrational            103.534             23.874             14.921
 Vibration     1          0.628              1.872              2.371
 Vibration     2          0.643              1.825              2.040
 Vibration     3          0.655              1.787              1.838
 Vibration     4          0.689              1.683              1.445
 Vibration     5          0.697              1.662              1.382
 Vibration     6          0.734              1.555              1.124
 Vibration     7          0.781              1.432              0.900
 Vibration     8          0.835              1.297              0.713
 Vibration     9          0.910              1.130              0.535

 Optimization completed.
    -- Stationary point found.
 Normal termination of Gaussian 09 at Mon Jan 27 22:50:57 2020.
