 Gaussian 09, Revision D.01,
 Gaussian 09:  ES64L-G09RevD.01 24-Apr-2013

 -----------------------------
 # b3lyp 6-31G(2df,p) opt Freq
 -----------------------------

 -----
 titel
 -----
 Symbolic Z-matrix:
 Charge =  0 Multiplicity = 1

 SCF Done:  E(RB3LYP) =  -423.153420299     A.U. after   14 cycles
 SCF Done:  E(RB3LYP) =  -423.153419213     A.U. after    7 cycles
 SCF Done:  E(RB3LYP) =  -423.153420443     A.U. after    7 cycles
 SCF Done:  E(RB3LYP) =  -423.153420338     A.U. after    7 cycles
 SCF Done:  E(RB3LYP) =  -423.153420547     A.U. after    7 cycles
 Optimization completed.
    -- Stationary point found.
 Normal termination of Gaussian 09 at Mon Jan 27 16:43:28 2020.

 ----------------------------------------------------------------------
 #N Geom=AllCheck Guess=TCheck SCRF=Check GenChk RB3LYP/6-31G(2df,p) Fr
 eq
 ----------------------------------------------------------------------

 Structure from the checkpoint file:  "/scratch/puck/g09_3c01ddbd-d756-4f73-a7c9-bf569b50bff8/Gau-47347.chk"
 -----
 titel
 -----
 Charge =  0 Multiplicity = 1

                         Standard orientation:
 ---------------------------------------------------------------------
 Center     Atomic      Atomic             Coordinates (Angstroms)
 Number     Number       Type             X           Y           Z
 ---------------------------------------------------------------------
      1          6           0        0.504134    2.049748   -0.657994
      2          6           0        0.499102    0.686420    0.010077
      3          8           0        0.219027    0.894743    1.383348
      4          6           0        1.790923   -0.129618   -0.126670
      5          8           0        1.407139   -1.427715    0.310458
      6          6           0        0.140724   -1.712173   -0.287962
      7          6           0       -0.511040   -0.333041   -0.631909
      8          6           0       -1.884463   -0.189122   -0.187108
      9          6           0       -3.028750   -0.086635    0.166632
     10          1           0        0.750978    1.968396   -1.720465
     11          1           0       -0.480021    2.516264   -0.561784
     12          1           0        1.236954    2.701433   -0.174180
     13          1           0        0.368524    0.054712    1.834635
     14          1           0        2.154132   -0.145241   -1.167320
     15          1           0        2.585432    0.232497    0.529455
     16          1           0        0.274318   -2.313233   -1.197165
     17          1           0       -0.451561   -2.288404    0.426270
     18          1           0       -0.476156   -0.190132   -1.718263
     19          1           0       -4.035712    0.014016    0.487969
 ---------------------------------------------------------------------

 SCF Done:  E(RB3LYP) =  -423.153420547     A.U. after    1 cycles

 The electronic state is 1-A.
 Alpha  occ. eigenvalues --  -19.15132 -19.13604 -10.24722 -10.23841 -10.23127
 Alpha  occ. eigenvalues --  -10.21447 -10.18135 -10.17991 -10.17152  -1.05485
 Alpha  occ. eigenvalues --   -1.01502  -0.81016  -0.76465  -0.72335  -0.69368
 Alpha  occ. eigenvalues --   -0.61989  -0.58533  -0.54208  -0.51316  -0.50120
 Alpha  occ. eigenvalues --   -0.47746  -0.45863  -0.44143  -0.40997  -0.40527
 Alpha  occ. eigenvalues --   -0.38929  -0.37536  -0.37014  -0.34486  -0.32068
 Alpha  occ. eigenvalues --   -0.28670  -0.27288  -0.26390  -0.24625
 Alpha virt. eigenvalues --    0.04199   0.05000   0.08654   0.09908   0.11470
 Alpha virt. eigenvalues --    0.12423   0.13595   0.13625   0.15273   0.15708
 Alpha virt. eigenvalues --    0.16932   0.18102   0.19479   0.19761   0.21390

 Mulliken charges:
               1
     1  C   -0.436857
     2  C    0.388407
     3  O   -0.465910
     4  C   -0.131785
     5  O   -0.266484
     6  C   -0.106453
     7  C   -0.270946
     8  C    0.343425
     9  C   -0.459240
    10  H    0.112405
    11  H    0.141367
    12  H    0.128031
    13  H    0.286533
    14  H    0.086361
    15  H    0.119086
    16  H    0.105363
    17  H    0.124082
    18  H    0.107028
    19  H    0.195587
 Sum of Mulliken charges =   0.00000

 Dipole moment (field-independent basis, Debye):
    X=              0.2047    Y=             -0.2139    Z=             -1.2901  Tot=              1.3236
 Quadrupole moment (field-independent basis, Debye-Ang):
   XX=            -50.6995   YY=            -55.1839   ZZ=            -52.3258
   XY=              2.6454   XZ=             -2.0180   YZ=             -1.5205

  Exact polarizability:  95.244   1.417  71.271  -6.066  -0.052  63.716
 Approx polarizability: 140.006  -1.479  97.517 -12.411   0.707 100.038

                      1                      2                      3
                      A                      A                      A
 Frequencies --     56.2839               133.0544               197.9001
 Red. masses --      3.0037                 3.7014                 2.9305
 Frc consts  --      0.0056                 0.0386                 0.0676
 IR Inten    --      0.2076                 0.1244                 9.5893

                      4                      5                      6
                      A                      A                      A
 Frequencies --    202.3736               215.7793               276.8390
 Red. masses --      3.8726                 1.0856                 2.9544
 Frc consts  --      0.0934                 0.0298                 0.1334
 IR Inten    --      3.6280                 0.6229                 1.7650

                      7                      8                      9
                      A                      A                      A
 Frequencies --    343.8201               370.2970               423.2218
 Red. masses --      3.5148                 3.0340                 2.3167
 Frc consts  --      0.2448                 0.2451                 0.2445
 IR Inten    --      6.1130                 4.9380                 1.2539

                     10                     11                     12
                      A                      A                      A
 Frequencies --    435.7172               493.5092               560.8596
 Red. masses --      1.2340                 4.9276                 4.5002
 Frc consts  --      0.1380                 0.7071                 0.8340
 IR Inten    --     79.6571                 6.3760                 5.5303

                     13                     14                     15
                      A                      A                      A
 Frequencies --    608.2242               623.6273               633.7306
 Red. masses --      3.5207                 1.2863                 1.2272
 Frc consts  --      0.7674                 0.2947                 0.2904
 IR Inten    --     12.6894                30.0966                40.0400

                     16                     17                     18
                      A                      A                      A
 Frequencies --    719.8899               754.7428               866.4670
 Red. masses --      5.0881                 3.0341                 2.5573
 Frc consts  --      1.5536                 1.0183                 1.1312
 IR Inten    --     26.1773                 5.5899                 8.9471

                     19                     20                     21
                      A                      A                      A
 Frequencies --    936.7442               946.1928               957.5700
 Red. masses --      2.2284                 3.6475                 2.1355
 Frc consts  --      1.1521                 1.9240                 1.1537
 IR Inten    --      2.9229                16.9638                29.2686

                     22                     23                     24
                      A                      A                      A
 Frequencies --    998.2854              1047.6891              1057.5643
 Red. masses --      1.7562                 2.1299                 3.5694
 Frc consts  --      1.0312                 1.3775                 2.3521
 IR Inten    --      2.4630                11.5043                39.2129

                     25                     26                     27
                      A                      A                      A
 Frequencies --   1102.1934              1116.0586              1180.7970
 Red. masses --      2.5188                 2.6347                 1.7155
 Frc consts  --      1.8028                 1.9335                 1.4093
 IR Inten    --     33.3501                63.1884                 9.0023

                     28                     29                     30
                      A                      A                      A
 Frequencies --   1189.4589              1236.9010              1251.2706
 Red. masses --      2.0043                 1.3250                 1.2759
 Frc consts  --      1.6707                 1.1944                 1.1770
 IR Inten    --      6.9063                25.9761                 5.1701

                     31                     32                     33
                      A                      A                      A
 Frequencies --   1291.2887              1326.6856              1351.5240
 Red. masses --      1.4486                 1.2543                 1.5103
 Frc consts  --      1.4232                 1.3007                 1.6254
 IR Inten    --     30.6802                19.9905                 4.7730

                     34                     35                     36
                      A                      A                      A
 Frequencies --   1382.0617              1403.7107              1430.9885
 Red. masses --      1.3130                 1.3084                 1.7669
 Frc consts  --      1.4777                 1.5189                 2.1318
 IR Inten    --     12.9416                13.4958                32.2068

                     37                     38                     39
                      A                      A                      A
 Frequencies --   1482.3442              1498.5071              1502.9721
 Red. masses --      1.0551                 1.0644                 1.0798
 Frc consts  --      1.3660                 1.4082                 1.4371
 IR Inten    --      2.1972                 0.0722                 3.2014

                     40                     41                     42
                      A                      A                      A
 Frequencies --   1523.1885              2237.7399              2972.6125
 Red. masses --      1.0905                 5.9622                 1.0701
 Frc consts  --      1.4907                17.5904                 5.5715
 IR Inten    --      1.5845                 3.6293                54.1738

                     43                     44                     45
                      A                      A                      A
 Frequencies --   3011.9195              3036.8588              3046.2683
 Red. masses --      1.0707                 1.0777                 1.0376
 Frc consts  --      5.7227                 5.8558                 5.6732
 IR Inten    --     50.8240                18.9129                18.9524

                     46                     47                     48
                      A                      A                      A
 Frequencies --   3102.7377              3110.2243              3121.4061
 Red. masses --      1.0975                 1.0946                 1.1018
 Frc consts  --      6.2250                 6.2386                 6.3249
 IR Inten    --     21.7490                13.1553                25.1242

                     49                     50                     51
                      A                      A                      A
 Frequencies --   3123.2074              3504.6429              3783.2727
 Red. masses --      1.1019                 1.1616                 1.0653
 Frc consts  --      6.3326                 8.4059                 8.9840
 IR Inten    --     11.9562                70.7893                23.8869

 - Thermochemistry -
 -------------------
 Temperature   298.150 Kelvin.  Pressure   1.00000 Atm.
 Atom     1 has atomic number  6 and mass  12.00000

 Molecular mass:   126.06808 amu.
 Principal axes and moments of inertia in atomic units:
                           1         2         3
     Eigenvalues --   800.132821146.869341539.26032
           X            0.99889   0.04390  -0.01698
           Y           -0.04433   0.99868  -0.02602
           Z            0.01581   0.02674   0.99952
 This molecule is an asymmetric top.
 Rotational symmetry number  1.
 Warning -- assumption of classical behavior for rotation
           may cause significant error
 Rotational temperatures (Kelvin)      0.10825     0.07552     0.05627
 Rotational constants (GHZ):           2.25555     1.57362     1.17247
 Zero-point vibrational energy     413795.6 (Joules/Mol)
                                   98.89952 (Kcal/Mol)
 Warning -- explicit consideration of  13 degrees of freedom as
           vibrations may cause significant error
 Vibrational temperatures:     80.98   191.44   284.73   291.17   310.46
          (Kelvin)            398.31   494.68   532.77   608.92   626.90
                              710.05   806.95   875.10   897.26   911.80
                             1035.76  1085.91  1246.65  1347.76  1361.36
                             1377.73  1436.31  1507.39  1521.60  1585.81
                             1605.76  1698.90  1711.36  1779.62  1800.30
                             1857.87  1908.80  1944.54  1988.48  2019.62
                             2058.87  2132.76  2156.01  2162.44  2191.53
                             3219.60  4276.92  4333.47  4369.36  4382.90
                             4464.14  4474.91  4491.00  4493.59  5042.39
                             5443.28

 Zero-point correction=                           0.157606 (Hartree/Particle)
 Thermal correction to Energy=                    0.166845
 Thermal correction to Enthalpy=                  0.167789
 Thermal correction to Gibbs Free Energy=         0.123788
 Sum of electronic and zero-point Energies=           -422.995814
 Sum of electronic and thermal Energies=              -422.986575
 Sum of electronic and thermal Enthalpies=            -422.985631
 Sum of electronic and thermal Free Energies=         -423.029633

                     E (Thermal)             CV                S
                      KCal/Mol        Cal/Mol-Kelvin    Cal/Mol-Kelvin
 Total                  104.697             35.110             92.609
 Electronic               0.000              0.000              0.000
 Translational            0.889              2.981             40.409
 Rotational               0.889              2.981             28.737
 Vibrational            102.920             29.148             23.464
 Vibration     1          0.596              1.975              4.583
 Vibration     2          0.613              1.920              2.901
 Vibration     3          0.637              1.843              2.153
 Vibration     4          0.639              1.837              2.111
 Vibration     5          0.645              1.817              1.994
 Vibration     6          0.678              1.716              1.553
 Vibration     7          0.723              1.588              1.194
 Vibration     8          0.742              1.533              1.079
 Vibration     9          0.785              1.420              0.881
 Vibration    10          0.796              1.392              0.840
 Vibration    11          0.849              1.264              0.675
 Vibration    12          0.917              1.116              0.522
 Vibration    13          0.967              1.014              0.436

 Optimization completed.
    -- Stationary point found.
 Normal termination of Gaussian 09 at Mon Jan 27 17:26:27 2020.
