 Gaussian 09, Revision D.01,
 Gaussian 09:  ES64L-G09RevD.01 24-Apr-2013

 -----------------------------
 # b3lyp 6-31G(2df,p) opt Freq
 -----------------------------

 -----
 titel
 -----
 Symbolic Z-matrix:
 Charge =  0 Multiplicity = 1

 SCF Done:  E(RB3LYP) =  -423.209747319     A.U. after   13 cycles
 Optimization completed.
    -- Stationary point found.
 Normal termination of Gaussian 09 at Tue Jan 28 08:12:48 2020.

 ----------------------------------------------------------------------
 #N Geom=AllCheck Guess=TCheck SCRF=Check GenChk RB3LYP/6-31G(2df,p) Fr
 eq
 ----------------------------------------------------------------------

 Structure from the checkpoint file:  "/scratch/puck/g09_a4aaccf1-7e03-4e0b-a636-030f2a6c3d7d/Gau-92076.chk"
 -----
 titel
 -----
 Charge =  0 Multiplicity = 1

                         Standard orientation:
 ---------------------------------------------------------------------
 Center     Atomic      Atomic             Coordinates (Angstroms)
 Number     Number       Type             X           Y           Z
 ---------------------------------------------------------------------
      1          6           0        2.378102    1.627298    0.251326
      2          6           0        2.353785    0.279494   -0.493157
      3          6           0        1.205022   -0.601204   -0.031804
      4          8           0        1.379266   -1.588122    0.652412
      5          6           0       -0.170633   -0.186648   -0.457930
      6          6           0       -1.178226   -1.267305   -0.719735
      7          6           0       -1.310345   -0.450479    0.540365
      8          6           0       -2.389696    0.565871    0.604791
      9          8           0       -2.773379    1.208056   -0.345111
     10          1           0        2.503176    1.474838    1.327419
     11          1           0        3.210394    2.241559   -0.102669
     12          1           0        1.455045    2.193631    0.094495
     13          1           0        2.254120    0.459670   -1.570970
     14          1           0        3.281886   -0.270543   -0.319635
     15          1           0       -0.275876    0.724861   -1.034854
     16          1           0       -1.910534   -1.077546   -1.495565
     17          1           0       -0.835320   -2.287838   -0.597260
     18          1           0       -1.014831   -0.927328    1.467770
     19          1           0       -2.843210    0.707057    1.609724
 ---------------------------------------------------------------------

 SCF Done:  E(RB3LYP) =  -423.209747319     A.U. after    1 cycles

 The electronic state is 1-A.
 Alpha  occ. eigenvalues --  -19.14162 -19.13198 -10.27676 -10.27421 -10.21495
 Alpha  occ. eigenvalues --  -10.21469 -10.21220 -10.19798 -10.19378  -1.04927
 Alpha  occ. eigenvalues --   -1.04321  -0.88251  -0.78956  -0.69509  -0.66798
 Alpha  occ. eigenvalues --   -0.62915  -0.56461  -0.54955  -0.50946  -0.48370
 Alpha  occ. eigenvalues --   -0.46297  -0.44746  -0.44010  -0.42179  -0.41289
 Alpha  occ. eigenvalues --   -0.40516  -0.38527  -0.38217  -0.36263  -0.35710
 Alpha  occ. eigenvalues --   -0.32304  -0.30556  -0.26023  -0.25125
 Alpha virt. eigenvalues --   -0.04424  -0.00834   0.08243   0.09874   0.12528
 Alpha virt. eigenvalues --    0.13066   0.13890   0.14673   0.15436   0.16129
 Alpha virt. eigenvalues --    0.16598   0.17525   0.19534   0.21056   0.21413

 Mulliken charges:
               1
     1  C   -0.387235
     2  C   -0.279929
     3  C    0.378749
     4  O   -0.331196
     5  C   -0.108133
     6  C   -0.274164
     7  C   -0.102023
     8  C    0.132217
     9  O   -0.268066
    10  H    0.134788
    11  H    0.128535
    12  H    0.130435
    13  H    0.116010
    14  H    0.123232
    15  H    0.114174
    16  H    0.142967
    17  H    0.145230
    18  H    0.119085
    19  H    0.085324
 Sum of Mulliken charges =   0.00000

 Dipole moment (field-independent basis, Debye):
    X=              0.9081    Y=              0.5306    Z=             -0.0481  Tot=              1.0528
 Quadrupole moment (field-independent basis, Debye-Ang):
   XX=            -56.4014   YY=            -57.4886   ZZ=            -51.6408
   XY=              8.6888   XZ=             -5.4813   YZ=              3.4407

  Exact polarizability:  92.133  -2.337  74.975  -2.220  -1.408  68.562
 Approx polarizability: 118.899 -10.063 115.611   1.572 -11.418 110.840

                      1                      2                      3
                      A                      A                      A
 Frequencies --     47.3854                61.8091                90.2839
 Red. masses --      4.0015                 2.6920                 3.4668
 Frc consts  --      0.0053                 0.0061                 0.0166
 IR Inten    --      2.6376                 1.5952                13.4120

                      4                      5                      6
                      A                      A                      A
 Frequencies --    148.3630               178.7559               220.9762
 Red. masses --      4.0356                 1.9501                 1.5460
 Frc consts  --      0.0523                 0.0367                 0.0445
 IR Inten    --      6.9618                 2.7672                 3.1678

                      7                      8                      9
                      A                      A                      A
 Frequencies --    235.6996               249.0747               344.6684
 Red. masses --      2.7889                 5.0458                 2.6674
 Frc consts  --      0.0913                 0.1844                 0.1867
 IR Inten    --      0.6253                 1.4112                 5.6863

                     10                     11                     12
                      A                      A                      A
 Frequencies --    398.3483               569.4104               692.4740
 Red. masses --      2.5977                 4.0005                 3.6657
 Frc consts  --      0.2429                 0.7642                 1.0356
 IR Inten    --      3.2722                 9.0856                 8.4844

                     13                     14                     15
                      A                      A                      A
 Frequencies --    720.8449               771.1272               804.1441
 Red. masses --      3.3670                 1.8551                 2.2166
 Frc consts  --      1.0308                 0.6499                 0.8445
 IR Inten    --      1.4019                 0.0227                 0.9319

                     16                     17                     18
                      A                      A                      A
 Frequencies --    824.0587               845.7272               918.1011
 Red. masses --      1.7826                 3.0462                 1.6975
 Frc consts  --      0.7132                 1.2837                 0.8430
 IR Inten    --      1.5930                 2.8110                37.3757

                     19                     20                     21
                      A                      A                      A
 Frequencies --    944.0543               992.3904              1027.1275
 Red. masses --      2.0677                 2.3319                 2.1424
 Frc consts  --      1.0857                 1.3531                 1.3317
 IR Inten    --     16.5229                92.8156                54.3308

                     22                     23                     24
                      A                      A                      A
 Frequencies --   1053.2550              1069.4692              1082.5561
 Red. masses --      1.6496                 1.5988                 1.6568
 Frc consts  --      1.0782                 1.0774                 1.1440
 IR Inten    --      6.9561                 3.9207                 0.1688

                     25                     26                     27
                      A                      A                      A
 Frequencies --   1100.7800              1130.8095              1141.3800
 Red. masses --      1.3628                 1.0568                 1.3998
 Frc consts  --      0.9730                 0.7962                 1.0744
 IR Inten    --     10.0293                 3.1361                12.9408

                     28                     29                     30
                      A                      A                      A
 Frequencies --   1192.2834              1220.7839              1276.8370
 Red. masses --      2.0114                 1.8579                 1.1967
 Frc consts  --      1.6846                 1.6314                 1.1495
 IR Inten    --     54.1427                 8.7303                 5.0248

                     31                     32                     33
                      A                      A                      A
 Frequencies --   1329.3954              1337.8602              1409.4918
 Red. masses --      1.4259                 1.7304                 1.3327
 Frc consts  --      1.4847                 1.8248                 1.5600
 IR Inten    --     17.9791                93.5779                10.5622

                     34                     35                     36
                      A                      A                      A
 Frequencies --   1415.0220              1429.3737              1453.5483
 Red. masses --      1.3535                 1.3540                 1.5193
 Frc consts  --      1.5967                 1.6300                 1.8913
 IR Inten    --     20.6236                14.1550                 0.8670

                     37                     38                     39
                      A                      A                      A
 Frequencies --   1475.8405              1500.4917              1506.4914
 Red. masses --      1.0795                 1.0408                 1.0645
 Frc consts  --      1.3853                 1.3807                 1.4234
 IR Inten    --      3.1122                 6.5018                 7.6505

                     40                     41                     42
                      A                      A                      A
 Frequencies --   1785.7782              1807.3869              2898.3761
 Red. masses --     11.0492                 9.4006                 1.0838
 Frc consts  --     20.7604                18.0929                 5.3642
 IR Inten    --    227.3046                60.7645               134.8245

                     43                     44                     45
                      A                      A                      A
 Frequencies --   3033.5163              3043.6503              3100.3995
 Red. masses --      1.0638                 1.0346                 1.0986
 Frc consts  --      5.7675                 5.6467                 6.2220
 IR Inten    --     10.0796                20.0979                 0.7990

                     46                     47                     48
                      A                      A                      A
 Frequencies --   3118.3960              3121.6729              3144.9958
 Red. masses --      1.1017                 1.1023                 1.0519
 Frc consts  --      6.3123                 6.3289                 6.1299
 IR Inten    --     23.0834                33.3970                 5.5867

                     49                     50                     51
                      A                      A                      A
 Frequencies --   3185.8155              3189.6307              3248.8390
 Red. masses --      1.0899                 1.0887                 1.1191
 Frc consts  --      6.5172                 6.5261                 6.9593
 IR Inten    --      2.1552                 4.2875                 0.4026

 - Thermochemistry -
 -------------------
 Temperature   298.150 Kelvin.  Pressure   1.00000 Atm.
 Atom     1 has atomic number  6 and mass  12.00000

 Molecular mass:   126.06808 amu.
 Principal axes and moments of inertia in atomic units:
                           1         2         3
     Eigenvalues --   672.409341793.641292167.80599
           X            0.99849   0.05429  -0.00807
           Y           -0.05403   0.99810   0.02952
           Z            0.00966  -0.02904   0.99953
 This molecule is an asymmetric top.
 Rotational symmetry number  1.
 Warning -- assumption of classical behavior for rotation
           may cause significant error
 Rotational temperatures (Kelvin)      0.12881     0.04829     0.03995
 Rotational constants (GHZ):           2.68399     1.00619     0.83252
 Zero-point vibrational energy     412047.4 (Joules/Mol)
                                   98.48170 (Kcal/Mol)
 Warning -- explicit consideration of  11 degrees of freedom as
           vibrations may cause significant error
 Vibrational temperatures:     68.18    88.93   129.90   213.46   257.19
          (Kelvin)            317.94   339.12   358.36   495.90   573.13
                              819.25   996.31  1037.13  1109.48  1156.98
                             1185.64  1216.81  1320.94  1358.28  1427.83
                             1477.81  1515.40  1538.73  1557.55  1583.77
                             1626.98  1642.19  1715.43  1756.43  1837.08
                             1912.70  1924.88  2027.94  2035.90  2056.55
                             2091.33  2123.40  2158.87  2167.50  2569.33
                             2600.42  4170.11  4364.55  4379.13  4460.78
                             4486.67  4491.39  4524.94  4583.67  4589.16
                             4674.35

 Zero-point correction=                           0.156941 (Hartree/Particle)
 Thermal correction to Energy=                    0.166749
 Thermal correction to Enthalpy=                  0.167693
 Thermal correction to Gibbs Free Energy=         0.120928
 Sum of electronic and zero-point Energies=           -423.052807
 Sum of electronic and thermal Energies=              -423.042998
 Sum of electronic and thermal Enthalpies=            -423.042054
 Sum of electronic and thermal Free Energies=         -423.088820

                     E (Thermal)             CV                S
                      KCal/Mol        Cal/Mol-Kelvin    Cal/Mol-Kelvin
 Total                  104.637             34.179             98.426
 Electronic               0.000              0.000              0.000
 Translational            0.889              2.981             40.409
 Rotational               0.889              2.981             29.349
 Vibrational            102.859             28.217             28.669
 Vibration     1          0.595              1.979              4.924
 Vibration     2          0.597              1.973              4.399
 Vibration     3          0.602              1.956              3.654
 Vibration     4          0.618              1.904              2.693
 Vibration     5          0.629              1.868              2.341
 Vibration     6          0.648              1.809              1.951
 Vibration     7          0.655              1.786              1.835
 Vibration     8          0.662              1.764              1.737
 Vibration     9          0.723              1.586              1.190
 Vibration    10          0.765              1.474              0.969
 Vibration    11          0.925              1.097              0.505

 Normal termination of Gaussian 09 at Tue Jan 28 08:50:54 2020.
