 Gaussian 09, Revision D.01,
 Gaussian 09:  ES64L-G09RevD.01 24-Apr-2013

 -----------------------------
 # b3lyp 6-31G(2df,p) opt Freq
 -----------------------------

 -----
 titel
 -----
 Symbolic Z-matrix:
 Charge =  0 Multiplicity = 1

 SCF Done:  E(RB3LYP) =  -423.101014855     A.U. after   13 cycles
 Optimization completed.
    -- Stationary point found.
 Normal termination of Gaussian 09 at Tue Jan 28 09:14:44 2020.

 ----------------------------------------------------------------------
 #N Geom=AllCheck Guess=TCheck SCRF=Check GenChk RB3LYP/6-31G(2df,p) Fr
 eq
 ----------------------------------------------------------------------

 Structure from the checkpoint file:  "/scratch/puck/g09_81e1dbc9-fcca-410b-aa1b-eb8ea3dfda71/Gau-20342.chk"
 -----
 titel
 -----
 Charge =  0 Multiplicity = 1

                         Standard orientation:
 ---------------------------------------------------------------------
 Center     Atomic      Atomic             Coordinates (Angstroms)
 Number     Number       Type             X           Y           Z
 ---------------------------------------------------------------------
      1          8           0        2.232751   -1.067895   -0.390300
      2          6           0        1.149497   -1.316806    0.494263
      3          6           0        0.055913   -0.304115    0.305692
      4          6           0        0.191522    1.205050    0.524252
      5          8           0        1.174129    1.787898   -0.315734
      6          6           0       -1.248845    1.050083    0.007070
      7          6           0       -1.432620   -0.288941    0.811899
      8          6           0       -1.939526   -1.042090   -0.434377
      9          6           0       -0.844676   -0.102783   -0.975852
     10          1           0        2.357822   -0.111331   -0.425436
     11          1           0        0.789896   -2.330329    0.279341
     12          1           0        1.482043   -1.307554    1.546935
     13          1           0        0.305436    1.542435    1.565128
     14          1           0        1.180630    2.740957   -0.185329
     15          1           0       -2.018555    1.804898   -0.161612
     16          1           0       -1.754141   -0.370813    1.851524
     17          1           0       -1.739782   -2.117337   -0.478262
     18          1           0       -2.966955   -0.832200   -0.748151
     19          1           0       -0.479023    0.018863   -1.993553
 ---------------------------------------------------------------------

 SCF Done:  E(RB3LYP) =  -423.101014855     A.U. after    1 cycles

 The electronic state is 1-A.
 Alpha  occ. eigenvalues --  -19.14943 -19.11808 -10.23547 -10.21998 -10.20390
 Alpha  occ. eigenvalues --  -10.19819 -10.19769 -10.19651 -10.18366  -1.03180
 Alpha  occ. eigenvalues --   -0.99991  -0.93622  -0.74064  -0.70365  -0.63440
 Alpha  occ. eigenvalues --   -0.61333  -0.60110  -0.51616  -0.50972  -0.50093
 Alpha  occ. eigenvalues --   -0.47786  -0.46138  -0.44321  -0.41007  -0.40058
 Alpha  occ. eigenvalues --   -0.36162  -0.34325  -0.33315  -0.30664  -0.30382
 Alpha  occ. eigenvalues --   -0.29530  -0.28476  -0.26751  -0.25199
 Alpha virt. eigenvalues --    0.06293   0.10910   0.11489   0.11831   0.11905
 Alpha virt. eigenvalues --    0.13278   0.14479   0.14717   0.15785   0.16662
 Alpha virt. eigenvalues --    0.17996   0.18848   0.19185   0.19994   0.21161

 Mulliken charges:
               1
     1  O   -0.427870
     2  C   -0.197712
     3  C    0.328593
     4  C    0.046676
     5  O   -0.447253
     6  C   -0.098644
     7  C   -0.113581
     8  C   -0.270911
     9  C   -0.068110
    10  H    0.295965
    11  H    0.104455
    12  H    0.081372
    13  H    0.062606
    14  H    0.288555
    15  H    0.069020
    16  H    0.071501
    17  H    0.097144
    18  H    0.092256
    19  H    0.085938
 Sum of Mulliken charges =   0.00000

 Dipole moment (field-independent basis, Debye):
    X=             -1.6424    Y=              2.1889    Z=              1.2779  Tot=              3.0203
 Quadrupole moment (field-independent basis, Debye-Ang):
   XX=            -57.4408   YY=            -47.9591   ZZ=            -53.1914
   XY=              4.3031   XZ=              1.8942   YZ=             -0.3645

  Exact polarizability:  80.310   2.995  78.692   0.879   0.221  67.682
 Approx polarizability: 112.545   2.835 113.802  -2.526  -0.282 106.960

                      1                      2                      3
                      A                      A                      A
 Frequencies --    100.4866               150.6600               209.2223
 Red. masses --      4.0855                 4.8230                 3.4350
 Frc consts  --      0.0243                 0.0645                 0.0886
 IR Inten    --      1.3609                 0.5583                 3.4593

                      4                      5                      6
                      A                      A                      A
 Frequencies --    255.7793               262.8056               317.1603
 Red. masses --      1.2052                 1.9783                 3.3211
 Frc consts  --      0.0465                 0.0805                 0.1968
 IR Inten    --     58.4707                20.3304                 7.4557

                      7                      8                      9
                      A                      A                      A
 Frequencies --    397.0846               419.8283               492.3912
 Red. masses --      2.5546                 1.2888                 2.2149
 Frc consts  --      0.2373                 0.1338                 0.3164
 IR Inten    --     23.5651               102.0871                 3.5106

                     10                     11                     12
                      A                      A                      A
 Frequencies --    566.8882               659.0544               753.5968
 Red. masses --      5.1261                 3.2704                 3.4920
 Frc consts  --      0.9706                 0.8369                 1.1684
 IR Inten    --      9.3319                 0.9736                 0.7279

                     13                     14                     15
                      A                      A                      A
 Frequencies --    799.3985               852.5177               865.9425
 Red. masses --      3.2790                 2.1458                 2.0831
 Frc consts  --      1.2346                 0.9189                 0.9203
 IR Inten    --      3.3308                 0.0270                 1.9753

                     16                     17                     18
                      A                      A                      A
 Frequencies --    901.7633               917.1266               924.3308
 Red. masses --      2.0267                 2.4679                 1.7409
 Frc consts  --      0.9710                 1.2230                 0.8763
 IR Inten    --      7.9365                 1.6686                 4.1627

                     19                     20                     21
                      A                      A                      A
 Frequencies --    955.2693              1011.1730              1029.5421
 Red. masses --      2.0572                 1.3634                 1.5673
 Frc consts  --      1.1060                 0.8214                 0.9788
 IR Inten    --      2.3083                 0.3071                17.5107

                     22                     23                     24
                      A                      A                      A
 Frequencies --   1047.7343              1057.4608              1095.1160
 Red. masses --      2.0749                 4.8956                 4.1371
 Frc consts  --      1.3420                 3.2254                 2.9232
 IR Inten    --      2.4971                31.0911               121.2189

                     25                     26                     27
                      A                      A                      A
 Frequencies --   1099.2550              1122.2574              1145.9545
 Red. masses --      1.6045                 1.9046                 1.4490
 Frc consts  --      1.1423                 1.4134                 1.1211
 IR Inten    --      3.3410                18.1986                 4.0524

                     28                     29                     30
                      A                      A                      A
 Frequencies --   1155.1646              1166.2598              1193.6229
 Red. masses --      1.4639                 1.6039                 1.6793
 Frc consts  --      1.1510                 1.2853                 1.4097
 IR Inten    --      1.3133                 3.7988                22.0141

                     31                     32                     33
                      A                      A                      A
 Frequencies --   1226.8373              1234.2817              1256.6572
 Red. masses --      1.4318                 1.5044                 1.8640
 Frc consts  --      1.2697                 1.3503                 1.7343
 IR Inten    --     27.1771                 4.9360                42.5991

                     34                     35                     36
                      A                      A                      A
 Frequencies --   1276.1968              1316.3665              1331.0057
 Red. masses --      1.6687                 1.7212                 1.6812
 Frc consts  --      1.6013                 1.7572                 1.7548
 IR Inten    --      9.6851                23.8205                 8.2918

                     37                     38                     39
                      A                      A                      A
 Frequencies --   1369.3496              1435.1695              1458.2191
 Red. masses --      1.4598                 1.4860                 1.4979
 Frc consts  --      1.6128                 1.8033                 1.8766
 IR Inten    --      4.5940                37.9488                54.9633

                     40                     41                     42
                      A                      A                      A
 Frequencies --   1504.1660              1514.8574              2951.3422
 Red. masses --      1.1006                 1.1229                 1.0717
 Frc consts  --      1.4672                 1.5182                 5.4999
 IR Inten    --      0.1430                 0.4311                65.7090

                     43                     44                     45
                      A                      A                      A
 Frequencies --   2995.2801              3039.5462              3049.3030
 Red. masses --      1.0841                 1.0561                 1.0876
 Frc consts  --      5.7306                 5.7489                 5.9583
 IR Inten    --     75.6508                37.7666                48.4220

                     46                     47                     48
                      A                      A                      A
 Frequencies --   3095.2303              3095.5989              3104.9974
 Red. masses --      1.0883                 1.1088                 1.0928
 Frc consts  --      6.1431                 6.2600                 6.2072
 IR Inten    --     38.2513                43.3652                67.8309

                     49                     50                     51
                      A                      A                      A
 Frequencies --   3137.6808              3777.5999              3824.1759
 Red. masses --      1.0924                 1.0666                 1.0664
 Frc consts  --      6.3367                 8.9674                 9.1882
 IR Inten    --     26.7070                56.7307                27.0003

 - Thermochemistry -
 -------------------
 Temperature   298.150 Kelvin.  Pressure   1.00000 Atm.
 Atom     1 has atomic number  8 and mass  15.99491

 Molecular mass:   126.06808 amu.
 Principal axes and moments of inertia in atomic units:
                           1         2         3
     Eigenvalues --   743.525501038.955261451.15573
           X            0.99932   0.03406   0.01412
           Y           -0.03406   0.99942  -0.00061
           Z           -0.01413   0.00013   0.99990
 This molecule is an asymmetric top.
 Rotational symmetry number  1.
 Warning -- assumption of classical behavior for rotation
           may cause significant error
 Rotational temperatures (Kelvin)      0.11649     0.08337     0.05969
 Rotational constants (GHZ):           2.42728     1.73707     1.24366
 Zero-point vibrational energy     418206.7 (Joules/Mol)
                                   99.95381 (Kcal/Mol)
 Warning -- explicit consideration of  10 degrees of freedom as
           vibrations may cause significant error
 Vibrational temperatures:    144.58   216.77   301.02   368.01   378.12
          (Kelvin)            456.32   571.32   604.04   708.44   815.62
                              948.23  1084.26  1150.15  1226.58  1245.90
                             1297.43  1319.54  1329.90  1374.42  1454.85
                             1481.28  1507.45  1521.45  1575.63  1581.58
                             1614.68  1648.77  1662.02  1677.99  1717.35
                             1765.14  1775.85  1808.05  1836.16  1893.96
                             1915.02  1970.19  2064.89  2098.05  2164.16
                             2179.54  4246.32  4309.53  4373.22  4387.26
                             4453.34  4453.87  4467.39  4514.42  5435.12
                             5502.13

 Zero-point correction=                           0.159287 (Hartree/Particle)
 Thermal correction to Energy=                    0.167409
 Thermal correction to Enthalpy=                  0.168353
 Thermal correction to Gibbs Free Energy=         0.126829
 Sum of electronic and zero-point Energies=           -422.941728
 Sum of electronic and thermal Energies=              -422.933606
 Sum of electronic and thermal Enthalpies=            -422.932662
 Sum of electronic and thermal Free Energies=         -422.974186

                     E (Thermal)             CV                S
                      KCal/Mol        Cal/Mol-Kelvin    Cal/Mol-Kelvin
 Total                  105.051             31.846             87.394
 Electronic               0.000              0.000              0.000
 Translational            0.889              2.981             40.409
 Rotational               0.889              2.981             28.507
 Vibrational            103.273             25.884             18.478
 Vibration     1          0.604              1.949              3.445
 Vibration     2          0.618              1.902              2.664
 Vibration     3          0.642              1.827              2.050
 Vibration     4          0.666              1.753              1.690
 Vibration     5          0.670              1.741              1.643
 Vibration     6          0.704              1.641              1.325
 Vibration     7          0.764              1.476              0.973
 Vibration     8          0.783              1.427              0.893
 Vibration     9          0.848              1.267              0.677
 Vibration    10          0.923              1.103              0.510

 Optimization completed.
    -- Stationary point found.
 Normal termination of Gaussian 09 at Tue Jan 28 09:59:09 2020.
