 Gaussian 09, Revision D.01,
 Gaussian 09:  ES64L-G09RevD.01 24-Apr-2013

 -----------------------------
 # b3lyp 6-31G(2df,p) opt Freq
 -----------------------------

 -----
 titel
 -----
 Symbolic Z-matrix:
 Charge =  0 Multiplicity = 1

 SCF Done:  E(RB3LYP) =  -423.107565682     A.U. after   13 cycles
 Optimization completed.
    -- Stationary point found.
 Normal termination of Gaussian 09 at Tue Jan 28 08:20:12 2020.

 ----------------------------------------------------------------------
 #N Geom=AllCheck Guess=TCheck SCRF=Check GenChk RB3LYP/6-31G(2df,p) Fr
 eq
 ----------------------------------------------------------------------

 Structure from the checkpoint file:  "/scratch/puck/g09_fcc2c749-5d4f-4fc5-a9b9-ec5873400833/Gau-74502.chk"
 -----
 titel
 -----
 Charge =  0 Multiplicity = 1

                         Standard orientation:
 ---------------------------------------------------------------------
 Center     Atomic      Atomic             Coordinates (Angstroms)
 Number     Number       Type             X           Y           Z
 ---------------------------------------------------------------------
      1          6           0        0.987272    1.792938   -0.300194
      2          6           0        0.379594    0.466546    0.150027
      3          6           0        1.432590   -0.463219    0.756824
      4          8           0        2.402591   -0.868706   -0.204230
      5          6           0       -0.947389    0.618939    0.910204
      6          6           0       -1.786764   -0.600468    0.478913
      7          8           0       -0.988955   -1.413863   -0.387527
      8          6           0       -0.518358   -0.162835   -0.968512
      9          6           0       -1.756157    0.610693   -0.382909
     10          1           0        1.336154    2.376620    0.558715
     11          1           0        1.848613    1.602541   -0.947192
     12          1           0        0.264685    2.405876   -0.848405
     13          1           0        1.983990    0.065946    1.543289
     14          1           0        0.944535   -1.331073    1.213597
     15          1           0        1.992616   -1.551766   -0.744198
     16          1           0       -1.147304    1.171964    1.820016
     17          1           0       -2.565602   -1.064939    1.068611
     18          1           0       -0.196957   -0.252810   -2.004873
     19          1           0       -2.514550    1.262632   -0.791618
 ---------------------------------------------------------------------

 SCF Done:  E(RB3LYP) =  -423.107565682     A.U. after    1 cycles

 The electronic state is 1-A.
 Alpha  occ. eigenvalues --  -19.14169 -19.13028 -10.24488 -10.24393 -10.21541
 Alpha  occ. eigenvalues --  -10.19888 -10.19802 -10.19625 -10.17264  -1.06541
 Alpha  occ. eigenvalues --   -1.00908  -0.86514  -0.77047  -0.68423  -0.67424
 Alpha  occ. eigenvalues --   -0.61749  -0.55914  -0.54131  -0.52434  -0.49480
 Alpha  occ. eigenvalues --   -0.47237  -0.45852  -0.41929  -0.40902  -0.40234
 Alpha  occ. eigenvalues --   -0.38733  -0.36921  -0.35274  -0.33755  -0.31790
 Alpha  occ. eigenvalues --   -0.29813  -0.27995  -0.25158  -0.23460
 Alpha virt. eigenvalues --    0.05775   0.08893   0.10737   0.11380   0.12162
 Alpha virt. eigenvalues --    0.13516   0.14180   0.14338   0.16174   0.16927
 Alpha virt. eigenvalues --    0.17409   0.18594   0.20194   0.20987   0.21859

 Mulliken charges:
               1
     1  C   -0.456595
     2  C    0.311264
     3  C   -0.134327
     4  O   -0.426093
     5  C   -0.170934
     6  C    0.071228
     7  O   -0.300494
     8  C    0.012273
     9  C   -0.142056
    10  H    0.113553
    11  H    0.133187
    12  H    0.111008
    13  H    0.099315
    14  H    0.102527
    15  H    0.290273
    16  H    0.088282
    17  H    0.112279
    18  H    0.083920
    19  H    0.101390
 Sum of Mulliken charges =   0.00000

 Dipole moment (field-independent basis, Debye):
    X=             -1.7178    Y=              1.1048    Z=              0.2365  Tot=              2.0561
 Quadrupole moment (field-independent basis, Debye-Ang):
   XX=            -56.6241   YY=            -53.9385   ZZ=            -49.8532
   XY=             -1.4475   XZ=             -1.6094   YZ=              0.3560

  Exact polarizability:  79.178   2.010  70.692  -1.524   0.340  69.029
 Approx polarizability: 108.843   2.638 107.788  -2.171   2.523 108.908

                      1                      2                      3
                      A                      A                      A
 Frequencies --     50.9418               175.1823               236.2006
 Red. masses --      3.8135                 4.0799                 1.6000
 Frc consts  --      0.0058                 0.0738                 0.0526
 IR Inten    --      3.0887                 0.5325                 1.0609

                      4                      5                      6
                      A                      A                      A
 Frequencies --    240.2378               276.7654               326.8348
 Red. masses --      1.4582                 2.9239                 1.2952
 Frc consts  --      0.0496                 0.1320                 0.0815
 IR Inten    --      0.9074                 1.3383                72.3392

                      7                      8                      9
                      A                      A                      A
 Frequencies --    350.2398               432.2534               540.8685
 Red. masses --      1.6621                 5.1335                 3.8150
 Frc consts  --      0.1201                 0.5651                 0.6576
 IR Inten    --     36.1650                 6.2328                 2.5556

                     10                     11                     12
                      A                      A                      A
 Frequencies --    575.8497               697.0917               774.9713
 Red. masses --      3.8639                 3.6832                 2.6261
 Frc consts  --      0.7549                 1.0545                 0.9293
 IR Inten    --      9.1638                 4.6478                16.9291

                     13                     14                     15
                      A                      A                      A
 Frequencies --    776.6334               796.5205               827.6569
 Red. masses --      1.5747                 1.9882                 2.9071
 Frc consts  --      0.5596                 0.7432                 1.1733
 IR Inten    --      1.9895                 6.2151                 1.8835

                     16                     17                     18
                      A                      A                      A
 Frequencies --    861.4932               893.9682               925.2984
 Red. masses --      2.0945                 1.9328                 2.2343
 Frc consts  --      0.9159                 0.9101                 1.1271
 IR Inten    --      7.0357                13.6023                35.8065

                     19                     20                     21
                      A                      A                      A
 Frequencies --    953.6103               958.3885               979.9914
 Red. masses --      1.7464                 1.7427                 2.7354
 Frc consts  --      0.9357                 0.9431                 1.5478
 IR Inten    --      0.6132                16.6675                38.4572

                     22                     23                     24
                      A                      A                      A
 Frequencies --   1026.4361              1039.9725              1050.5563
 Red. masses --      1.4456                 3.1610                 2.4850
 Frc consts  --      0.8973                 2.0143                 1.6159
 IR Inten    --      1.0471                 2.8458                76.7330

                     25                     26                     27
                      A                      A                      A
 Frequencies --   1060.9201              1073.6870              1146.5995
 Red. masses --      2.4046                 3.1294                 1.7586
 Frc consts  --      1.5946                 2.1255                 1.3622
 IR Inten    --     17.4332                13.2647                 2.0999

                     28                     29                     30
                      A                      A                      A
 Frequencies --   1149.5982              1153.5418              1198.4218
 Red. masses --      1.7751                 1.4346                 1.3976
 Frc consts  --      1.3822                 1.1247                 1.1826
 IR Inten    --     12.8609                 0.8165                 2.3352

                     31                     32                     33
                      A                      A                      A
 Frequencies --   1219.7114              1252.6542              1262.0167
 Red. masses --      2.0214                 2.3172                 1.9677
 Frc consts  --      1.7718                 2.1422                 1.8465
 IR Inten    --      8.5275                 1.5383                 7.9214

                     34                     35                     36
                      A                      A                      A
 Frequencies --   1338.2234              1366.6555              1395.3306
 Red. masses --      2.0722                 2.5868                 1.2878
 Frc consts  --      2.1864                 2.8466                 1.4773
 IR Inten    --      1.5346                 8.6722                 2.1237

                     37                     38                     39
                      A                      A                      A
 Frequencies --   1403.6839              1416.5654              1488.1757
 Red. masses --      1.2081                 1.2785                 1.0630
 Frc consts  --      1.4025                 1.5115                 1.3870
 IR Inten    --     36.3506                11.7749                 3.5900

                     40                     41                     42
                      A                      A                      A
 Frequencies --   1498.0216              1505.3733              3029.2311
 Red. masses --      1.0674                 1.0589                 1.0510
 Frc consts  --      1.4113                 1.4138                 5.6824
 IR Inten    --      5.5076                 2.2797                37.1852

                     43                     44                     45
                      A                      A                      A
 Frequencies --   3033.3105              3075.1673              3096.0660
 Red. masses --      1.0412                 1.1076                 1.1005
 Frc consts  --      5.6444                 6.1712                 6.2153
 IR Inten    --     22.6429                27.7118                24.4372

                     46                     47                     48
                      A                      A                      A
 Frequencies --   3113.5314              3136.2179              3189.4898
 Red. masses --      1.1011                 1.0921                 1.0912
 Frc consts  --      6.2890                 6.3286                 6.5402
 IR Inten    --     15.0456                27.9677                10.7925

                     49                     50                     51
                      A                      A                      A
 Frequencies --   3207.8835              3223.2479              3821.2532
 Red. masses --      1.0903                 1.1047                 1.0663
 Frc consts  --      6.6106                 6.7622                 9.1733
 IR Inten    --     11.4542                12.7716                19.2761

 - Thermochemistry -
 -------------------
 Temperature   298.150 Kelvin.  Pressure   1.00000 Atm.
 Atom     1 has atomic number  6 and mass  12.00000

 Molecular mass:   126.06808 amu.
 Principal axes and moments of inertia in atomic units:
                           1         2         3
     Eigenvalues --   630.044211129.772721384.89550
           X            0.99997   0.00610  -0.00451
           Y           -0.00622   0.99957  -0.02857
           Z            0.00433   0.02859   0.99958
 This molecule is an asymmetric top.
 Rotational symmetry number  1.
 Warning -- assumption of classical behavior for rotation
           may cause significant error
 Rotational temperatures (Kelvin)      0.13747     0.07666     0.06254
 Rotational constants (GHZ):           2.86447     1.59744     1.30316
 Zero-point vibrational energy     416435.3 (Joules/Mol)
                                   99.53042 (Kcal/Mol)
 Warning -- explicit consideration of  10 degrees of freedom as
           vibrations may cause significant error
 Vibrational temperatures:     73.29   252.05   339.84   345.65   398.20
          (Kelvin)            470.24   503.92   621.92   778.19   828.52
                             1002.96  1115.01  1117.40  1146.01  1190.81
                             1239.49  1286.22  1331.30  1372.03  1378.91
                             1409.99  1476.81  1496.29  1511.51  1526.43
                             1544.79  1649.70  1654.01  1659.69  1724.26
                             1754.89  1802.29  1815.76  1925.40  1966.31
                             2007.57  2019.59  2038.12  2141.15  2155.32
                             2165.89  4358.38  4364.25  4424.47  4454.54
                             4479.67  4512.31  4588.96  4615.42  4637.53
                             5497.92

 Zero-point correction=                           0.158612 (Hartree/Particle)
 Thermal correction to Energy=                    0.166788
 Thermal correction to Enthalpy=                  0.167732
 Thermal correction to Gibbs Free Energy=         0.125819
 Sum of electronic and zero-point Energies=           -422.948954
 Sum of electronic and thermal Energies=              -422.940778
 Sum of electronic and thermal Enthalpies=            -422.939834
 Sum of electronic and thermal Free Energies=         -422.981746

                     E (Thermal)             CV                S
                      KCal/Mol        Cal/Mol-Kelvin    Cal/Mol-Kelvin
 Total                  104.661             32.074             88.213
 Electronic               0.000              0.000              0.000
 Translational            0.889              2.981             40.409
 Rotational               0.889              2.981             28.379
 Vibrational            102.884             26.112             19.425
 Vibration     1          0.595              1.977              4.780
 Vibration     2          0.627              1.873              2.379
 Vibration     3          0.655              1.785              1.831
 Vibration     4          0.657              1.779              1.801
 Vibration     5          0.678              1.716              1.554
 Vibration     6          0.710              1.622              1.276
 Vibration     7          0.727              1.575              1.165
 Vibration     8          0.793              1.400              0.851
 Vibration     9          0.896              1.160              0.563
 Vibration    10          0.932              1.083              0.493

 Optimization completed.
    -- Stationary point found.
 Normal termination of Gaussian 09 at Tue Jan 28 09:10:07 2020.
