 Gaussian 09, Revision D.01,
 Gaussian 09:  ES64L-G09RevD.01 24-Apr-2013

 -----------------------------
 # b3lyp 6-31G(2df,p) opt Freq
 -----------------------------

 -----
 titel
 -----
 Symbolic Z-matrix:
 Charge =  0 Multiplicity = 1

 SCF Done:  E(RB3LYP) =  -423.145546937     A.U. after   13 cycles
 Optimization completed.
    -- Stationary point found.
 Normal termination of Gaussian 09 at Mon Jan 27 12:15:56 2020.

 ----------------------------------------------------------------------
 #N Geom=AllCheck Guess=TCheck SCRF=Check GenChk RB3LYP/6-31G(2df,p) Fr
 eq
 ----------------------------------------------------------------------

 Structure from the checkpoint file:  "/scratch/puck/g09_06531441-19e1-47eb-8bb0-97770ed2d337/Gau-153287.chk"
 -----
 titel
 -----
 Charge =  0 Multiplicity = 1

                         Standard orientation:
 ---------------------------------------------------------------------
 Center     Atomic      Atomic             Coordinates (Angstroms)
 Number     Number       Type             X           Y           Z
 ---------------------------------------------------------------------
      1          6           0       -1.957184    0.786253    0.235302
      2          6           0       -1.953148   -0.744600   -0.150029
      3          6           0       -0.424800   -0.634939   -0.115486
      4          6           0        0.423305   -0.866484    1.147760
      5          6           0        1.530722   -0.681526    0.100924
      6          6           0        1.743011    0.832235   -0.125553
      7          8           0        0.544796    1.581042    0.142162
      8          6           0       -0.541130    0.851412   -0.390283
      9          8           0        0.626846   -1.229192   -0.923706
     10          1           0       -2.732811    1.416914   -0.199566
     11          1           0       -1.935757    0.925375    1.318144
     12          1           0       -2.426869   -1.449618    0.535082
     13          1           0       -2.337976   -0.903322   -1.160646
     14          1           0        0.354288   -0.156388    1.972504
     15          1           0        0.350851   -1.899120    1.491833
     16          1           0        2.471290   -1.233638    0.156307
     17          1           0        2.505117    1.217377    0.559078
     18          1           0        2.078466    0.996901   -1.160554
     19          1           0       -0.624396    1.016617   -1.475643
 ---------------------------------------------------------------------

 SCF Done:  E(RB3LYP) =  -423.145546937     A.U. after    1 cycles

 The electronic state is 1-A.
 Alpha  occ. eigenvalues --  -19.14168 -19.13190 -10.24039 -10.23447 -10.23109
 Alpha  occ. eigenvalues --  -10.22357 -10.19365 -10.19317 -10.18699  -1.05643
 Alpha  occ. eigenvalues --   -1.01547  -0.84632  -0.75686  -0.70401  -0.66021
 Alpha  occ. eigenvalues --   -0.63074  -0.58997  -0.52972  -0.50546  -0.48847
 Alpha  occ. eigenvalues --   -0.47807  -0.46370  -0.43043  -0.41574  -0.38294
 Alpha  occ. eigenvalues --   -0.37853  -0.36547  -0.35784  -0.35274  -0.33815
 Alpha  occ. eigenvalues --   -0.30524  -0.29898  -0.26659  -0.22447
 Alpha virt. eigenvalues --    0.07861   0.09607   0.10569   0.11941   0.12710
 Alpha virt. eigenvalues --    0.13394   0.14337   0.14985   0.15545   0.16385
 Alpha virt. eigenvalues --    0.18171   0.18778   0.19389   0.20736   0.22551

 Mulliken charges:
               1
     1  C   -0.287909
     2  C   -0.354959
     3  C    0.421520
     4  C   -0.285788
     5  C    0.044902
     6  C   -0.091047
     7  O   -0.279613
     8  C    0.125031
     9  O   -0.348148
    10  H    0.109672
    11  H    0.119212
    12  H    0.108828
    13  H    0.122640
    14  H    0.113999
    15  H    0.106937
    16  H    0.081814
    17  H    0.112015
    18  H    0.105399
    19  H    0.075496
 Sum of Mulliken charges =   0.00000

 Dipole moment (field-independent basis, Debye):
    X=             -0.2287    Y=             -0.2547    Z=              0.9833  Tot=              1.0412
 Quadrupole moment (field-independent basis, Debye-Ang):
   XX=            -47.5523   YY=            -57.7619   ZZ=            -53.4171
   XY=              0.0710   XZ=              1.3478   YZ=             -3.2533

  Exact polarizability:  87.942   0.066  68.532   0.827  -2.380  66.035
 Approx polarizability: 116.925  -0.381 102.513   0.698   1.542 104.024

                      1                      2                      3
                      A                      A                      A
 Frequencies --    205.4205               241.6686               331.5421
 Red. masses --      2.6930                 2.1775                 2.7046
 Frc consts  --      0.0670                 0.0749                 0.1752
 IR Inten    --      1.7446                 3.4084                 4.1996

                      4                      5                      6
                      A                      A                      A
 Frequencies --    367.5810               383.9094               460.5572
 Red. masses --      2.6719                 2.6127                 4.3498
 Frc consts  --      0.2127                 0.2269                 0.5436
 IR Inten    --      1.4337                 6.3742                 0.6851

                      7                      8                      9
                      A                      A                      A
 Frequencies --    549.3800               556.0937               618.6299
 Red. masses --      3.5462                 4.7641                 2.7385
 Frc consts  --      0.6306                 0.8680                 0.6175
 IR Inten    --      7.5867                 0.9130                 5.3662

                     10                     11                     12
                      A                      A                      A
 Frequencies --    694.2939               790.4029               821.9611
 Red. masses --      2.1804                 1.6789                 2.8096
 Frc consts  --      0.6193                 0.6180                 1.1184
 IR Inten    --      7.6813                 0.8159                26.2089

                     13                     14                     15
                      A                      A                      A
 Frequencies --    835.1905               859.9260               879.4165
 Red. masses --      2.3037                 2.6927                 2.8102
 Frc consts  --      0.9468                 1.1732                 1.2805
 IR Inten    --      8.9328                14.4959                 1.6618

                     16                     17                     18
                      A                      A                      A
 Frequencies --    895.6963               959.1196               971.7306
 Red. masses --      3.1030                 2.0941                 2.2670
 Frc consts  --      1.4668                 1.1350                 1.2612
 IR Inten    --      6.6772                 6.9715                49.3795

                     19                     20                     21
                      A                      A                      A
 Frequencies --    984.0659              1017.4611              1042.6391
 Red. masses --      2.1586                 2.3871                 1.7791
 Frc consts  --      1.2316                 1.4560                 1.1395
 IR Inten    --     21.5067                 8.4646                 2.4331

                     22                     23                     24
                      A                      A                      A
 Frequencies --   1087.6899              1097.8899              1120.6619
 Red. masses --      2.5291                 1.8588                 2.1223
 Frc consts  --      1.7629                 1.3201                 1.5704
 IR Inten    --     29.2062                10.9243                 9.3886

                     25                     26                     27
                      A                      A                      A
 Frequencies --   1150.3288              1162.9168              1199.3821
 Red. masses --      1.8825                 1.7766                 1.9209
 Frc consts  --      1.4677                 1.4156                 1.6280
 IR Inten    --     32.4212                19.7350                 5.3763

                     28                     29                     30
                      A                      A                      A
 Frequencies --   1221.8086              1228.9980              1239.5879
 Red. masses --      1.2145                 1.5356                 1.3291
 Frc consts  --      1.0682                 1.3666                 1.2033
 IR Inten    --      1.2740                33.9700                 2.1071

                     31                     32                     33
                      A                      A                      A
 Frequencies --   1252.0475              1290.6394              1299.5244
 Red. masses --      1.4942                 1.9587                 1.7613
 Frc consts  --      1.3801                 1.9224                 1.7525
 IR Inten    --      0.3397                11.6837                 6.3426

                     34                     35                     36
                      A                      A                      A
 Frequencies --   1316.3455              1332.4612              1369.9188
 Red. masses --      1.5739                 2.1170                 1.2551
 Frc consts  --      1.6068                 2.2145                 1.3877
 IR Inten    --     11.1301                 9.2242                 6.7273

                     37                     38                     39
                      A                      A                      A
 Frequencies --   1406.8788              1479.0166              1480.0967
 Red. masses --      1.3275                 1.1126                 1.1498
 Frc consts  --      1.5481                 1.4340                 1.4841
 IR Inten    --      8.8276                 1.0002                 4.3256

                     40                     41                     42
                      A                      A                      A
 Frequencies --   1483.7654              1496.5921              2985.5480
 Red. masses --      1.1061                 1.1472                 1.0818
 Frc consts  --      1.4347                 1.5139                 5.6813
 IR Inten    --      2.0685                 7.7747                29.6478

                     43                     44                     45
                      A                      A                      A
 Frequencies --   2998.5446              3071.6016              3079.8887
 Red. masses --      1.0678                 1.0578                 1.0589
 Frc consts  --      5.6565                 5.8800                 5.9182
 IR Inten    --     60.9778                25.9206                14.4648

                     46                     47                     48
                      A                      A                      A
 Frequencies --   3083.1179              3083.5161              3097.8470
 Red. masses --      1.0677                 1.0861                 1.0881
 Frc consts  --      5.9800                 6.0842                 6.1523
 IR Inten    --     34.3554                12.8953                57.7708

                     49                     50                     51
                      A                      A                      A
 Frequencies --   3126.9785              3144.5325              3149.5635
 Red. masses --      1.1086                 1.1091                 1.1105
 Frc consts  --      6.3869                 6.4615                 6.4902
 IR Inten    --     12.1073                29.8571                14.9177

 - Thermochemistry -
 -------------------
 Temperature   298.150 Kelvin.  Pressure   1.00000 Atm.
 Atom     1 has atomic number  6 and mass  12.00000

 Molecular mass:   126.06808 amu.
 Principal axes and moments of inertia in atomic units:
                           1         2         3
     Eigenvalues --   627.33635 934.351801231.21919
           X            0.99995   0.00839   0.00501
           Y           -0.00814   0.99877  -0.04889
           Z           -0.00541   0.04885   0.99879
 This molecule is an asymmetric top.
 Rotational symmetry number  1.
 Warning -- assumption of classical behavior for rotation
           may cause significant error
 Rotational temperatures (Kelvin)      0.13807     0.09270     0.07035
 Rotational constants (GHZ):           2.87683     1.93154     1.46582
 Zero-point vibrational energy     424700.5 (Joules/Mol)
                                  101.50585 (Kcal/Mol)
 Warning -- explicit consideration of   9 degrees of freedom as
           vibrations may cause significant error
 Vibrational temperatures:    295.55   347.71   477.01   528.87   552.36
          (Kelvin)            662.64   790.43   800.09   890.07   998.93
                             1137.21  1182.62  1201.65  1237.24  1265.28
                             1288.71  1379.96  1398.10  1415.85  1463.90
                             1500.12  1564.94  1579.62  1612.38  1655.06
                             1673.18  1725.64  1757.91  1768.25  1783.49
                             1801.41  1856.94  1869.72  1893.93  1917.11
                             1971.01  2024.18  2127.97  2129.53  2134.80
                             2153.26  4295.53  4314.23  4419.34  4431.27
                             4435.91  4436.49  4457.11  4499.02  4524.28
                             4531.51

 Zero-point correction=                           0.161760 (Hartree/Particle)
 Thermal correction to Energy=                    0.168445
 Thermal correction to Enthalpy=                  0.169389
 Thermal correction to Gibbs Free Energy=         0.131151
 Sum of electronic and zero-point Energies=           -422.983787
 Sum of electronic and thermal Energies=              -422.977102
 Sum of electronic and thermal Enthalpies=            -422.976158
 Sum of electronic and thermal Free Energies=         -423.014396

                     E (Thermal)             CV                S
                      KCal/Mol        Cal/Mol-Kelvin    Cal/Mol-Kelvin
 Total                  105.701             28.406             80.478
 Electronic               0.000              0.000              0.000
 Translational            0.889              2.981             40.409
 Rotational               0.889              2.981             28.070
 Vibrational            103.923             22.444             12.000
 Vibration     1          0.640              1.832              2.084
 Vibration     2          0.658              1.777              1.791
 Vibration     3          0.714              1.613              1.253
 Vibration     4          0.740              1.539              1.090
 Vibration     5          0.753              1.505              1.024
 Vibration     6          0.818              1.338              0.764
 Vibration     7          0.905              1.141              0.545
 Vibration     8          0.912              1.126              0.532
 Vibration     9          0.978              0.993              0.419

 Optimization completed.
    -- Stationary point found.
 Normal termination of Gaussian 09 at Mon Jan 27 13:02:28 2020.
