 Gaussian 09, Revision D.01,
 Gaussian 09:  ES64L-G09RevD.01 24-Apr-2013

 -----------------------------
 # b3lyp 6-31G(2df,p) opt Freq
 -----------------------------

 -----
 titel
 -----
 Symbolic Z-matrix:
 Charge =  0 Multiplicity = 1

 SCF Done:  E(RB3LYP) =  -423.136366156     A.U. after   13 cycles
 Optimization completed.
    -- Stationary point found.
 Normal termination of Gaussian 09 at Mon Jan 27 17:43:19 2020.

 ----------------------------------------------------------------------
 #N Geom=AllCheck Guess=TCheck SCRF=Check GenChk RB3LYP/6-31G(2df,p) Fr
 eq
 ----------------------------------------------------------------------

 Structure from the checkpoint file:  "/scratch/puck/g09_068e04cd-34fa-441a-8827-d0b9019a9963/Gau-15225.chk"
 -----
 titel
 -----
 Charge =  0 Multiplicity = 1

                         Standard orientation:
 ---------------------------------------------------------------------
 Center     Atomic      Atomic             Coordinates (Angstroms)
 Number     Number       Type             X           Y           Z
 ---------------------------------------------------------------------
      1          6           0        1.965481    1.018568    0.526027
      2          6           0        0.884954    0.125796   -0.003145
      3          8           0        1.212708   -0.790441   -1.057485
      4          6           0        0.714034   -1.315369    0.176643
      5          6           0       -0.839700   -1.383951    0.230631
      6          6           0       -1.154164   -0.231115    1.221801
      7          6           0       -0.631441    0.547226   -0.029426
      8          6           0       -1.022473    1.947037   -0.407067
      9          8           0       -1.222633   -0.501814   -0.851758
     10          1           0        2.902713    0.466095    0.629398
     11          1           0        2.142361    1.862503   -0.150013
     12          1           0        1.692609    1.427783    1.504928
     13          1           0        1.363638   -1.973574    0.744101
     14          1           0       -1.343899   -2.349229    0.229439
     15          1           0       -2.224856   -0.091097    1.383234
     16          1           0       -0.593309   -0.169586    2.159720
     17          1           0       -0.573869    2.672919    0.278596
     18          1           0       -0.677520    2.175027   -1.420767
     19          1           0       -2.108614    2.068031   -0.377474
 ---------------------------------------------------------------------

 SCF Done:  E(RB3LYP) =  -423.136366156     A.U. after    1 cycles

 The electronic state is 1-A.
 Alpha  occ. eigenvalues --  -19.14483 -19.13335 -10.24640 -10.24156 -10.23526
 Alpha  occ. eigenvalues --  -10.22894 -10.19326 -10.18919 -10.18361  -1.08722
 Alpha  occ. eigenvalues --   -1.02862  -0.78444  -0.75360  -0.73285  -0.66311
 Alpha  occ. eigenvalues --   -0.64451  -0.57102  -0.52923  -0.50174  -0.48772
 Alpha  occ. eigenvalues --   -0.46036  -0.45154  -0.42412  -0.41595  -0.40620
 Alpha  occ. eigenvalues --   -0.39181  -0.38539  -0.36210  -0.35192  -0.33796
 Alpha  occ. eigenvalues --   -0.31823  -0.28646  -0.26028  -0.23820
 Alpha virt. eigenvalues --    0.07774   0.08092   0.09667   0.12008   0.13154
 Alpha virt. eigenvalues --    0.13187   0.14624   0.15025   0.15416   0.15588
 Alpha virt. eigenvalues --    0.16297   0.17601   0.18381   0.20403   0.21626

 Mulliken charges:
               1
     1  C   -0.503541
     2  C    0.393685
     3  O   -0.277998
     4  C   -0.049055
     5  C    0.015845
     6  C   -0.275576
     7  C    0.330943
     8  C   -0.512051
     9  O   -0.292652
    10  H    0.134581
    11  H    0.131811
    12  H    0.123125
    13  H    0.098426
    14  H    0.086068
    15  H    0.108651
    16  H    0.094257
    17  H    0.123093
    18  H    0.140276
    19  H    0.130112
 Sum of Mulliken charges =   0.00000

 Dipole moment (field-independent basis, Debye):
    X=              0.1038    Y=              0.9155    Z=              2.9605  Tot=              3.1005
 Quadrupole moment (field-independent basis, Debye-Ang):
   XX=            -53.4487   YY=            -48.9589   ZZ=            -56.0227
   XY=              0.5940   XZ=              0.5474   YZ=             -2.9665

  Exact polarizability:  76.619   1.057  80.680  -0.876  -2.139  64.178
 Approx polarizability: 106.316   1.419 116.468  -2.089  -0.806 105.913

                      1                      2                      3
                      A                      A                      A
 Frequencies --    174.8980               184.4948               206.2051
 Red. masses --      1.6709                 1.0457                 1.3566
 Frc consts  --      0.0301                 0.0210                 0.0340
 IR Inten    --      0.2922                 0.0730                 0.1405

                      4                      5                      6
                      A                      A                      A
 Frequencies --    224.9197               275.6543               345.8124
 Red. masses --      2.5223                 2.8303                 2.6273
 Frc consts  --      0.0752                 0.1267                 0.1851
 IR Inten    --      0.4702                 2.8341                 2.0844

                      7                      8                      9
                      A                      A                      A
 Frequencies --    424.7016               478.1816               511.8889
 Red. masses --      3.1737                 3.6378                 3.4668
 Frc consts  --      0.3373                 0.4901                 0.5352
 IR Inten    --      0.5977                 0.1514                 0.6959

                     10                     11                     12
                      A                      A                      A
 Frequencies --    572.8250               617.1086               698.9186
 Red. masses --      4.6350                 3.4794                 4.8894
 Frc consts  --      0.8961                 0.7807                 1.4072
 IR Inten    --      8.8589                 2.4748                21.2064

                     13                     14                     15
                      A                      A                      A
 Frequencies --    737.3829               817.5658               842.9696
 Red. masses --      3.5800                 3.7109                 2.4896
 Frc consts  --      1.1469                 1.4614                 1.0423
 IR Inten    --      1.2806                 8.4990                 6.3050

                     16                     17                     18
                      A                      A                      A
 Frequencies --    861.9811               878.9176               882.8084
 Red. masses --      2.6118                 2.5751                 2.5952
 Frc consts  --      1.1434                 1.1720                 1.1917
 IR Inten    --      7.8379                20.5439                15.1325

                     19                     20                     21
                      A                      A                      A
 Frequencies --    918.5068               984.8052               998.3456
 Red. masses --      2.2673                 2.8169                 1.6345
 Frc consts  --      1.1270                 1.6096                 0.9598
 IR Inten    --     11.4211                17.9426                 8.0986

                     22                     23                     24
                      A                      A                      A
 Frequencies --   1020.8178              1031.3981              1086.2279
 Red. masses --      2.0396                 1.6772                 1.6790
 Frc consts  --      1.2522                 1.0512                 1.1672
 IR Inten    --      7.9009                 4.3914                 9.1201

                     25                     26                     27
                      A                      A                      A
 Frequencies --   1104.7554              1130.4036              1162.2869
 Red. masses --      1.6191                 2.0671                 1.7843
 Frc consts  --      1.1643                 1.5563                 1.4202
 IR Inten    --     16.2253                 3.4437                14.1737

                     28                     29                     30
                      A                      A                      A
 Frequencies --   1209.5505              1222.3992              1236.8759
 Red. masses --      1.5210                 3.0603                 1.6098
 Frc consts  --      1.3111                 2.6943                 1.4510
 IR Inten    --      3.0872                 7.7955                 8.8949

                     31                     32                     33
                      A                      A                      A
 Frequencies --   1277.6575              1285.1162              1323.8396
 Red. masses --      1.5006                 1.4976                 2.9729
 Frc consts  --      1.4432                 1.4572                 3.0697
 IR Inten    --      2.6703                 8.4185                14.4610

                     34                     35                     36
                      A                      A                      A
 Frequencies --   1404.8088              1414.4809              1451.8455
 Red. masses --      1.3147                 1.4261                 2.8568
 Frc consts  --      1.5287                 1.6812                 3.5478
 IR Inten    --      7.0686                 9.2096                 9.9064

                     37                     38                     39
                      A                      A                      A
 Frequencies --   1477.1608              1483.1859              1489.1690
 Red. masses --      1.0532                 1.1096                 1.2128
 Frc consts  --      1.3540                 1.4381                 1.5847
 IR Inten    --      4.0906                 1.2718                 7.1707

                     40                     41                     42
                      A                      A                      A
 Frequencies --   1494.4897              1496.9512              3032.5993
 Red. masses --      1.0560                 1.1545                 1.0365
 Frc consts  --      1.3896                 1.5242                 5.6161
 IR Inten    --      7.2084                 3.0700                16.2481

                     43                     44                     45
                      A                      A                      A
 Frequencies --   3039.9512              3051.7560              3092.2834
 Red. masses --      1.0356                 1.0584                 1.1001
 Frc consts  --      5.6385                 5.8078                 6.1981
 IR Inten    --     16.5405                33.4761                16.5258

                     46                     47                     48
                      A                      A                      A
 Frequencies --   3109.8743              3118.5873              3120.7236
 Red. masses --      1.1007                 1.1018                 1.1006
 Frc consts  --      6.2719                 6.3134                 6.3153
 IR Inten    --     12.1891                16.1366                 9.9459

                     49                     50                     51
                      A                      A                      A
 Frequencies --   3127.3059              3133.9631              3172.2723
 Red. masses --      1.1044                 1.0937                 1.0930
 Frc consts  --      6.3636                 6.3293                 6.4804
 IR Inten    --     21.7603                48.1237                18.7997

 - Thermochemistry -
 -------------------
 Temperature   298.150 Kelvin.  Pressure   1.00000 Atm.
 Atom     1 has atomic number  6 and mass  12.00000

 Molecular mass:   126.06808 amu.
 Principal axes and moments of inertia in atomic units:
                           1         2         3
     Eigenvalues --   775.19299 882.322891189.04588
           X            0.99899   0.04173   0.01692
           Y           -0.04108   0.99847  -0.03695
           Z           -0.01844   0.03622   0.99917
 This molecule is an asymmetric top.
 Rotational symmetry number  1.
 Warning -- assumption of classical behavior for rotation
           may cause significant error
 Rotational temperatures (Kelvin)      0.11173     0.09817     0.07284
 Rotational constants (GHZ):           2.32812     2.04544     1.51781
 Zero-point vibrational energy     415353.2 (Joules/Mol)
                                   99.27179 (Kcal/Mol)
 Warning -- explicit consideration of  11 degrees of freedom as
           vibrations may cause significant error
 Vibrational temperatures:    251.64   265.45   296.68   323.61   396.60
          (Kelvin)            497.55   611.05   688.00   736.49   824.17
                              887.88  1005.59  1060.93  1176.29  1212.84
                             1240.20  1264.56  1270.16  1321.52  1416.91
                             1436.39  1468.73  1483.95  1562.84  1589.49
                             1626.40  1672.27  1740.27  1758.76  1779.59
                             1838.26  1848.99  1904.71  2021.20  2035.12
                             2088.88  2125.30  2133.97  2142.58  2150.23
                             2153.78  4363.23  4373.81  4390.79  4449.10
                             4474.41  4486.95  4490.02  4499.49  4509.07
                             4564.19

 Zero-point correction=                           0.158200 (Hartree/Particle)
 Thermal correction to Energy=                    0.166121
 Thermal correction to Enthalpy=                  0.167065
 Thermal correction to Gibbs Free Energy=         0.126404
 Sum of electronic and zero-point Energies=           -422.978166
 Sum of electronic and thermal Energies=              -422.970245
 Sum of electronic and thermal Enthalpies=            -422.969301
 Sum of electronic and thermal Free Energies=         -423.009962

                     E (Thermal)             CV                S
                      KCal/Mol        Cal/Mol-Kelvin    Cal/Mol-Kelvin
 Total                  104.242             31.769             85.578
 Electronic               0.000              0.000              0.000
 Translational            0.889              2.981             40.409
 Rotational               0.889              2.981             28.188
 Vibrational            102.465             25.807             16.981
 Vibration     1          0.627              1.873              2.382
 Vibration     2          0.631              1.861              2.282
 Vibration     3          0.641              1.831              2.077
 Vibration     4          0.650              1.803              1.919
 Vibration     5          0.677              1.718              1.560
 Vibration     6          0.724              1.584              1.185
 Vibration     7          0.787              1.417              0.876
 Vibration     8          0.835              1.298              0.715
 Vibration     9          0.867              1.224              0.629
 Vibration    10          0.929              1.090              0.499
 Vibration    11          0.977              0.996              0.421

 Optimization completed.
    -- Stationary point found.
 Normal termination of Gaussian 09 at Mon Jan 27 19:45:46 2020.
