 Gaussian 09, Revision D.01,
 Gaussian 09:  ES64L-G09RevD.01 24-Apr-2013

 -----------------------------
 # b3lyp 6-31G(2df,p) opt Freq
 -----------------------------

 -----
 titel
 -----
 Symbolic Z-matrix:
 Charge =  0 Multiplicity = 1

 SCF Done:  E(RB3LYP) =  -423.107299587     A.U. after   13 cycles
 Optimization completed.
    -- Stationary point found.
 Normal termination of Gaussian 09 at Tue Jan 28 09:22:45 2020.

 ----------------------------------------------------------------------
 #N Geom=AllCheck Guess=TCheck SCRF=Check GenChk RB3LYP/6-31G(2df,p) Fr
 eq
 ----------------------------------------------------------------------

 Structure from the checkpoint file:  "/scratch/puck/g09_10d78a6a-db39-445d-8f19-695558016a0d/Gau-82544.chk"
 -----
 titel
 -----
 Charge =  0 Multiplicity = 1

                         Standard orientation:
 ---------------------------------------------------------------------
 Center     Atomic      Atomic             Coordinates (Angstroms)
 Number     Number       Type             X           Y           Z
 ---------------------------------------------------------------------
      1          6           0        2.581282    0.518268    0.140563
      2          8           0        1.725433   -0.251323   -0.698045
      3          6           0        0.466124   -0.405118   -0.208837
      4          6           0       -0.539840   -1.501224   -0.462929
      5          6           0       -1.622513   -0.511646   -0.878659
      6          6           0       -0.837398    0.534483   -0.036886
      7          6           0       -1.008000    2.014524   -0.178925
      8          8           0       -0.999056    0.038786    1.326645
      9          6           0       -0.156399   -1.052736    0.982590
     10          1           0        2.653415    0.075770    1.141998
     11          1           0        3.565970    0.519309   -0.331071
     12          1           0        2.226911    1.552521    0.235249
     13          1           0       -0.351237   -2.508006   -0.812400
     14          1           0       -1.574949   -0.290495   -1.948196
     15          1           0       -2.655525   -0.690825   -0.564397
     16          1           0       -2.037037    2.300474    0.067457
     17          1           0       -0.335426    2.554918    0.493064
     18          1           0       -0.803925    2.326856   -1.207336
     19          1           0        0.201249   -1.719529    1.755332
 ---------------------------------------------------------------------

 SCF Done:  E(RB3LYP) =  -423.107299587     A.U. after    1 cycles

 The electronic state is 1-A.
 Alpha  occ. eigenvalues --  -19.16124 -19.13201 -10.24134 -10.23547 -10.23149
 Alpha  occ. eigenvalues --  -10.23122 -10.18934 -10.18270 -10.18219  -1.06574
 Alpha  occ. eigenvalues --   -1.04195  -0.84931  -0.76118  -0.70876  -0.68613
 Alpha  occ. eigenvalues --   -0.61622  -0.56312  -0.53953  -0.50123  -0.48125
 Alpha  occ. eigenvalues --   -0.46672  -0.45382  -0.44160  -0.41930  -0.41129
 Alpha  occ. eigenvalues --   -0.39734  -0.37045  -0.36436  -0.34583  -0.33064
 Alpha  occ. eigenvalues --   -0.32243  -0.25656  -0.24937  -0.22393
 Alpha virt. eigenvalues --    0.07927   0.08659   0.11358   0.11942   0.12494
 Alpha virt. eigenvalues --    0.13494   0.14977   0.15213   0.15937   0.17020
 Alpha virt. eigenvalues --    0.17354   0.17860   0.19136   0.20394   0.21437

 Mulliken charges:
               1
     1  C   -0.256740
     2  O   -0.275226
     3  C    0.319248
     4  C   -0.190085
     5  C   -0.260532
     6  C    0.329644
     7  C   -0.506804
     8  O   -0.316418
     9  C   -0.010455
    10  H    0.120308
    11  H    0.130543
    12  H    0.120879
    13  H    0.095360
    14  H    0.104425
    15  H    0.097763
    16  H    0.133321
    17  H    0.128591
    18  H    0.127335
    19  H    0.108845
 Sum of Mulliken charges =   0.00000

 Dipole moment (field-independent basis, Debye):
    X=              0.9197    Y=              0.4256    Z=             -0.3890  Tot=              1.0855
 Quadrupole moment (field-independent basis, Debye-Ang):
   XX=            -51.3866   YY=            -49.8129   ZZ=            -55.5766
   XY=              0.6918   XZ=              4.6229   YZ=             -1.6947

  Exact polarizability:  81.572   0.489  77.445   4.176  -0.930  66.888
 Approx polarizability: 110.661   0.002 108.862   0.764   0.071 107.748

                      1                      2                      3
                      A                      A                      A
 Frequencies --     89.5192               140.6548               158.3724
 Red. masses --      2.4227                 1.4778                 1.9376
 Frc consts  --      0.0114                 0.0172                 0.0286
 IR Inten    --      2.0162                 0.1058                 1.7372

                      4                      5                      6
                      A                      A                      A
 Frequencies --    189.6305               214.2111               299.1635
 Red. masses --      1.0936                 2.7880                 2.5814
 Frc consts  --      0.0232                 0.0754                 0.1361
 IR Inten    --      0.3522                 3.3819                 1.7284

                      7                      8                      9
                      A                      A                      A
 Frequencies --    349.3659               429.1949               504.0114
 Red. masses --      2.5912                 3.3569                 2.8055
 Frc consts  --      0.1863                 0.3643                 0.4199
 IR Inten    --      1.2096                 5.9161                 2.5739

                     10                     11                     12
                      A                      A                      A
 Frequencies --    553.6951               604.7177               625.3969
 Red. masses --      3.7605                 3.8155                 3.5331
 Frc consts  --      0.6793                 0.8221                 0.8142
 IR Inten    --      5.0931                13.5037                 1.8879

                     13                     14                     15
                      A                      A                      A
 Frequencies --    765.6161               778.2885               817.9127
 Red. masses --      4.5306                 5.0239                 2.9236
 Frc consts  --      1.5647                 1.7930                 1.1523
 IR Inten    --      4.4962                 4.4706                12.0801

                     16                     17                     18
                      A                      A                      A
 Frequencies --    863.2926               876.1389               952.9629
 Red. masses --      1.6283                 2.2022                 1.5355
 Frc consts  --      0.7150                 0.9960                 0.8216
 IR Inten    --      7.7432                 9.7936                 3.0454

                     19                     20                     21
                      A                      A                      A
 Frequencies --    961.2997               995.8866              1026.9347
 Red. masses --      1.6066                 1.6496                 2.8244
 Frc consts  --      0.8747                 0.9639                 1.7549
 IR Inten    --      1.2066                10.7504                40.0679

                     22                     23                     24
                      A                      A                      A
 Frequencies --   1046.9493              1062.4874              1092.2803
 Red. masses --      4.9056                 3.6287                 2.2643
 Frc consts  --      3.1680                 2.4135                 1.5917
 IR Inten    --     74.6213                11.1079                19.4310

                     25                     26                     27
                      A                      A                      A
 Frequencies --   1108.0536              1137.5941              1164.8193
 Red. masses --      1.6387                 2.3503                 1.5964
 Frc consts  --      1.1854                 1.7920                 1.2762
 IR Inten    --      1.7087                 2.1647                11.6168

                     28                     29                     30
                      A                      A                      A
 Frequencies --   1176.8588              1213.0715              1222.5429
 Red. masses --      1.2803                 1.5441                 1.8852
 Frc consts  --      1.0448                 1.3388                 1.6601
 IR Inten    --      1.9658                 9.5571                13.8797

                     31                     32                     33
                      A                      A                      A
 Frequencies --   1252.3580              1278.3179              1334.3448
 Red. masses --      2.1102                 1.9292                 2.7212
 Frc consts  --      1.9500                 1.8574                 2.8546
 IR Inten    --     47.7231                28.7268                13.2086

                     34                     35                     36
                      A                      A                      A
 Frequencies --   1413.1916              1430.4880              1477.3182
 Red. masses --      1.5783                 1.9374                 1.0528
 Frc consts  --      1.8571                 2.3358                 1.3538
 IR Inten    --     14.7954                78.0418                 2.0766

                     37                     38                     39
                      A                      A                      A
 Frequencies --   1481.4608              1484.7043              1491.4066
 Red. masses --      1.1265                 1.0615                 1.0512
 Frc consts  --      1.4567                 1.3787                 1.3776
 IR Inten    --      1.6698                 5.3885                 5.3392

                     40                     41                     42
                      A                      A                      A
 Frequencies --   1502.7386              1509.1723              3008.8537
 Red. masses --      1.0549                 1.8286                 1.0330
 Frc consts  --      1.4035                 2.4539                 5.5100
 IR Inten    --     17.9840                42.2679                44.6920

                     43                     44                     45
                      A                      A                      A
 Frequencies --   3034.6973              3048.2443              3069.4067
 Red. masses --      1.0366                 1.0567                 1.1047
 Frc consts  --      5.6248                 5.7850                 6.1321
 IR Inten    --     15.4456                42.9459                39.3003

                     46                     47                     48
                      A                      A                      A
 Frequencies --   3102.5929              3111.4978              3119.3302
 Red. masses --      1.0992                 1.1074                 1.1019
 Frc consts  --      6.2342                 6.3169                 6.3172
 IR Inten    --     10.9441                22.5591                16.3404

                     49                     50                     51
                      A                      A                      A
 Frequencies --   3129.7838              3204.3051              3215.9975
 Red. masses --      1.1006                 1.0925                 1.0961
 Frc consts  --      6.3519                 6.6090                 6.6792
 IR Inten    --     25.9644                 5.7086                15.6096

 - Thermochemistry -
 -------------------
 Temperature   298.150 Kelvin.  Pressure   1.00000 Atm.
 Atom     1 has atomic number  6 and mass  12.00000

 Molecular mass:   126.06808 amu.
 Principal axes and moments of inertia in atomic units:
                           1         2         3
     Eigenvalues --   724.572011119.095431334.99497
           X            0.99881   0.00990   0.04769
           Y           -0.00903   0.99979  -0.01854
           Z           -0.04787   0.01809   0.99869
 This molecule is an asymmetric top.
 Rotational symmetry number  1.
 Warning -- assumption of classical behavior for rotation
           may cause significant error
 Rotational temperatures (Kelvin)      0.11954     0.07740     0.06488
 Rotational constants (GHZ):           2.49077     1.61268     1.35187
 Zero-point vibrational energy     413436.2 (Joules/Mol)
                                   98.81362 (Kcal/Mol)
 Warning -- explicit consideration of  11 degrees of freedom as
           vibrations may cause significant error
 Vibrational temperatures:    128.80   202.37   227.86   272.84   308.20
          (Kelvin)            430.43   502.66   617.51   725.16   796.64
                              870.05   899.81  1101.55  1119.78  1176.79
                             1242.08  1260.57  1371.10  1383.09  1432.86
                             1477.53  1506.32  1528.68  1571.55  1594.24
                             1636.74  1675.91  1693.24  1745.34  1758.96
                             1801.86  1839.21  1919.82  2033.26  2058.15
                             2125.53  2131.49  2136.16  2145.80  2162.10
                             2171.36  4329.06  4366.25  4385.74  4416.19
                             4463.93  4476.75  4488.01  4503.06  4610.27
                             4627.10

 Zero-point correction=                           0.157470 (Hartree/Particle)
 Thermal correction to Energy=                    0.166045
 Thermal correction to Enthalpy=                  0.166989
 Thermal correction to Gibbs Free Energy=         0.124367
 Sum of electronic and zero-point Energies=           -422.949830
 Sum of electronic and thermal Energies=              -422.941255
 Sum of electronic and thermal Enthalpies=            -422.940311
 Sum of electronic and thermal Free Energies=         -422.982932

                     E (Thermal)             CV                S
                      KCal/Mol        Cal/Mol-Kelvin    Cal/Mol-Kelvin
 Total                  104.195             32.530             89.705
 Electronic               0.000              0.000              0.000
 Translational            0.889              2.981             40.409
 Rotational               0.889              2.981             28.472
 Vibrational            102.417             26.568             20.824
 Vibration     1          0.602              1.957              3.671
 Vibration     2          0.615              1.913              2.795
 Vibration     3          0.621              1.893              2.569
 Vibration     4          0.633              1.854              2.231
 Vibration     5          0.644              1.819              2.007
 Vibration     6          0.692              1.675              1.422
 Vibration     7          0.727              1.577              1.169
 Vibration     8          0.791              1.407              0.861
 Vibration     9          0.859              1.241              0.648
 Vibration    10          0.909              1.132              0.537
 Vibration    11          0.963              1.022              0.442

 Optimization completed on the basis of negligible forces.
    -- Stationary point found.
 Normal termination of Gaussian 09 at Tue Jan 28 10:19:13 2020.
