 Gaussian 09, Revision D.01,
 Gaussian 09:  ES64L-G09RevD.01 24-Apr-2013

 -----------------------------
 # b3lyp 6-31G(2df,p) opt Freq
 -----------------------------

 -----
 titel
 -----
 Symbolic Z-matrix:
 Charge =  0 Multiplicity = 1

 SCF Done:  E(RB3LYP) =  -423.119209187     A.U. after   13 cycles
 Optimization completed.
    -- Stationary point found.
 Normal termination of Gaussian 09 at Mon Jan 27 23:08:30 2020.

 ----------------------------------------------------------------------
 #N Geom=AllCheck Guess=TCheck SCRF=Check GenChk RB3LYP/6-31G(2df,p) Fr
 eq
 ----------------------------------------------------------------------

 Structure from the checkpoint file:  "/scratch/puck/g09_0d2f0973-4655-425f-ad41-a41cedf24fe9/Gau-162103.chk"
 -----
 titel
 -----
 Charge =  0 Multiplicity = 1

                         Standard orientation:
 ---------------------------------------------------------------------
 Center     Atomic      Atomic             Coordinates (Angstroms)
 Number     Number       Type             X           Y           Z
 ---------------------------------------------------------------------
      1          6           0       -1.533714    2.027264    0.180734
      2          6           0       -1.053917    0.701753   -0.394338
      3          6           0       -1.921967   -0.522824   -0.053795
      4          8           0       -1.250420   -1.678878   -0.567845
      5          6           0       -0.831402   -1.158554    0.700862
      6          6           0        0.119329    0.021063    0.420840
      7          6           0        1.397997   -0.296048   -0.298954
      8          6           0        2.702531   -0.288290    0.376703
      9          8           0        2.314867    0.793137   -0.470756
     10          1           0       -1.770805    1.937775    1.247173
     11          1           0       -0.762950    2.796469    0.072025
     12          1           0       -2.435759    2.377207   -0.332905
     13          1           0       -0.855240    0.790906   -1.466699
     14          1           0       -2.997594   -0.587087    0.068189
     15          1           0       -0.846869   -1.841377    1.542834
     16          1           0        0.329455    0.596633    1.327745
     17          1           0        1.282974   -0.924324   -1.181572
     18          1           0        2.756507   -0.053627    1.439592
     19          1           0        3.511572   -0.912836    0.000107
 ---------------------------------------------------------------------

 SCF Done:  E(RB3LYP) =  -423.119209187     A.U. after    1 cycles

 The electronic state is 1-A.
 Alpha  occ. eigenvalues --  -19.15412 -19.14722 -10.24022 -10.23773 -10.23405
 Alpha  occ. eigenvalues --  -10.23179 -10.19834 -10.19744 -10.18239  -1.08020
 Alpha  occ. eigenvalues --   -1.06608  -0.82194  -0.73124  -0.68049  -0.65294
 Alpha  occ. eigenvalues --   -0.63285  -0.59250  -0.55656  -0.52044  -0.48821
 Alpha  occ. eigenvalues --   -0.47913  -0.45828  -0.43290  -0.40520  -0.40217
 Alpha  occ. eigenvalues --   -0.38413  -0.38153  -0.35919  -0.34618  -0.32785
 Alpha  occ. eigenvalues --   -0.31154  -0.28166  -0.27001  -0.25118
 Alpha virt. eigenvalues --    0.07880   0.09216   0.10312   0.10937   0.11850
 Alpha virt. eigenvalues --    0.12698   0.12992   0.13397   0.15248   0.15733
 Alpha virt. eigenvalues --    0.16474   0.17094   0.17796   0.19291   0.20462

 Mulliken charges:
               1
     1  C   -0.417365
     2  C   -0.025040
     3  C    0.026364
     4  O   -0.249752
     5  C   -0.000747
     6  C   -0.060284
     7  C    0.084884
     8  C   -0.189460
     9  O   -0.241505
    10  H    0.114405
    11  H    0.134064
    12  H    0.118153
    13  H    0.088816
    14  H    0.103446
    15  H    0.103537
    16  H    0.078964
    17  H    0.106967
    18  H    0.108702
    19  H    0.115851
 Sum of Mulliken charges =   0.00000

 Dipole moment (field-independent basis, Debye):
    X=             -0.8247    Y=             -0.0319    Z=              1.8905  Tot=              2.0628
 Quadrupole moment (field-independent basis, Debye-Ang):
   XX=            -51.4657   YY=            -56.5462   ZZ=            -52.0816
   XY=             -5.7758   XZ=              1.1928   YZ=             -1.6317

  Exact polarizability:  88.901  -3.769  72.324   4.450  -1.477  64.593
 Approx polarizability: 116.319  -2.188 107.371   8.565  -1.367 103.608

                      1                      2                      3
                      A                      A                      A
 Frequencies --     65.8952               107.3741               172.4177
 Red. masses --      3.6138                 3.9686                 2.8286
 Frc consts  --      0.0092                 0.0270                 0.0495
 IR Inten    --      2.4380                 3.1905                 1.3076

                      4                      5                      6
                      A                      A                      A
 Frequencies --    221.6975               248.5057               261.7585
 Red. masses --      2.5416                 1.2018                 3.1601
 Frc consts  --      0.0736                 0.0437                 0.1276
 IR Inten    --      2.3640                 0.8241                 0.8623

                      7                      8                      9
                      A                      A                      A
 Frequencies --    363.7218               442.9118               489.8209
 Red. masses --      3.3874                 3.7783                 3.4974
 Frc consts  --      0.2640                 0.4367                 0.4944
 IR Inten    --      3.2295                 2.3927                 3.0074

                     10                     11                     12
                      A                      A                      A
 Frequencies --    542.3891               744.0475               826.5903
 Red. masses --      4.4201                 4.2413                 2.8775
 Frc consts  --      0.7661                 1.3834                 1.1583
 IR Inten    --     10.8815                 8.0707                 2.0592

                     13                     14                     15
                      A                      A                      A
 Frequencies --    851.1915               856.3260               858.6853
 Red. masses --      2.8943                 2.6895                 1.6488
 Frc consts  --      1.2355                 1.1620                 0.7163
 IR Inten    --      9.3243                16.1240                23.0557

                     16                     17                     18
                      A                      A                      A
 Frequencies --    880.8680               896.5713               934.7707
 Red. masses --      2.4597                 3.5429                 2.4148
 Frc consts  --      1.1245                 1.6780                 1.2432
 IR Inten    --     12.2907                16.1061                 1.5471

                     19                     20                     21
                      A                      A                      A
 Frequencies --    982.7187              1003.8878              1044.5562
 Red. masses --      1.5723                 2.1789                 1.2627
 Frc consts  --      0.8946                 1.2938                 0.8117
 IR Inten    --     10.7562                16.6937                 1.6387

                     22                     23                     24
                      A                      A                      A
 Frequencies --   1059.6016              1084.8984              1108.3133
 Red. masses --      1.6346                 2.3356                 1.3390
 Frc consts  --      1.0813                 1.6197                 0.9691
 IR Inten    --      6.6606                 1.5813                 2.6059

                     25                     26                     27
                      A                      A                      A
 Frequencies --   1125.1490              1152.6158              1171.4420
 Red. masses --      1.8555                 1.4611                 1.6513
 Frc consts  --      1.3840                 1.1437                 1.3351
 IR Inten    --      0.2658                 0.3748                 2.7054

                     28                     29                     30
                      A                      A                      A
 Frequencies --   1188.2172              1211.2574              1226.2253
 Red. masses --      1.7309                 1.4516                 1.3806
 Frc consts  --      1.4399                 1.2548                 1.2231
 IR Inten    --      1.1504                 4.7720                 6.8131

                     31                     32                     33
                      A                      A                      A
 Frequencies --   1245.2259              1267.1561              1286.8513
 Red. masses --      1.4421                 1.3829                 1.4598
 Frc consts  --      1.3175                 1.3083                 1.4243
 IR Inten    --      4.8959                 2.2653                 5.3198

                     34                     35                     36
                      A                      A                      A
 Frequencies --   1295.4299              1355.2005              1384.6197
 Red. masses --      1.7234                 1.7037                 3.1579
 Frc consts  --      1.7040                 1.8435                 3.5670
 IR Inten    --      4.1743                 8.1555                11.4644

                     37                     38                     39
                      A                      A                      A
 Frequencies --   1410.4210              1452.9761              1496.1965
 Red. masses --      1.2755                 1.7978                 1.0446
 Frc consts  --      1.4949                 2.2362                 1.3777
 IR Inten    --      5.2244                 7.7604                 3.9202

                     40                     41                     42
                      A                      A                      A
 Frequencies --   1498.6712              1528.1561              3027.4093
 Red. masses --      1.0496                 1.3584                 1.0357
 Frc consts  --      1.3889                 1.8691                 5.5926
 IR Inten    --      3.4070                 2.3006                23.6736

                     43                     44                     45
                      A                      A                      A
 Frequencies --   3061.5189              3066.1215              3078.5312
 Red. masses --      1.0857                 1.0848                 1.0503
 Frc consts  --      5.9957                 6.0089                 5.8650
 IR Inten    --      5.7208                12.0934                30.0306

                     46                     47                     48
                      A                      A                      A
 Frequencies --   3094.0177              3106.3078              3123.1280
 Red. masses --      1.0999                 1.1011                 1.0886
 Frc consts  --      6.2039                 6.2601                 6.2561
 IR Inten    --     38.5160                17.4821                11.0443

                     49                     50                     51
                      A                      A                      A
 Frequencies --   3164.6470              3173.7518              3189.0887
 Red. masses --      1.1187                 1.0868                 1.1013
 Frc consts  --      6.6012                 6.4496                 6.5992
 IR Inten    --     31.2749                17.0658                24.3363

 - Thermochemistry -
 -------------------
 Temperature   298.150 Kelvin.  Pressure   1.00000 Atm.
 Atom     1 has atomic number  6 and mass  12.00000

 Molecular mass:   126.06808 amu.
 Principal axes and moments of inertia in atomic units:
                           1         2         3
     Eigenvalues --   671.092641401.020221834.59256
           X            0.99796  -0.06367   0.00360
           Y            0.06368   0.99797  -0.00294
           Z           -0.00341   0.00316   0.99999
 This molecule is an asymmetric top.
 Rotational symmetry number  1.
 Warning -- assumption of classical behavior for rotation
           may cause significant error
 Rotational temperatures (Kelvin)      0.12906     0.06182     0.04721
 Rotational constants (GHZ):           2.68926     1.28816     0.98373
 Zero-point vibrational energy     415282.7 (Joules/Mol)
                                   99.25496 (Kcal/Mol)
 Warning -- explicit consideration of  10 degrees of freedom as
           vibrations may cause significant error
 Vibrational temperatures:     94.81   154.49   248.07   318.97   357.54
          (Kelvin)            376.61   523.31   637.25   704.74   780.38
                             1070.52  1189.28  1224.67  1232.06  1235.46
                             1267.37  1289.96  1344.92  1413.91  1444.37
                             1502.88  1524.53  1560.92  1594.61  1618.84
                             1658.35  1685.44  1709.58  1742.73  1764.26
                             1791.60  1823.15  1851.49  1863.83  1949.83
                             1992.16  2029.28  2090.51  2152.69  2156.25
                             2198.67  4355.76  4404.84  4411.46  4429.31
                             4451.60  4469.28  4493.48  4553.22  4566.32
                             4588.38

 Zero-point correction=                           0.158173 (Hartree/Particle)
 Thermal correction to Energy=                    0.166572
 Thermal correction to Enthalpy=                  0.167516
 Thermal correction to Gibbs Free Energy=         0.124670
 Sum of electronic and zero-point Energies=           -422.961036
 Sum of electronic and thermal Energies=              -422.952637
 Sum of electronic and thermal Enthalpies=            -422.951693
 Sum of electronic and thermal Free Energies=         -422.994539

                     E (Thermal)             CV                S
                      KCal/Mol        Cal/Mol-Kelvin    Cal/Mol-Kelvin
 Total                  104.525             31.548             90.176
 Electronic               0.000              0.000              0.000
 Translational            0.889              2.981             40.409
 Rotational               0.889              2.981             28.935
 Vibrational            102.748             25.586             20.833
 Vibration     1          0.597              1.971              4.272
 Vibration     2          0.606              1.943              3.316
 Vibration     3          0.626              1.876              2.409
 Vibration     4          0.648              1.808              1.945
 Vibration     5          0.662              1.765              1.741
 Vibration     6          0.669              1.743              1.650
 Vibration     7          0.737              1.547              1.106
 Vibration     8          0.803              1.377              0.818
 Vibration     9          0.846              1.273              0.684
 Vibration    10          0.897              1.156              0.560

 Normal termination of Gaussian 09 at Mon Jan 27 23:51:42 2020.
