 Gaussian 09, Revision D.01,
 Gaussian 09:  ES64L-G09RevD.01 24-Apr-2013

 -----------------------------
 # b3lyp 6-31G(2df,p) opt Freq
 -----------------------------

 -----
 titel
 -----
 Symbolic Z-matrix:
 Charge =  0 Multiplicity = 1

 SCF Done:  E(RB3LYP) =  -423.160671365     A.U. after   14 cycles
 Optimization completed.
    -- Stationary point found.
 Normal termination of Gaussian 09 at Mon Jan 27 16:27:52 2020.

 ----------------------------------------------------------------------
 #N Geom=AllCheck Guess=TCheck SCRF=Check GenChk RB3LYP/6-31G(2df,p) Fr
 eq
 ----------------------------------------------------------------------

 Structure from the checkpoint file:  "/scratch/puck/g09_f6da379d-11d5-45ea-975f-df57d13a7c66/Gau-109762.chk"
 -----
 titel
 -----
 Charge =  0 Multiplicity = 1

                         Standard orientation:
 ---------------------------------------------------------------------
 Center     Atomic      Atomic             Coordinates (Angstroms)
 Number     Number       Type             X           Y           Z
 ---------------------------------------------------------------------
      1          6           0        2.080431   -1.336913   -0.718524
      2          6           0        1.207804   -0.314658   -0.017063
      3          6           0        0.751087   -0.556102    1.409282
      4          6           0       -0.248819   -0.714566    0.308564
      5          6           0       -1.394045    0.226309    0.155818
      6          6           0       -2.778765   -0.263119    0.194332
      7          8           0       -2.164272    0.082783   -1.046318
      8          6           0        1.454105    1.103183   -0.400938
      9          8           0        1.040817    2.072278    0.193345
     10          1           0        1.965826   -1.278564   -1.806543
     11          1           0        3.139867   -1.185913   -0.482799
     12          1           0        1.816270   -2.352613   -0.411703
     13          1           0        1.122238   -1.444447    1.908253
     14          1           0        0.671399    0.330627    2.029423
     15          1           0       -0.484387   -1.730110    0.001037
     16          1           0       -1.201638    1.256328    0.445675
     17          1           0       -2.969852   -1.325892    0.342086
     18          1           0       -3.576134    0.399940    0.527568
     19          1           0        2.073266    1.225352   -1.318050
 ---------------------------------------------------------------------

 SCF Done:  E(RB3LYP) =  -423.160671365     A.U. after    1 cycles

 The electronic state is 1-A.
 Alpha  occ. eigenvalues --  -19.14811 -19.13856 -10.27112 -10.23830 -10.23356
 Alpha  occ. eigenvalues --  -10.21456 -10.21385 -10.20192 -10.19392  -1.06811
 Alpha  occ. eigenvalues --   -1.04563  -0.88395  -0.74369  -0.68478  -0.65358
 Alpha  occ. eigenvalues --   -0.64901  -0.58910  -0.55063  -0.50866  -0.49718
 Alpha  occ. eigenvalues --   -0.46440  -0.44662  -0.44177  -0.42843  -0.40228
 Alpha  occ. eigenvalues --   -0.39685  -0.39205  -0.38143  -0.36818  -0.33622
 Alpha  occ. eigenvalues --   -0.30779  -0.27614  -0.27029  -0.24957
 Alpha virt. eigenvalues --   -0.02886   0.07860   0.09284   0.10999   0.11690
 Alpha virt. eigenvalues --    0.12570   0.13322   0.13651   0.14782   0.15656
 Alpha virt. eigenvalues --    0.17061   0.17658   0.19288   0.19908   0.21409

 Mulliken charges:
               1
     1  C   -0.484255
     2  C    0.232169
     3  C   -0.331654
     4  C   -0.062907
     5  C    0.073827
     6  C   -0.187574
     7  O   -0.241873
     8  C    0.099953
     9  O   -0.272562
    10  H    0.132251
    11  H    0.127120
    12  H    0.124838
    13  H    0.119720
    14  H    0.140881
    15  H    0.097478
    16  H    0.127614
    17  H    0.109617
    18  H    0.117066
    19  H    0.078291
 Sum of Mulliken charges =   0.00000

 Dipole moment (field-independent basis, Debye):
    X=              0.7987    Y=             -2.6933    Z=              1.0281  Tot=              2.9914
 Quadrupole moment (field-independent basis, Debye-Ang):
   XX=            -49.9950   YY=            -56.4970   ZZ=            -54.4000
   XY=             -1.7639   XZ=             -5.1000   YZ=             -1.0571

  Exact polarizability:  90.861   1.048  74.949  -5.890  -0.673  67.222
 Approx polarizability: 118.172   3.773 115.597  -6.282   1.478 106.987

                      1                      2                      3
                      A                      A                      A
 Frequencies --     69.7803               119.4093               146.9337
 Red. masses --      4.3902                 4.3312                 3.1440
 Frc consts  --      0.0126                 0.0364                 0.0400
 IR Inten    --      2.1774                 8.3479                 5.1366

                      4                      5                      6
                      A                      A                      A
 Frequencies --    164.8822               185.0218               254.2673
 Red. masses --      2.2601                 1.1360                 4.0023
 Frc consts  --      0.0362                 0.0229                 0.1525
 IR Inten    --      2.4441                 0.2642                 4.7412

                      7                      8                      9
                      A                      A                      A
 Frequencies --    298.9179               341.2365               363.4908
 Red. masses --      2.7076                 2.7584                 2.3786
 Frc consts  --      0.1425                 0.1892                 0.1852
 IR Inten    --      1.6401                 0.4756                 2.9092

                     10                     11                     12
                      A                      A                      A
 Frequencies --    409.8015               504.1830               589.3857
 Red. masses --      3.9153                 3.4162                 4.2905
 Frc consts  --      0.3874                 0.5117                 0.8781
 IR Inten    --      0.7612                 8.8580                 6.1369

                     13                     14                     15
                      A                      A                      A
 Frequencies --    756.8041               773.6204               834.7737
 Red. masses --      3.4732                 2.0331                 4.1798
 Frc consts  --      1.1720                 0.7169                 1.7161
 IR Inten    --      2.2893                 1.2188                19.4273

                     16                     17                     18
                      A                      A                      A
 Frequencies --    860.8045               908.2148               931.6817
 Red. masses --      3.2433                 2.0345                 1.6105
 Frc consts  --      1.4159                 0.9887                 0.8236
 IR Inten    --     29.4153                 8.3110                42.7050

                     19                     20                     21
                      A                      A                      A
 Frequencies --    944.0619               979.3464              1022.0726
 Red. masses --      1.7585                 1.6566                 1.4999
 Frc consts  --      0.9234                 0.9362                 0.9232
 IR Inten    --     36.8498                16.2959                 4.9261

                     22                     23                     24
                      A                      A                      A
 Frequencies --   1067.0506              1079.9613              1103.4437
 Red. masses --      1.5736                 1.2765                 1.2898
 Frc consts  --      1.0556                 0.8772                 0.9253
 IR Inten    --      3.8534                 3.3409                 0.9245

                     25                     26                     27
                      A                      A                      A
 Frequencies --   1107.0070              1127.4499              1156.7420
 Red. masses --      1.9525                 1.6647                 1.3692
 Frc consts  --      1.4097                 1.2467                 1.0794
 IR Inten    --     17.2613                 3.3071                 1.2726

                     28                     29                     30
                      A                      A                      A
 Frequencies --   1177.6540              1211.0910              1251.1495
 Red. masses --      1.3370                 2.2629                 1.9030
 Frc consts  --      1.0925                 1.9555                 1.7551
 IR Inten    --      5.0612                 6.0247                 3.6489

                     31                     32                     33
                      A                      A                      A
 Frequencies --   1294.2490              1325.1094              1340.4987
 Red. masses --      1.6075                 1.8217                 2.5112
 Frc consts  --      1.5865                 1.8846                 2.6586
 IR Inten    --      6.7206                 9.5532                24.5626

                     34                     35                     36
                      A                      A                      A
 Frequencies --   1419.1413              1436.7837              1456.3116
 Red. masses --      1.2729                 1.2463                 1.2581
 Frc consts  --      1.5104                 1.5159                 1.5721
 IR Inten    --      3.9721                 5.2462                10.9159

                     37                     38                     39
                      A                      A                      A
 Frequencies --   1484.7337              1491.1215              1500.1942
 Red. masses --      1.6175                 1.0626                 1.0610
 Frc consts  --      2.1009                 1.3920                 1.4069
 IR Inten    --      8.1789                 2.3984                14.7313

                     40                     41                     42
                      A                      A                      A
 Frequencies --   1531.6466              1800.7667              2878.1960
 Red. masses --      1.4193                10.1032                 1.0828
 Frc consts  --      1.9617                19.3030                 5.2847
 IR Inten    --      2.9068               128.5350               123.3800

                     43                     44                     45
                      A                      A                      A
 Frequencies --   3029.8772              3078.1233              3091.7198
 Red. masses --      1.0364                 1.0503                 1.1015
 Frc consts  --      5.6057                 5.8633                 6.2033
 IR Inten    --     28.4811                30.6727                18.8712

                     46                     47                     48
                      A                      A                      A
 Frequencies --   3110.2251              3132.8710              3142.5531
 Red. masses --      1.1004                 1.0536                 1.0880
 Frc consts  --      6.2714                 6.0928                 6.3308
 IR Inten    --     13.6457                 9.0212                 4.5387

                     49                     50                     51
                      A                      A                      A
 Frequencies --   3152.6989              3166.8750              3226.3432
 Red. masses --      1.0952                 1.1121                 1.1175
 Frc consts  --      6.4140                 6.5713                 6.8536
 IR Inten    --      1.9232                30.0068                 2.2349

 - Thermochemistry -
 -------------------
 Temperature   298.150 Kelvin.  Pressure   1.00000 Atm.
 Atom     1 has atomic number  6 and mass  12.00000

 Molecular mass:   126.06808 amu.
 Principal axes and moments of inertia in atomic units:
                           1         2         3
     Eigenvalues --   718.681421511.450421761.86806
           X            0.99901  -0.03385  -0.02895
           Y            0.03412   0.99938   0.00888
           Z            0.02863  -0.00986   0.99954
 This molecule is an asymmetric top.
 Rotational symmetry number  1.
 Warning -- assumption of classical behavior for rotation
           may cause significant error
 Rotational temperatures (Kelvin)      0.12052     0.05731     0.04916
 Rotational constants (GHZ):           2.51118     1.19405     1.02433
 Zero-point vibrational energy     411696.5 (Joules/Mol)
                                   98.39782 (Kcal/Mol)
 Warning -- explicit consideration of  12 degrees of freedom as
           vibrations may cause significant error
 Vibrational temperatures:    100.40   171.80   211.40   237.23   266.20
          (Kelvin)            365.83   430.08   490.96   522.98   589.61
                              725.41   847.99  1088.87  1113.07  1201.05
                             1238.50  1306.72  1340.48  1358.29  1409.06
                             1470.53  1535.25  1553.82  1587.61  1592.73
                             1622.15  1664.29  1694.38  1742.49  1800.12
                             1862.13  1906.53  1928.68  2041.83  2067.21
                             2095.30  2136.20  2145.39  2158.44  2203.70
                             2590.90  4141.08  4359.31  4428.73  4448.29
                             4474.91  4507.50  4521.43  4536.02  4556.42
                             4641.98

 Zero-point correction=                           0.156807 (Hartree/Particle)
 Thermal correction to Energy=                    0.166084
 Thermal correction to Enthalpy=                  0.167029
 Thermal correction to Gibbs Free Energy=         0.122501
 Sum of electronic and zero-point Energies=           -423.003864
 Sum of electronic and thermal Energies=              -422.994587
 Sum of electronic and thermal Enthalpies=            -422.993643
 Sum of electronic and thermal Free Energies=         -423.038171

                     E (Thermal)             CV                S
                      KCal/Mol        Cal/Mol-Kelvin    Cal/Mol-Kelvin
 Total                  104.220             33.808             93.717
 Electronic               0.000              0.000              0.000
 Translational            0.889              2.981             40.409
 Rotational               0.889              2.981             29.039
 Vibrational            102.442             27.847             24.270
 Vibration     1          0.598              1.969              4.160
 Vibration     2          0.609              1.933              3.110
 Vibration     3          0.617              1.906              2.712
 Vibration     4          0.623              1.886              2.493
 Vibration     5          0.631              1.860              2.277
 Vibration     6          0.665              1.756              1.701
 Vibration     7          0.692              1.676              1.423
 Vibration     8          0.721              1.593              1.206
 Vibration     9          0.737              1.547              1.107
 Vibration    10          0.774              1.449              0.927
 Vibration    11          0.859              1.241              0.648
 Vibration    12          0.947              1.054              0.468

 Optimization completed.
    -- Stationary point found.
 Normal termination of Gaussian 09 at Mon Jan 27 17:05:47 2020.
