 Gaussian 09, Revision D.01,
 Gaussian 09:  ES64L-G09RevD.01 24-Apr-2013

 -----------------------------
 # b3lyp 6-31G(2df,p) opt Freq
 -----------------------------

 -----
 titel
 -----
 Symbolic Z-matrix:
 Charge =  0 Multiplicity = 1

 SCF Done:  E(RB3LYP) =  -423.226841206     A.U. after   12 cycles
 Optimization completed.
    -- Stationary point found.
 Normal termination of Gaussian 09 at Mon Jan 27 11:15:11 2020.

 ----------------------------------------------------------------------
 #N Geom=AllCheck Guess=TCheck SCRF=Check GenChk RB3LYP/6-31G(2df,p) Fr
 eq
 ----------------------------------------------------------------------

 Structure from the checkpoint file:  "/scratch/puck/g09_9ba093c2-6d15-437b-8fc0-5d7d5ea163c6/Gau-162843.chk"
 -----
 titel
 -----
 Charge =  0 Multiplicity = 1

                         Standard orientation:
 ---------------------------------------------------------------------
 Center     Atomic      Atomic             Coordinates (Angstroms)
 Number     Number       Type             X           Y           Z
 ---------------------------------------------------------------------
      1          6           0       -1.251373    1.102836    0.407210
      2          6           0       -1.258669   -0.426298    0.546992
      3          6           0        0.000000   -0.928717    1.297586
      4          6           0        1.258669   -0.426298    0.546992
      5          6           0        1.251373    1.102836    0.407210
      6          6           0        0.000000    1.248520   -0.482359
      7          6           0        0.000000   -0.128042   -1.268452
      8          8           0       -1.153251   -0.820978   -0.830659
      9          8           0        1.153252   -0.820978   -0.830658
     10          1           0       -2.162803    1.425348   -0.102727
     11          1           0       -1.166459    1.643491    1.353472
     12          1           0       -2.179882   -0.849944    0.951511
     13          1           0        0.000000   -0.575559    2.335311
     14          1           0        0.000001   -2.022526    1.309534
     15          1           0        2.179881   -0.849944    0.951513
     16          1           0        1.166459    1.643494    1.353470
     17          1           0        2.162804    1.425346   -0.102728
     18          1           0        0.000000    2.122667   -1.132619
     19          1           0        0.000001   -0.095743   -2.357268
 ---------------------------------------------------------------------

 SCF Done:  E(RB3LYP) =  -423.226841206     A.U. after    1 cycles

 The electronic state is 1-A.
 Alpha  occ. eigenvalues --  -19.13444 -19.13444 -10.26719 -10.23303 -10.23303
 Alpha  occ. eigenvalues --  -10.19187 -10.18345 -10.18344 -10.18340  -1.07515
 Alpha  occ. eigenvalues --   -1.00091  -0.82140  -0.76365  -0.72528  -0.66568
 Alpha  occ. eigenvalues --   -0.61592  -0.57754  -0.54587  -0.53499  -0.46138
 Alpha  occ. eigenvalues --   -0.45330  -0.45253  -0.44217  -0.40795  -0.40755
 Alpha  occ. eigenvalues --   -0.39548  -0.37936  -0.36682  -0.32757  -0.31987
 Alpha  occ. eigenvalues --   -0.30940  -0.30576  -0.27064  -0.24623
 Alpha virt. eigenvalues --    0.08047   0.10508   0.13438   0.13737   0.14004
 Alpha virt. eigenvalues --    0.14372   0.15278   0.15402   0.16452   0.16673
 Alpha virt. eigenvalues --    0.17011   0.18162   0.19171   0.21188   0.22045

 Mulliken charges:
               1
     1  C   -0.212984
     2  C    0.075420
     3  C   -0.231368
     4  C    0.075420
     5  C   -0.212984
     6  C   -0.100272
     7  C    0.199631
     8  O   -0.258351
     9  O   -0.258351
    10  H    0.104729
    11  H    0.095070
    12  H    0.076555
    13  H    0.094836
    14  H    0.114334
    15  H    0.076555
    16  H    0.095070
    17  H    0.104729
    18  H    0.073943
    19  H    0.088019
 Sum of Mulliken charges =   0.00000

 Dipole moment (field-independent basis, Debye):
    X=              0.0000    Y=              1.7714    Z=              1.6998  Tot=              2.4550
 Quadrupole moment (field-independent basis, Debye-Ang):
   XX=            -53.8966   YY=            -54.2194   ZZ=            -51.3127
   XY=              0.0000   XZ=              0.0000   YZ=             -3.0978

  Exact polarizability:  73.430   0.000  69.269   0.000  -2.507  72.191
 Approx polarizability: 106.001   0.000 101.785   0.000   0.768 110.031

                      1                      2                      3
                      A                      A                      A
 Frequencies --    303.1977               359.9941               426.9729
 Red. masses --      2.5673                 1.9175                 4.2274
 Frc consts  --      0.1391                 0.1464                 0.4541
 IR Inten    --      0.3068                 0.4509                 4.2418

                      4                      5                      6
                      A                      A                      A
 Frequencies --    472.9452               529.1101               559.2461
 Red. masses --      1.6862                 5.0176                 5.9274
 Frc consts  --      0.2222                 0.8276                 1.0922
 IR Inten    --      0.0420                 0.3393                 2.8718

                      7                      8                      9
                      A                      A                      A
 Frequencies --    610.7218               705.0323               797.6185
 Red. masses --      5.7633                 4.4175                 2.8869
 Frc consts  --      1.2665                 1.2937                 1.0821
 IR Inten    --     11.1296                 0.9715                 1.1638

                     10                     11                     12
                      A                      A                      A
 Frequencies --    798.6802               839.2928               851.1928
 Red. masses --      3.9040                 2.8149                 3.1017
 Frc consts  --      1.4673                 1.1683                 1.3240
 IR Inten    --      0.1937                 3.6513                15.1191

                     13                     14                     15
                      A                      A                      A
 Frequencies --    886.5660               906.4520               919.7086
 Red. masses --      2.2823                 2.6553                 3.1415
 Frc consts  --      1.0569                 1.2854                 1.5656
 IR Inten    --      0.0047                 6.4121                 0.0596

                     16                     17                     18
                      A                      A                      A
 Frequencies --    925.1232               937.6336               982.2222
 Red. masses --      2.9265                 2.0312                 3.8837
 Frc consts  --      1.4757                 1.0521                 2.2076
 IR Inten    --     40.4549                13.5177                67.0067

                     19                     20                     21
                      A                      A                      A
 Frequencies --    999.8118              1005.1366              1038.0204
 Red. masses --      1.8322                 1.8114                 2.0274
 Frc consts  --      1.0791                 1.0783                 1.2871
 IR Inten    --     38.9012                 7.8003                25.6443

                     22                     23                     24
                      A                      A                      A
 Frequencies --   1039.0654              1087.3958              1112.1024
 Red. masses --      1.8773                 3.8350                 1.0300
 Frc consts  --      1.1942                 2.6717                 0.7506
 IR Inten    --      0.0054                29.1887                 0.9226

                     25                     26                     27
                      A                      A                      A
 Frequencies --   1112.6493              1189.8939              1195.0932
 Red. masses --      2.7038                 1.2937                 1.1570
 Frc consts  --      1.9721                 1.0792                 0.9736
 IR Inten    --     53.4561                 2.9199                 3.3021

                     28                     29                     30
                      A                      A                      A
 Frequencies --   1242.9421              1254.5733              1272.7930
 Red. masses --      1.8670                 1.6575                 1.3352
 Frc consts  --      1.6994                 1.5371                 1.2744
 IR Inten    --      6.9431                 7.4058                 7.5428

                     31                     32                     33
                      A                      A                      A
 Frequencies --   1302.3680              1311.4549              1320.0438
 Red. masses --      1.6042                 1.3644                 1.7475
 Frc consts  --      1.6032                 1.3826                 1.7941
 IR Inten    --     12.1014                 1.6076                 8.5932

                     34                     35                     36
                      A                      A                      A
 Frequencies --   1326.3960              1355.7821              1368.1237
 Red. masses --      1.2717                 1.4744                 1.4276
 Frc consts  --      1.3182                 1.5968                 1.5744
 IR Inten    --      0.5958                 6.6449                 0.0509

                     37                     38                     39
                      A                      A                      A
 Frequencies --   1382.2999              1391.2611              1468.1495
 Red. masses --      1.4582                 1.3853                 1.0966
 Frc consts  --      1.6416                 1.5799                 1.3927
 IR Inten    --      8.6504                10.3420                 3.1392

                     40                     41                     42
                      A                      A                      A
 Frequencies --   1484.4526              1502.3224              3041.3625
 Red. masses --      1.1072                 1.1022                 1.0617
 Frc consts  --      1.4375                 1.4657                 5.7859
 IR Inten    --      1.1253                 5.6507                19.5399

                     43                     44                     45
                      A                      A                      A
 Frequencies --   3058.8519              3062.3998              3093.6690
 Red. masses --      1.0589                 1.0603                 1.0989
 Frc consts  --      5.8372                 5.8585                 6.1965
 IR Inten    --     15.8905                24.9178                19.0864

                     46                     47                     48
                      A                      A                      A
 Frequencies --   3095.5075              3099.2966              3107.7952
 Red. masses --      1.0879                 1.0921                 1.1069
 Frc consts  --      6.1418                 6.1807                 6.2990
 IR Inten    --     59.7655                38.3524                24.8894

                     49                     50                     51
                      A                      A                      A
 Frequencies --   3111.0058              3117.1136              3131.9017
 Red. masses --      1.0980                 1.0975                 1.0913
 Frc consts  --      6.2612                 6.2831                 6.3068
 IR Inten    --     29.6191                16.8415                42.8928

 - Thermochemistry -
 -------------------
 Temperature   298.150 Kelvin.  Pressure   1.00000 Atm.
 Atom     1 has atomic number  6 and mass  12.00000

 Molecular mass:   126.06808 amu.
 Principal axes and moments of inertia in atomic units:
                           1         2         3
     Eigenvalues --   711.65473 834.83608 876.00122
           X            1.00000   0.00000   0.00000
           Y            0.00000   0.94862  -0.31643
           Z            0.00000   0.31643   0.94862
 This molecule is an asymmetric top.
 Rotational symmetry number  1.
 Warning -- assumption of classical behavior for rotation
           may cause significant error
 Rotational temperatures (Kelvin)      0.12171     0.10375     0.09887
 Rotational constants (GHZ):           2.53598     2.16179     2.06020
 Zero-point vibrational energy     433602.9 (Joules/Mol)
                                  103.63358 (Kcal/Mol)
 Warning -- explicit consideration of   7 degrees of freedom as
           vibrations may cause significant error
 Vibrational temperatures:    436.23   517.95   614.32   680.46   761.27
          (Kelvin)            804.63   878.69  1014.38  1147.59  1149.12
                             1207.55  1224.68  1275.57  1304.18  1323.25
                             1331.04  1349.04  1413.20  1438.50  1446.17
                             1493.48  1494.98  1564.52  1600.07  1600.85
                             1711.99  1719.47  1788.31  1805.05  1831.26
                             1873.81  1886.89  1899.25  1908.39  1950.67
                             1968.42  1988.82  2001.71  2112.34  2135.79
                             2161.50  4375.84  4401.00  4406.10  4451.09
                             4453.74  4459.19  4471.42  4476.04  4484.83
                             4506.10

 Zero-point correction=                           0.165151 (Hartree/Particle)
 Thermal correction to Energy=                    0.170892
 Thermal correction to Enthalpy=                  0.171836
 Thermal correction to Gibbs Free Energy=         0.135452
 Sum of electronic and zero-point Energies=           -423.061691
 Sum of electronic and thermal Energies=              -423.055949
 Sum of electronic and thermal Enthalpies=            -423.055005
 Sum of electronic and thermal Free Energies=         -423.091389

                     E (Thermal)             CV                S
                      KCal/Mol        Cal/Mol-Kelvin    Cal/Mol-Kelvin
 Total                  107.236             25.752             76.577
 Electronic               0.000              0.000              0.000
 Translational            0.889              2.981             40.409
 Rotational               0.889              2.981             27.745
 Vibrational            105.459             19.791              8.423
 Vibration     1          0.695              1.668              1.399
 Vibration     2          0.734              1.555              1.122
 Vibration     3          0.789              1.412              0.869
 Vibration     4          0.830              1.310              0.729
 Vibration     5          0.884              1.186              0.589
 Vibration     6          0.915              1.120              0.525
 Vibration     7          0.970              1.009              0.432

 Optimization completed.
    -- Stationary point found.
 Normal termination of Gaussian 09 at Mon Jan 27 12:02:17 2020.
