 Gaussian 09, Revision D.01,
 Gaussian 09:  ES64L-G09RevD.01 24-Apr-2013

 -----------------------------
 # b3lyp 6-31G(2df,p) opt Freq
 -----------------------------

 -----
 titel
 -----
 Symbolic Z-matrix:
 Charge =  0 Multiplicity = 1

 SCF Done:  E(RB3LYP) =  -423.172927816     A.U. after   14 cycles
 Optimization completed.
    -- Stationary point found.
 Normal termination of Gaussian 09 at Tue Jan 28 03:55:42 2020.

 ----------------------------------------------------------------------
 #N Geom=AllCheck Guess=TCheck SCRF=Check GenChk RB3LYP/6-31G(2df,p) Fr
 eq
 ----------------------------------------------------------------------

 Structure from the checkpoint file:  "/scratch/puck/g09_4e5b1750-72bd-4411-bc12-1ecd852ed5cc/Gau-115527.chk"
 -----
 titel
 -----
 Charge =  0 Multiplicity = 1

                         Standard orientation:
 ---------------------------------------------------------------------
 Center     Atomic      Atomic             Coordinates (Angstroms)
 Number     Number       Type             X           Y           Z
 ---------------------------------------------------------------------
      1          8           0       -2.812921   -0.323563   -0.075787
      2          6           0       -1.426704   -0.168216   -0.370947
      3          6           0       -0.675410   -1.122375    0.561872
      4          6           0        0.827081   -0.873747    0.596331
      5          6           0        1.678639   -0.986261   -0.688469
      6          8           0        2.210230    0.341931   -0.507691
      7          6           0        1.294880    0.602904    0.600871
      8          6           0        0.241460    1.607245    0.244201
      9          6           0       -0.968566    1.258983   -0.192170
     10          1           0       -3.315625    0.189955   -0.716121
     11          1           0       -1.241152   -0.463655   -1.418329
     12          1           0       -1.089705   -0.971790    1.565535
     13          1           0       -0.894264   -2.158470    0.281477
     14          1           0        1.274985   -1.438185    1.417142
     15          1           0        2.467035   -1.747726   -0.684248
     16          1           0        1.109017   -1.077491   -1.623954
     17          1           0        1.858960    0.926091    1.483750
     18          1           0        0.514650    2.656808    0.320334
     19          1           0       -1.690651    2.026319   -0.467901
 ---------------------------------------------------------------------

 SCF Done:  E(RB3LYP) =  -423.172927816     A.U. after    1 cycles

 The electronic state is 1-A.
 Alpha  occ. eigenvalues --  -19.13764 -19.12650 -10.23870 -10.23242 -10.22574
 Alpha  occ. eigenvalues --  -10.19328 -10.18827 -10.18450 -10.18401  -1.02984
 Alpha  occ. eigenvalues --   -1.02007  -0.81959  -0.76153  -0.71671  -0.68012
 Alpha  occ. eigenvalues --   -0.61196  -0.58591  -0.52412  -0.50703  -0.49982
 Alpha  occ. eigenvalues --   -0.47146  -0.45289  -0.43238  -0.41861  -0.40667
 Alpha  occ. eigenvalues --   -0.38749  -0.37240  -0.36234  -0.32977  -0.30734
 Alpha  occ. eigenvalues --   -0.29545  -0.27171  -0.26217  -0.24056
 Alpha virt. eigenvalues --    0.00338   0.07677   0.08185   0.10062   0.11017
 Alpha virt. eigenvalues --    0.12604   0.13980   0.15201   0.16636   0.16983
 Alpha virt. eigenvalues --    0.18868   0.19560   0.21056   0.22004   0.22670

 Mulliken charges:
               1
     1  O   -0.436564
     2  C    0.076421
     3  C   -0.233052
     4  C   -0.080000
     5  C   -0.085928
     6  O   -0.294891
     7  C    0.084128
     8  C   -0.068211
     9  C   -0.085141
    10  H    0.281314
    11  H    0.080155
    12  H    0.116740
    13  H    0.105104
    14  H    0.085354
    15  H    0.101268
    16  H    0.096545
    17  H    0.076895
    18  H    0.094177
    19  H    0.085687
 Sum of Mulliken charges =   0.00000

 Dipole moment (field-independent basis, Debye):
    X=             -0.9731    Y=             -0.1400    Z=             -0.2187  Tot=              1.0072
 Quadrupole moment (field-independent basis, Debye-Ang):
   XX=            -57.2010   YY=            -50.6827   ZZ=            -51.9248
   XY=             -5.3690   XZ=              6.6265   YZ=              0.6372

  Exact polarizability:  88.694  -1.664  76.344   5.812   2.041  62.289
 Approx polarizability: 129.250   3.588 108.039   9.374   4.040  97.541

                      1                      2                      3
                      A                      A                      A
 Frequencies --     64.5659               151.3997               228.9256
 Red. masses --      4.2095                 2.4581                 4.5346
 Frc consts  --      0.0103                 0.0332                 0.1400
 IR Inten    --      2.6344                 0.4959                 3.5419

                      4                      5                      6
                      A                      A                      A
 Frequencies --    257.0941               315.5910               350.5091
 Red. masses --      1.1197                 2.4863                 3.4199
 Frc consts  --      0.0436                 0.1459                 0.2475
 IR Inten    --    104.9221                 2.3115                 4.5714

                      7                      8                      9
                      A                      A                      A
 Frequencies --    403.2446               450.8611               551.7406
 Red. masses --      2.5244                 4.9391                 3.9955
 Frc consts  --      0.2418                 0.5915                 0.7166
 IR Inten    --      8.3960                 1.4861                 3.4692

                     10                     11                     12
                      A                      A                      A
 Frequencies --    589.9243               718.2585               726.7768
 Red. masses --      3.4077                 2.3557                 3.8902
 Frc consts  --      0.6987                 0.7160                 1.2107
 IR Inten    --      1.1852                 4.4211                10.6688

                     13                     14                     15
                      A                      A                      A
 Frequencies --    777.8097               839.8526               887.9578
 Red. masses --      1.7686                 2.4166                 2.4690
 Frc consts  --      0.6304                 1.0043                 1.1470
 IR Inten    --      8.0283                 2.9230                13.2211

                     16                     17                     18
                      A                      A                      A
 Frequencies --    901.5711               957.5371               988.7448
 Red. masses --      2.4385                 2.8985                 2.1752
 Frc consts  --      1.1678                 1.5658                 1.2529
 IR Inten    --      5.6182                12.7866                35.5316

                     19                     20                     21
                      A                      A                      A
 Frequencies --   1005.3477              1009.1981              1015.9948
 Red. masses --      1.6556                 5.2232                 2.3017
 Frc consts  --      0.9859                 3.1343                 1.3998
 IR Inten    --     15.1184                69.9612                14.8057

                     22                     23                     24
                      A                      A                      A
 Frequencies --   1064.6442              1087.9008              1101.5346
 Red. masses --      2.4022                 1.7053                 2.8796
 Frc consts  --      1.6042                 1.1891                 2.0586
 IR Inten    --     48.1818                 2.1573                52.2546

                     25                     26                     27
                      A                      A                      A
 Frequencies --   1132.4261              1160.5720              1178.6593
 Red. masses --      1.7411                 1.1402                 1.1795
 Frc consts  --      1.3155                 0.9048                 0.9655
 IR Inten    --      1.1007                 0.2933                 2.7820

                     28                     29                     30
                      A                      A                      A
 Frequencies --   1204.0565              1261.3060              1279.2619
 Red. masses --      1.1400                 1.3561                 1.2880
 Frc consts  --      0.9737                 1.2711                 1.2419
 IR Inten    --     18.8018                 7.4132                 0.7998

                     31                     32                     33
                      A                      A                      A
 Frequencies --   1302.7789              1323.1348              1344.0908
 Red. masses --      1.4346                 1.4630                 1.3936
 Frc consts  --      1.4346                 1.5090                 1.4834
 IR Inten    --     11.0097                13.8592                 3.7239

                     34                     35                     36
                      A                      A                      A
 Frequencies --   1347.3800              1379.3212              1389.7141
 Red. masses --      1.2537                 1.5024                 1.6023
 Frc consts  --      1.3410                 1.6841                 1.8232
 IR Inten    --     21.0954                 5.4005                 6.2857

                     37                     38                     39
                      A                      A                      A
 Frequencies --   1408.5725              1436.4560              1485.1556
 Red. masses --      1.7177                 1.5007                 1.0939
 Frc consts  --      2.0080                 1.8244                 1.4216
 IR Inten    --     16.5894                 3.2345                 2.2229

                     40                     41                     42
                      A                      A                      A
 Frequencies --   1528.8360              1712.7752              2941.1530
 Red. masses --      1.1001                 7.0832                 1.0806
 Frc consts  --      1.5150                12.2429                 5.5075
 IR Inten    --      0.8283                 0.5584                35.7748

                     43                     44                     45
                      A                      A                      A
 Frequencies --   3002.4908              3029.4800              3038.1138
 Red. masses --      1.0606                 1.0856                 1.0600
 Frc consts  --      5.6336                 5.8704                 5.7648
 IR Inten    --     76.7771                37.9949                21.3671

                     46                     47                     48
                      A                      A                      A
 Frequencies --   3050.6619              3079.6891              3084.1083
 Red. masses --      1.1022                 1.1020                 1.0894
 Frc consts  --      6.0437                 6.1581                 6.1052
 IR Inten    --     36.8643                26.9239                49.6647

                     49                     50                     51
                      A                      A                      A
 Frequencies --   3132.1218              3163.7474              3817.1007
 Red. masses --      1.0849                 1.0955                 1.0663
 Frc consts  --      6.2704                 6.4603                 9.1534
 IR Inten    --     13.9578                25.1550                19.5369

 - Thermochemistry -
 -------------------
 Temperature   298.150 Kelvin.  Pressure   1.00000 Atm.
 Atom     1 has atomic number  8 and mass  15.99491

 Molecular mass:   126.06808 amu.
 Principal axes and moments of inertia in atomic units:
                           1         2         3
     Eigenvalues --   558.036871346.127301633.97525
           X            0.99968  -0.02133   0.01375
           Y            0.02125   0.99975   0.00626
           Z           -0.01388  -0.00596   0.99989
 This molecule is an asymmetric top.
 Rotational symmetry number  1.
 Warning -- assumption of classical behavior for rotation
           may cause significant error
 Rotational temperatures (Kelvin)      0.15521     0.06434     0.05301
 Rotational constants (GHZ):           3.23409     1.34069     1.10451
 Zero-point vibrational energy     422641.5 (Joules/Mol)
                                  101.01375 (Kcal/Mol)
 Warning -- explicit consideration of  10 degrees of freedom as
           vibrations may cause significant error
 Vibrational temperatures:     92.90   217.83   329.37   369.90   454.06
          (Kelvin)            504.30   580.18   648.69   793.83   848.77
                             1033.41  1045.67  1119.09  1208.36  1277.57
                             1297.16  1377.68  1422.58  1446.47  1452.01
                             1461.79  1531.78  1565.24  1584.86  1629.31
                             1669.80  1695.83  1732.37  1814.74  1840.57
                             1874.41  1903.69  1933.84  1938.58  1984.53
                             1999.49  2026.62  2066.74  2136.80  2199.65
                             2464.30  4231.66  4319.91  4358.74  4371.16
                             4389.22  4430.98  4437.34  4506.42  4551.92
                             5491.95

 Zero-point correction=                           0.160976 (Hartree/Particle)
 Thermal correction to Energy=                    0.168853
 Thermal correction to Enthalpy=                  0.169798
 Thermal correction to Gibbs Free Energy=         0.128383
 Sum of electronic and zero-point Energies=           -423.011952
 Sum of electronic and thermal Energies=              -423.004074
 Sum of electronic and thermal Enthalpies=            -423.003130
 Sum of electronic and thermal Free Energies=         -423.044545

                     E (Thermal)             CV                S
                      KCal/Mol        Cal/Mol-Kelvin    Cal/Mol-Kelvin
 Total                  105.957             30.644             87.164
 Electronic               0.000              0.000              0.000
 Translational            0.889              2.981             40.409
 Rotational               0.889              2.981             28.597
 Vibrational            104.180             24.682             18.159
 Vibration     1          0.597              1.971              4.313
 Vibration     2          0.619              1.901              2.655
 Vibration     3          0.652              1.797              1.887
 Vibration     4          0.667              1.751              1.681
 Vibration     5          0.703              1.644              1.333
 Vibration     6          0.727              1.574              1.164
 Vibration     7          0.769              1.463              0.951
 Vibration     8          0.810              1.359              0.793
 Vibration     9          0.907              1.136              0.541
 Vibration    10          0.947              1.053              0.467

 Optimization completed.
    -- Stationary point found.
 Normal termination of Gaussian 09 at Tue Jan 28 04:43:26 2020.
