 Gaussian 09, Revision D.01,
 Gaussian 09:  ES64L-G09RevD.01 24-Apr-2013

 -----------------------------
 # b3lyp 6-31G(2df,p) opt Freq
 -----------------------------

 -----
 titel
 -----
 Symbolic Z-matrix:
 Charge =  0 Multiplicity = 1

 SCF Done:  E(RB3LYP) =  -423.205093098     A.U. after   14 cycles
 Optimization completed.
    -- Stationary point found.
 Normal termination of Gaussian 09 at Mon Jan 27 22:01:15 2020.

 ----------------------------------------------------------------------
 #N Geom=AllCheck Guess=TCheck SCRF=Check GenChk RB3LYP/6-31G(2df,p) Fr
 eq
 ----------------------------------------------------------------------

 Structure from the checkpoint file:  "/scratch/puck/g09_b162e1f9-df14-46c1-8874-ac28c3f779fe/Gau-45697.chk"
 -----
 titel
 -----
 Charge =  0 Multiplicity = 1

                         Standard orientation:
 ---------------------------------------------------------------------
 Center     Atomic      Atomic             Coordinates (Angstroms)
 Number     Number       Type             X           Y           Z
 ---------------------------------------------------------------------
      1          6           0        1.063234    1.736175    0.835583
      2          6           0        0.295249    0.612449    0.151696
      3          6           0       -0.730735    1.069753   -0.903904
      4          6           0       -1.801155   -0.030560   -0.852283
      5          8           0       -1.832713   -0.477476    0.501748
      6          6           0       -0.519760   -0.416956    1.019095
      7          6           0        0.432661   -1.576411    0.584815
      8          6           0        1.174103   -0.573958   -0.311806
      9          8           0        2.094758   -0.653290   -1.073593
     10          1           0        1.713428    1.355700    1.630333
     11          1           0        1.697895    2.260655    0.114295
     12          1           0        0.374259    2.462333    1.279908
     13          1           0       -1.155152    2.032505   -0.600138
     14          1           0       -0.289857    1.187090   -1.897158
     15          1           0       -2.804456    0.317195   -1.109990
     16          1           0       -1.545022   -0.859031   -1.531451
     17          1           0       -0.585587   -0.243000    2.094399
     18          1           0        1.062017   -1.976166    1.386309
     19          1           0       -0.045464   -2.414099    0.069075
 ---------------------------------------------------------------------

 SCF Done:  E(RB3LYP) =  -423.205093098     A.U. after    1 cycles

 The electronic state is 1-A.
 Alpha  occ. eigenvalues --  -19.14477 -19.13978 -10.26834 -10.23784 -10.23425
 Alpha  occ. eigenvalues --  -10.20194 -10.19536 -10.19030 -10.18981  -1.04997
 Alpha  occ. eigenvalues --   -1.04178  -0.84501  -0.77665  -0.72659  -0.66553
 Alpha  occ. eigenvalues --   -0.61749  -0.58433  -0.51098  -0.50765  -0.48641
 Alpha  occ. eigenvalues --   -0.46085  -0.44183  -0.43196  -0.42225  -0.41408
 Alpha  occ. eigenvalues --   -0.41023  -0.39202  -0.36257  -0.35408  -0.34515
 Alpha  occ. eigenvalues --   -0.33771  -0.30693  -0.25865  -0.23644
 Alpha virt. eigenvalues --   -0.02589   0.08149   0.10047   0.11149   0.11832
 Alpha virt. eigenvalues --    0.12177   0.14315   0.14681   0.16142   0.16762
 Alpha virt. eigenvalues --    0.17909   0.18517   0.19427   0.20417   0.21668

 Mulliken charges:
               1
     1  C   -0.477066
     2  C    0.182223
     3  C   -0.274264
     4  C   -0.102931
     5  O   -0.255271
     6  C    0.062262
     7  C   -0.381970
     8  C    0.366482
     9  O   -0.306121
    10  H    0.120029
    11  H    0.137979
    12  H    0.123006
    13  H    0.110136
    14  H    0.122237
    15  H    0.115826
    16  H    0.100573
    17  H    0.085522
    18  H    0.133746
    19  H    0.137599
 Sum of Mulliken charges =   0.00000

 Dipole moment (field-independent basis, Debye):
    X=             -0.9800    Y=              0.9781    Z=              0.8583  Tot=              1.6290
 Quadrupole moment (field-independent basis, Debye-Ang):
   XX=            -60.7112   YY=            -51.2293   ZZ=            -52.4650
   XY=             -0.0193   XZ=              7.0129   YZ=             -1.1315

  Exact polarizability:  76.644  -1.359  76.243   1.521  -1.382  70.918
 Approx polarizability: 112.994  -2.895 106.146  -6.466  -1.928 109.212

                      1                      2                      3
                      A                      A                      A
 Frequencies --     60.5894               167.7083               195.6248
 Red. masses --      4.0644                 3.2039                 1.4770
 Frc consts  --      0.0088                 0.0531                 0.0333
 IR Inten    --      6.0362                 1.2291                 2.3642

                      4                      5                      6
                      A                      A                      A
 Frequencies --    208.7198               269.6451               273.3442
 Red. masses --      1.4534                 2.5598                 2.6560
 Frc consts  --      0.0373                 0.1097                 0.1169
 IR Inten    --      0.2938                 2.0021                 0.9786

                      7                      8                      9
                      A                      A                      A
 Frequencies --    389.0874               470.5354               497.4144
 Red. masses --      2.5939                 3.3417                 2.1525
 Frc consts  --      0.2314                 0.4359                 0.3138
 IR Inten    --      4.8781                 1.1020                 0.7165

                     10                     11                     12
                      A                      A                      A
 Frequencies --    566.7528               629.9984               671.3269
 Red. masses --      2.9726                 4.0325                 2.8730
 Frc consts  --      0.5626                 0.9430                 0.7629
 IR Inten    --      1.5865                 3.3047                 1.7459

                     13                     14                     15
                      A                      A                      A
 Frequencies --    719.5992               790.2307               868.6982
 Red. masses --      3.2327                 2.5341                 2.2474
 Frc consts  --      0.9863                 0.9324                 0.9992
 IR Inten    --      1.5599                 3.3083                 2.2589

                     16                     17                     18
                      A                      A                      A
 Frequencies --    888.6859               923.6121               949.6491
 Red. masses --      2.0267                 2.7187                 2.4193
 Frc consts  --      0.9430                 1.3665                 1.2855
 IR Inten    --     13.8058                 2.7637                 0.7933

                     19                     20                     21
                      A                      A                      A
 Frequencies --    980.1732               987.3628              1025.4515
 Red. masses --      2.1346                 2.3050                 1.6910
 Frc consts  --      1.2083                 1.3240                 1.0477
 IR Inten    --      8.4928                20.9576                 7.3832

                     22                     23                     24
                      A                      A                      A
 Frequencies --   1048.2553              1077.3459              1136.8289
 Red. masses --      2.6748                 2.5031                 2.0026
 Frc consts  --      1.7317                 1.7117                 1.5249
 IR Inten    --     31.3999                69.1224                14.2605

                     25                     26                     27
                      A                      A                      A
 Frequencies --   1149.6946              1170.6679              1201.6382
 Red. masses --      1.8768                 2.6612                 1.5387
 Frc consts  --      1.4616                 2.1488                 1.3090
 IR Inten    --      3.5120                55.9326                 3.5898

                     28                     29                     30
                      A                      A                      A
 Frequencies --   1208.5577              1244.7741              1249.6094
 Red. masses --      2.8872                 1.6092                 1.4225
 Frc consts  --      2.4847                 1.4691                 1.3088
 IR Inten    --      2.8182                 3.3841                 6.6585

                     31                     32                     33
                      A                      A                      A
 Frequencies --   1266.0348              1333.2401              1354.3448
 Red. masses --      1.6020                 1.5040                 1.3053
 Frc consts  --      1.5129                 1.5752                 1.4107
 IR Inten    --     18.7859                 7.3127                 2.5469

                     34                     35                     36
                      A                      A                      A
 Frequencies --   1393.2848              1407.7064              1420.7295
 Red. masses --      1.3607                 1.2055                 1.1105
 Frc consts  --      1.5563                 1.4075                 1.3207
 IR Inten    --      9.7059                 2.5349                13.1466

                     37                     38                     39
                      A                      A                      A
 Frequencies --   1481.4938              1490.6837              1495.7260
 Red. masses --      1.0888                 1.0509                 1.0545
 Frc consts  --      1.4080                 1.3759                 1.3899
 IR Inten    --      2.5095                 5.7393                 6.4492

                     40                     41                     42
                      A                      A                      A
 Frequencies --   1522.5543              1884.7429              2980.0261
 Red. masses --      1.0925                12.7219                 1.0721
 Frc consts  --      1.4922                26.6260                 5.6097
 IR Inten    --      0.7906               225.0308                51.1168

                     43                     44                     45
                      A                      A                      A
 Frequencies --   3029.5408              3048.3014              3056.3541
 Red. masses --      1.0347                 1.0627                 1.0597
 Frc consts  --      5.5955                 5.8180                 5.8325
 IR Inten    --     21.3409                23.0913                 4.6435

                     46                     47                     48
                      A                      A                      A
 Frequencies --   3095.4869              3097.5205              3099.5142
 Red. masses --      1.0903                 1.0997                 1.0940
 Frc consts  --      6.1552                 6.2167                 6.1921
 IR Inten    --     26.6391                35.5602                 8.4904

                     49                     50                     51
                      A                      A                      A
 Frequencies --   3105.5633              3109.0472              3113.5502
 Red. masses --      1.1015                 1.1027                 1.1031
 Frc consts  --      6.2591                 6.2802                 6.3003
 IR Inten    --     11.9331                22.9560                12.2869

 - Thermochemistry -
 -------------------
 Temperature   298.150 Kelvin.  Pressure   1.00000 Atm.
 Atom     1 has atomic number  6 and mass  12.00000

 Molecular mass:   126.06808 amu.
 Principal axes and moments of inertia in atomic units:
                           1         2         3
     Eigenvalues --   767.198331110.127611270.97469
           X            0.99684   0.03036   0.07335
           Y           -0.03038   0.99954  -0.00086
           Z           -0.07334  -0.00137   0.99731
 This molecule is an asymmetric top.
 Rotational symmetry number  1.
 Warning -- assumption of classical behavior for rotation
           may cause significant error
 Rotational temperatures (Kelvin)      0.11290     0.07802     0.06815
 Rotational constants (GHZ):           2.35238     1.62571     1.41997
 Zero-point vibrational energy     417538.7 (Joules/Mol)
                                   99.79416 (Kcal/Mol)
 Warning -- explicit consideration of  10 degrees of freedom as
           vibrations may cause significant error
 Vibrational temperatures:     87.17   241.29   281.46   300.30   387.96
          (Kelvin)            393.28   559.81   676.99   715.67   815.43
                              906.43   965.89  1035.34  1136.96  1249.86
                             1278.62  1328.87  1366.33  1410.25  1420.59
                             1475.39  1508.20  1550.06  1635.64  1654.15
                             1684.33  1728.89  1738.84  1790.95  1797.91
                             1821.54  1918.23  1948.60  2004.62  2025.37
                             2044.11  2131.54  2144.76  2152.01  2190.61
                             2711.72  4287.59  4358.83  4385.82  4397.41
                             4453.71  4456.64  4459.50  4468.21  4473.22
                             4479.70

 Zero-point correction=                           0.159032 (Hartree/Particle)
 Thermal correction to Energy=                    0.167323
 Thermal correction to Enthalpy=                  0.168268
 Thermal correction to Gibbs Free Energy=         0.126079
 Sum of electronic and zero-point Energies=           -423.046061
 Sum of electronic and thermal Energies=              -423.037770
 Sum of electronic and thermal Enthalpies=            -423.036826
 Sum of electronic and thermal Free Energies=         -423.079014

                     E (Thermal)             CV                S
                      KCal/Mol        Cal/Mol-Kelvin    Cal/Mol-Kelvin
 Total                  104.997             31.679             88.794
 Electronic               0.000              0.000              0.000
 Translational            0.889              2.981             40.409
 Rotational               0.889              2.981             28.472
 Vibrational            103.220             25.718             19.913
 Vibration     1          0.597              1.973              4.438
 Vibration     2          0.624              1.882              2.461
 Vibration     3          0.636              1.846              2.174
 Vibration     4          0.642              1.827              2.055
 Vibration     5          0.674              1.729              1.598
 Vibration     6          0.676              1.723              1.575
 Vibration     7          0.757              1.494              1.004
 Vibration     8          0.828              1.315              0.736
 Vibration     9          0.853              1.256              0.665
 Vibration    10          0.923              1.103              0.511

 Normal termination of Gaussian 09 at Mon Jan 27 22:52:55 2020.
