 Gaussian 09, Revision D.01,
 Gaussian 09:  ES64L-G09RevD.01 24-Apr-2013

 -----------------------------
 # b3lyp 6-31G(2df,p) opt Freq
 -----------------------------

 -----
 titel
 -----
 Symbolic Z-matrix:
 Charge =  0 Multiplicity = 1

 SCF Done:  E(RB3LYP) =  -423.200449084     A.U. after   14 cycles
 Optimization completed.
    -- Stationary point found.
 Normal termination of Gaussian 09 at Mon Jan 27 10:18:15 2020.

 ----------------------------------------------------------------------
 #N Geom=AllCheck Guess=TCheck SCRF=Check GenChk RB3LYP/6-31G(2df,p) Fr
 eq
 ----------------------------------------------------------------------

 Structure from the checkpoint file:  "/scratch/puck/g09_ee6cb157-4d5f-406a-bc8a-65308c591a3d/Gau-91679.chk"
 -----
 titel
 -----
 Charge =  0 Multiplicity = 1

                         Standard orientation:
 ---------------------------------------------------------------------
 Center     Atomic      Atomic             Coordinates (Angstroms)
 Number     Number       Type             X           Y           Z
 ---------------------------------------------------------------------
      1          6           0       -2.996866   -0.818303   -0.390476
      2          8           0       -1.651112   -0.801647    0.022783
      3          6           0       -0.962652    0.420590   -0.230072
      4          6           0       -1.388490    1.527312    0.746782
      5          6           0        0.503505    0.121559   -0.128471
      6          6           0        1.476430    0.446211   -1.020060
      7          8           0        2.696164    0.036957   -0.579756
      8          6           0        2.493276   -0.571123    0.619929
      9          6           0        1.178195   -0.549305    0.950735
     10          1           0       -3.097696   -0.556073   -1.455868
     11          1           0       -3.362659   -1.838071   -0.245673
     12          1           0       -3.633758   -0.136609    0.192092
     13          1           0       -1.184063    0.753401   -1.258168
     14          1           0       -0.825257    2.443048    0.545301
     15          1           0       -2.453627    1.757988    0.652549
     16          1           0       -1.188829    1.218616    1.777095
     17          1           0        1.465400    0.949075   -1.973331
     18          1           0        3.374943   -0.964956    1.097998
     19          1           0        0.724739   -0.970559    1.833584
 ---------------------------------------------------------------------

 SCF Done:  E(RB3LYP) =  -423.200449084     A.U. after    1 cycles

 The electronic state is 1-A.
 Alpha  occ. eigenvalues --  -19.19844 -19.13610 -10.23888 -10.22339 -10.22250
 Alpha  occ. eigenvalues --  -10.22209 -10.17999 -10.17515 -10.17472  -1.10091
 Alpha  occ. eigenvalues --   -1.02847  -0.80942  -0.75370  -0.72939  -0.68502
 Alpha  occ. eigenvalues --   -0.62021  -0.57110  -0.56157  -0.52264  -0.48520
 Alpha  occ. eigenvalues --   -0.45526  -0.45196  -0.43969  -0.42880  -0.41083
 Alpha  occ. eigenvalues --   -0.39365  -0.39236  -0.37950  -0.35685  -0.35027
 Alpha  occ. eigenvalues --   -0.30955  -0.26548  -0.25229  -0.22146
 Alpha virt. eigenvalues --    0.02140   0.07039   0.08824   0.12538   0.12683
 Alpha virt. eigenvalues --    0.13723   0.14174   0.15487   0.15748   0.16378
 Alpha virt. eigenvalues --    0.17218   0.18436   0.19561   0.20457   0.22558

 Mulliken charges:
               1
     1  C   -0.229631
     2  O   -0.247830
     3  C   -0.003803
     4  C   -0.398899
     5  C    0.276784
     6  C   -0.120635
     7  O   -0.146778
     8  C    0.004552
     9  C   -0.276586
    10  H    0.102124
    11  H    0.127693
    12  H    0.105359
    13  H    0.063668
    14  H    0.121288
    15  H    0.113510
    16  H    0.125692
    17  H    0.132888
    18  H    0.134111
    19  H    0.116494
 Sum of Mulliken charges =   0.00000

 Dipole moment (field-independent basis, Debye):
    X=             -1.0874    Y=              0.7632    Z=             -0.0789  Tot=              1.3308
 Quadrupole moment (field-independent basis, Debye-Ang):
   XX=            -50.0009   YY=            -53.9592   ZZ=            -50.7579
   XY=             -1.3804   XZ=              2.6481   YZ=             -2.2433

  Exact polarizability:  98.776  -2.268  63.008   0.257  -8.240  72.289
 Approx polarizability: 136.564  -3.038  93.350  -4.925 -18.609 116.101

                      1                      2                      3
                      A                      A                      A
 Frequencies --     38.5995                71.1606               124.1236
 Red. masses --      3.5831                 2.1471                 3.6999
 Frc consts  --      0.0031                 0.0064                 0.0336
 IR Inten    --      0.5223                 2.6168                 0.8281

                      4                      5                      6
                      A                      A                      A
 Frequencies --    176.9528               208.2749               250.0986
 Red. masses --      2.1377                 1.2313                 1.2793
 Frc consts  --      0.0394                 0.0315                 0.0471
 IR Inten    --      0.6140                 0.8878                 0.4697

                      7                      8                      9
                      A                      A                      A
 Frequencies --    323.4814               362.3952               404.3902
 Red. masses --      3.3379                 3.7377                 4.2574
 Frc consts  --      0.2058                 0.2892                 0.4102
 IR Inten    --      1.7300                 0.6649                 0.7589

                     10                     11                     12
                      A                      A                      A
 Frequencies --    498.9325               621.5244               677.5074
 Red. masses --      3.0926                 4.3021                 2.2537
 Frc consts  --      0.4536                 0.9791                 0.6095
 IR Inten    --      6.8903                 9.4315                 8.9810

                     13                     14                     15
                      A                      A                      A
 Frequencies --    716.1064               736.1700               789.1882
 Red. masses --      2.6535                 1.4106                 1.4306
 Frc consts  --      0.8017                 0.4504                 0.5249
 IR Inten    --      3.1869                 5.1005                35.8373

                     16                     17                     18
                      A                      A                      A
 Frequencies --    839.3191               858.6437               893.6503
 Red. masses --      1.3508                 2.4840                 5.7345
 Frc consts  --      0.5607                 1.0790                 2.6982
 IR Inten    --      8.0485                 9.1447                26.8673

                     19                     20                     21
                      A                      A                      A
 Frequencies --    969.4809              1006.9159              1050.6676
 Red. masses --      3.2809                 2.0182                 2.0130
 Frc consts  --      1.8169                 1.2056                 1.3093
 IR Inten    --     16.6009                 9.5328                19.4771

                     22                     23                     24
                      A                      A                      A
 Frequencies --   1072.7596              1095.8909              1112.0116
 Red. masses --      2.2090                 2.1438                 2.2105
 Frc consts  --      1.4978                 1.5170                 1.6105
 IR Inten    --     11.9577                16.2731                29.5089

                     25                     26                     27
                      A                      A                      A
 Frequencies --   1146.0495              1181.3460              1197.3658
 Red. masses --      3.4030                 1.2940                 3.2196
 Frc consts  --      2.6334                 1.0640                 2.7196
 IR Inten    --    159.2316                 3.2348                32.1674

                     28                     29                     30
                      A                      A                      A
 Frequencies --   1221.1180              1256.8326              1288.3525
 Red. masses --      1.7309                 1.3135                 1.6920
 Frc consts  --      1.5207                 1.2225                 1.6547
 IR Inten    --     33.5601                 0.8416                 0.3114

                     31                     32                     33
                      A                      A                      A
 Frequencies --   1355.6909              1371.4443              1398.9065
 Red. masses --      1.4050                 1.8273                 1.2410
 Frc consts  --      1.5214                 2.0249                 1.4308
 IR Inten    --     10.0405                19.0161                10.4100

                     34                     35                     36
                      A                      A                      A
 Frequencies --   1416.5266              1476.5906              1482.4320
 Red. masses --      2.5271                 1.1193                 1.0565
 Frc consts  --      2.9876                 1.4378                 1.3680
 IR Inten    --     12.1615                 0.9168                 4.4009

                     37                     38                     39
                      A                      A                      A
 Frequencies --   1489.1148              1502.2055              1511.6806
 Red. masses --      1.0617                 1.0651                 1.0667
 Frc consts  --      1.3871                 1.4161                 1.4361
 IR Inten    --      1.6967                 2.6323                10.5048

                     40                     41                     42
                      A                      A                      A
 Frequencies --   1539.6311              1638.9139              2957.7124
 Red. masses --      3.9506                 5.9303                 1.0804
 Frc consts  --      5.5175                 9.3851                 5.5688
 IR Inten    --     20.1027                 3.7645                30.9098

                     43                     44                     45
                      A                      A                      A
 Frequencies --   2973.9722              3021.5593              3042.7193
 Red. masses --      1.0408                 1.0988                 1.0358
 Frc consts  --      5.4237                 5.9108                 5.6499
 IR Inten    --     72.9912                48.0002                24.4216

                     46                     47                     48
                      A                      A                      A
 Frequencies --   3109.2997              3115.2381              3121.6380
 Red. masses --      1.0959                 1.1014                 1.1023
 Frc consts  --      6.2425                 6.2976                 6.3289
 IR Inten    --     33.7763                28.9343                19.8758

                     49                     50                     51
                      A                      A                      A
 Frequencies --   3261.0192              3271.2642              3286.4839
 Red. masses --      1.0891                 1.0973                 1.1070
 Frc consts  --      6.8235                 6.9186                 7.0448
 IR Inten    --      0.1418                 0.5336                 1.1751

 - Thermochemistry -
 -------------------
 Temperature   298.150 Kelvin.  Pressure   1.00000 Atm.
 Atom     1 has atomic number  6 and mass  12.00000

 Molecular mass:   126.06808 amu.
 Principal axes and moments of inertia in atomic units:
                           1         2         3
     Eigenvalues --   482.486671923.569281985.36547
           X            0.99993  -0.00761   0.00935
           Y            0.00749   0.99990   0.01234
           Z           -0.00945  -0.01227   0.99988
 This molecule is an asymmetric top.
 Rotational symmetry number  1.
 Warning -- assumption of classical behavior for rotation
           may cause significant error
 Rotational temperatures (Kelvin)      0.17952     0.04503     0.04363
 Rotational constants (GHZ):           3.74050     0.93823     0.90902
 Zero-point vibrational energy     415901.8 (Joules/Mol)
                                   99.40292 (Kcal/Mol)
 Warning -- explicit consideration of  10 degrees of freedom as
           vibrations may cause significant error
 Vibrational temperatures:     55.54   102.38   178.59   254.60   299.66
          (Kelvin)            359.84   465.42   521.41   581.83   717.85
                              894.23   974.78  1030.32  1059.18  1135.46
                             1207.59  1235.40  1285.76  1394.87  1448.73
                             1511.67  1543.46  1576.74  1599.93  1648.91
                             1699.69  1722.74  1756.91  1808.30  1853.65
                             1950.53  1973.20  2012.71  2038.06  2124.48
                             2132.89  2142.50  2161.34  2174.97  2215.18
                             2358.03  4255.48  4278.88  4347.34  4377.79
                             4473.58  4482.13  4491.34  4691.87  4706.61
                             4728.51

 Zero-point correction=                           0.158409 (Hartree/Particle)
 Thermal correction to Energy=                    0.167571
 Thermal correction to Enthalpy=                  0.168515
 Thermal correction to Gibbs Free Energy=         0.123417
 Sum of electronic and zero-point Energies=           -423.042040
 Sum of electronic and thermal Energies=              -423.032878
 Sum of electronic and thermal Enthalpies=            -423.031934
 Sum of electronic and thermal Free Energies=         -423.077032

                     E (Thermal)             CV                S
                      KCal/Mol        Cal/Mol-Kelvin    Cal/Mol-Kelvin
 Total                  105.152             33.026             94.916
 Electronic               0.000              0.000              0.000
 Translational            0.889              2.981             40.409
 Rotational               0.889              2.981             29.001
 Vibrational            103.375             27.065             25.506
 Vibration     1          0.594              1.981              5.330
 Vibration     2          0.598              1.968              4.121
 Vibration     3          0.610              1.929              3.035
 Vibration     4          0.628              1.871              2.360
 Vibration     5          0.642              1.828              2.059
 Vibration     6          0.663              1.763              1.730
 Vibration     7          0.708              1.628              1.292
 Vibration     8          0.736              1.550              1.112
 Vibration     9          0.770              1.461              0.947
 Vibration    10          0.854              1.252              0.661

 Optimization completed.
    -- Stationary point found.
 Normal termination of Gaussian 09 at Mon Jan 27 10:56:19 2020.
