 Gaussian 09, Revision D.01,
 Gaussian 09:  ES64L-G09RevD.01 24-Apr-2013

 -----------------------------
 # b3lyp 6-31G(2df,p) opt Freq
 -----------------------------

 -----
 titel
 -----
 Symbolic Z-matrix:
 Charge =  0 Multiplicity = 1

 SCF Done:  E(RB3LYP) =  -423.122822139     A.U. after   12 cycles
 Optimization completed.
    -- Stationary point found.
 Normal termination of Gaussian 09 at Mon Jan 27 16:07:02 2020.

 ----------------------------------------------------------------------
 #N Geom=AllCheck Guess=TCheck SCRF=Check GenChk RB3LYP/6-31G(2df,p) Fr
 eq
 ----------------------------------------------------------------------

 Structure from the checkpoint file:  "/scratch/puck/g09_18cd4480-1e89-459f-9aef-f2481486d6df/Gau-46870.chk"
 -----
 titel
 -----
 Charge =  0 Multiplicity = 1

                         Standard orientation:
 ---------------------------------------------------------------------
 Center     Atomic      Atomic             Coordinates (Angstroms)
 Number     Number       Type             X           Y           Z
 ---------------------------------------------------------------------
      1          6           0        1.021339    1.813805    0.000011
      2          6           0        0.901413    0.289789   -0.000006
      3          8           0        2.232709   -0.187159   -0.000036
      4          6           0        0.022469   -0.561973    0.981831
      5          8           0        0.193224   -1.665988    0.000030
      6          6           0        0.022449   -0.562008   -0.981810
      7          6           0       -1.453729   -0.213302   -0.763445
      8          6           0       -1.874659    1.017613   -0.000038
      9          6           0       -1.453710   -0.213247    0.763464
     10          1           0        2.082692    2.066500    0.000186
     11          1           0        0.567980    2.264514   -0.886321
     12          1           0        0.567688    2.264521    0.886187
     13          1           0        2.154146   -1.151942   -0.000031
     14          1           0        0.365872   -0.819157    1.984284
     15          1           0        0.365855   -0.819222   -1.984253
     16          1           0       -2.189836   -0.763975   -1.336848
     17          1           0       -1.298785    1.927969   -0.000098
     18          1           0       -2.946682    1.195765   -0.000025
     19          1           0       -2.189820   -0.763863    1.336919
 ---------------------------------------------------------------------

 SCF Done:  E(RB3LYP) =  -423.122822139     A.U. after    1 cycles

 The electronic state is 1-A.
 Alpha  occ. eigenvalues --  -19.13736 -19.12788 -10.24641 -10.23953 -10.23953
 Alpha  occ. eigenvalues --  -10.19784 -10.19739 -10.19724 -10.17751  -1.06057
 Alpha  occ. eigenvalues --   -0.99740  -0.86786  -0.75379  -0.70308  -0.68308
 Alpha  occ. eigenvalues --   -0.61679  -0.55964  -0.55473  -0.53397  -0.49423
 Alpha  occ. eigenvalues --   -0.46615  -0.44569  -0.43615  -0.40760  -0.39338
 Alpha  occ. eigenvalues --   -0.37140  -0.37076  -0.35181  -0.35152  -0.32513
 Alpha  occ. eigenvalues --   -0.31311  -0.27291  -0.25535  -0.24784
 Alpha virt. eigenvalues --    0.07518   0.08849   0.08947   0.11381   0.12984
 Alpha virt. eigenvalues --    0.13159   0.14322   0.14430   0.16469   0.16714
 Alpha virt. eigenvalues --    0.17380   0.17990   0.20198   0.21052   0.21783

 Mulliken charges:
               1
     1  C   -0.504933
     2  C    0.492746
     3  O   -0.493090
     4  C   -0.023590
     5  O   -0.333752
     6  C   -0.023595
     7  C   -0.040591
     8  C   -0.316649
     9  C   -0.040601
    10  H    0.137899
    11  H    0.130089
    12  H    0.130092
    13  H    0.281488
    14  H    0.082840
    15  H    0.082840
    16  H    0.100555
    17  H    0.122242
    18  H    0.115455
    19  H    0.100556
 Sum of Mulliken charges =   0.00000

 Dipole moment (field-independent basis, Debye):
    X=             -1.7239    Y=              0.8926    Z=              0.0000  Tot=              1.9413
 Quadrupole moment (field-independent basis, Debye-Ang):
   XX=            -54.7442   YY=            -54.5254   ZZ=            -50.7837
   XY=             -0.9892   XZ=              0.0001   YZ=              0.0001

  Exact polarizability:  80.662  -2.148  71.626   0.000   0.000  67.457
 Approx polarizability: 111.492  -5.191 109.565   0.000   0.000 109.481

                      1                      2                      3
                      A                      A                      A
 Frequencies --    125.4677               245.0959               299.9938
 Red. masses --      1.7127                 1.4296                 3.8152
 Frc consts  --      0.0159                 0.0506                 0.2023
 IR Inten    --      0.0185                 0.0979                 2.3166

                      4                      5                      6
                      A                      A                      A
 Frequencies --    341.5338               369.4088               429.0491
 Red. masses --      3.6595                 3.0276                 2.7514
 Frc consts  --      0.2515                 0.2434                 0.2984
 IR Inten    --      0.0661                 0.0745                 0.0127

                      7                      8                      9
                      A                      A                      A
 Frequencies --    449.1291               597.0530               610.9526
 Red. masses --      4.3163                 5.2230                 3.7176
 Frc consts  --      0.5130                 1.0970                 0.8176
 IR Inten    --     16.3917                 7.7634                 0.4770

                     10                     11                     12
                      A                      A                      A
 Frequencies --    627.0946               661.7185               669.0274
 Red. masses --      1.0877                 3.9968                 3.7544
 Frc consts  --      0.2520                 1.0311                 0.9901
 IR Inten    --     69.7690                 0.2792                 4.8060

                     13                     14                     15
                      A                      A                      A
 Frequencies --    781.2669               804.2693               816.4237
 Red. masses --      3.2844                 1.7765                 2.9792
 Frc consts  --      1.1812                 0.6771                 1.1700
 IR Inten    --     29.5329                 5.2778                 8.6120

                     16                     17                     18
                      A                      A                      A
 Frequencies --    839.3462               883.5769               885.0065
 Red. masses --      2.3854                 2.7840                 2.5456
 Frc consts  --      0.9901                 1.2806                 1.1747
 IR Inten    --     37.5197                33.1108                12.4817

                     19                     20                     21
                      A                      A                      A
 Frequencies --    918.4730               964.3149              1010.4050
 Red. masses --      2.1661                 2.0309                 2.1286
 Frc consts  --      1.0766                 1.1127                 1.2804
 IR Inten    --      0.8019                17.8224                 7.3413

                     22                     23                     24
                      A                      A                      A
 Frequencies --   1024.6858              1034.1333              1058.8258
 Red. masses --      1.3350                 2.9209                 1.4889
 Frc consts  --      0.8259                 1.8404                 0.9835
 IR Inten    --      0.0320                 4.3512                 1.9918

                     25                     26                     27
                      A                      A                      A
 Frequencies --   1090.5885              1103.3017              1118.9500
 Red. masses --      1.3085                 1.2626                 1.9586
 Frc consts  --      0.9169                 0.9056                 1.4448
 IR Inten    --      1.6260                 4.8722                43.4709

                     28                     29                     30
                      A                      A                      A
 Frequencies --   1152.3979              1177.2394              1179.7771
 Red. masses --      2.1930                 1.3612                 2.5476
 Frc consts  --      1.7159                 1.1115                 2.0892
 IR Inten    --      0.4638                 0.1770                89.2139

                     31                     32                     33
                      A                      A                      A
 Frequencies --   1206.1233              1244.9068              1278.5104
 Red. masses --      2.0354                 1.4666                 1.4131
 Frc consts  --      1.7445                 1.3391                 1.3609
 IR Inten    --     22.9307                 0.5731                 7.3772

                     34                     35                     36
                      A                      A                      A
 Frequencies --   1298.4476              1321.1727              1363.2881
 Red. masses --      2.0985                 1.5048                 1.7271
 Frc consts  --      2.0845                 1.5476                 1.8912
 IR Inten    --      0.5342                 3.3989                37.9221

                     37                     38                     39
                      A                      A                      A
 Frequencies --   1406.0679              1430.2742              1489.8041
 Red. masses --      1.3727                 1.7598                 1.1171
 Frc consts  --      1.5989                 2.1210                 1.4609
 IR Inten    --     24.1210                88.8495                 2.3984

                     40                     41                     42
                      A                      A                      A
 Frequencies --   1504.3435              1518.1740              3053.5373
 Red. masses --      1.0446                 1.1082                 1.0369
 Frc consts  --      1.3928                 1.5050                 5.6964
 IR Inten    --      7.0122                 2.5733                12.0488

                     43                     44                     45
                      A                      A                      A
 Frequencies --   3120.2028              3122.0212              3123.5371
 Red. masses --      1.0886                 1.1014                 1.0920
 Frc consts  --      6.2446                 6.3251                 6.2773
 IR Inten    --     45.5703                19.7295                 9.6158

                     46                     47                     48
                      A                      A                      A
 Frequencies --   3137.6271              3142.2178              3178.0554
 Red. masses --      1.0992                 1.0684                 1.0891
 Frc consts  --      6.3758                 6.2154                 6.4810
 IR Inten    --      7.4563                22.0208                16.0789

                     49                     50                     51
                      A                      A                      A
 Frequencies --   3187.2509              3275.7731              3738.7277
 Red. masses --      1.0938                 1.1005                 1.0632
 Frc consts  --      6.5468                 6.9579                 8.7558
 IR Inten    --     15.1723                 3.9121                31.4958

 - Thermochemistry -
 -------------------
 Temperature   298.150 Kelvin.  Pressure   1.00000 Atm.
 Atom     1 has atomic number  6 and mass  12.00000

 Molecular mass:   126.06808 amu.
 Principal axes and moments of inertia in atomic units:
                           1         2         3
     Eigenvalues --   643.65308 984.882051269.67193
           X            0.99995   0.01041   0.00000
           Y           -0.01041   0.99995   0.00000
           Z            0.00000   0.00000   1.00000
 This molecule is an asymmetric top.
 Rotational symmetry number  1.
 Warning -- assumption of classical behavior for rotation
           may cause significant error
 Rotational temperatures (Kelvin)      0.13457     0.08794     0.06822
 Rotational constants (GHZ):           2.80390     1.83244     1.42142
 Zero-point vibrational energy     421136.8 (Joules/Mol)
                                  100.65410 (Kcal/Mol)
 Warning -- explicit consideration of   9 degrees of freedom as
           vibrations may cause significant error
 Vibrational temperatures:    180.52   352.64   431.62   491.39   531.50
          (Kelvin)            617.31   646.20   859.03   879.02   902.25
                              952.06   962.58  1124.07  1157.16  1174.65
                             1207.63  1271.27  1273.33  1321.48  1387.43
                             1453.75  1474.29  1487.89  1523.41  1569.11
                             1587.40  1609.92  1658.04  1693.78  1697.43
                             1735.34  1791.14  1839.49  1868.17  1900.87
                             1961.47  2023.02  2057.84  2143.49  2164.41
                             2184.31  4393.35  4489.27  4491.89  4494.07
                             4514.34  4520.94  4572.51  4585.74  4713.10
                             5379.19

 Zero-point correction=                           0.160403 (Hartree/Particle)
 Thermal correction to Energy=                    0.167681
 Thermal correction to Enthalpy=                  0.168626
 Thermal correction to Gibbs Free Energy=         0.129210
 Sum of electronic and zero-point Energies=           -422.962420
 Sum of electronic and thermal Energies=              -422.955141
 Sum of electronic and thermal Enthalpies=            -422.954197
 Sum of electronic and thermal Free Energies=         -422.993612

                     E (Thermal)             CV                S
                      KCal/Mol        Cal/Mol-Kelvin    Cal/Mol-Kelvin
 Total                  105.222             30.769             82.956
 Electronic               0.000              0.000              0.000
 Translational            0.889              2.981             40.409
 Rotational               0.889              2.981             28.178
 Vibrational            103.444             24.807             14.370
 Vibration     1          0.610              1.928              3.014
 Vibration     2          0.660              1.771              1.766
 Vibration     3          0.693              1.674              1.417
 Vibration     4          0.721              1.592              1.205
 Vibration     5          0.742              1.535              1.082
 Vibration     6          0.790              1.407              0.862
 Vibration     7          0.808              1.363              0.798
 Vibration     8          0.955              1.038              0.455
 Vibration     9          0.970              1.009              0.431

 Optimization completed.
    -- Stationary point found.
 Normal termination of Gaussian 09 at Mon Jan 27 16:53:49 2020.
