 Gaussian 09, Revision D.01,
 Gaussian 09:  ES64L-G09RevD.01 24-Apr-2013

 -----------------------------
 # b3lyp 6-31G(2df,p) opt Freq
 -----------------------------

 -----
 titel
 -----
 Symbolic Z-matrix:
 Charge =  0 Multiplicity = 1

 SCF Done:  E(RB3LYP) =  -423.174809789     A.U. after   14 cycles
 Optimization completed.
    -- Stationary point found.
 Normal termination of Gaussian 09 at Tue Jan 28 00:01:31 2020.

 ----------------------------------------------------------------------
 #N Geom=AllCheck Guess=TCheck SCRF=Check GenChk RB3LYP/6-31G(2df,p) Fr
 eq
 ----------------------------------------------------------------------

 Structure from the checkpoint file:  "/scratch/puck/g09_b42e11be-e8b7-4a17-9dd1-76f5b85a83ea/Gau-131059.chk"
 -----
 titel
 -----
 Charge =  0 Multiplicity = 1

                         Standard orientation:
 ---------------------------------------------------------------------
 Center     Atomic      Atomic             Coordinates (Angstroms)
 Number     Number       Type             X           Y           Z
 ---------------------------------------------------------------------
      1          6           0       -1.407011    1.638501    0.771782
      2          6           0       -0.751747    0.492777    0.034782
      3          6           0       -1.666347   -0.408562   -0.866666
      4          6           0       -1.324660   -1.658593   -0.005731
      5          6           0       -0.197496   -0.866638    0.682238
      6          6           0        1.106251   -0.747519   -0.183950
      7          8           0        2.347591   -0.838742    0.456263
      8          6           0        0.664149    0.696819   -0.472114
      9          8           0        1.351816    1.677621   -0.594845
     10          1           0       -1.735089    2.410054    0.066406
     11          1           0       -2.286688    1.295821    1.326678
     12          1           0       -0.714224    2.107942    1.476383
     13          1           0       -2.714739   -0.103181   -0.851495
     14          1           0       -1.347726   -0.469724   -1.910322
     15          1           0       -2.134452   -1.915291    0.681649
     16          1           0       -1.023002   -2.565681   -0.537700
     17          1           0       -0.003008   -0.966028    1.749476
     18          1           0        1.072064   -1.422650   -1.050410
     19          1           0        2.752774    0.036997    0.395950
 ---------------------------------------------------------------------

 SCF Done:  E(RB3LYP) =  -423.174809789     A.U. after    1 cycles

 The electronic state is 1-A.
 Alpha  occ. eigenvalues --  -19.14450 -19.14326 -10.26823 -10.23848 -10.20728
 Alpha  occ. eigenvalues --  -10.20045 -10.19986 -10.19468 -10.18585  -1.05661
 Alpha  occ. eigenvalues --   -1.02273  -0.88380  -0.74543  -0.74127  -0.65996
 Alpha  occ. eigenvalues --   -0.62045  -0.57547  -0.52492  -0.50845  -0.49021
 Alpha  occ. eigenvalues --   -0.46119  -0.45229  -0.42563  -0.42070  -0.40864
 Alpha  occ. eigenvalues --   -0.40486  -0.37198  -0.35852  -0.34899  -0.34219
 Alpha  occ. eigenvalues --   -0.31987  -0.29744  -0.26560  -0.24533
 Alpha virt. eigenvalues --   -0.02582   0.07793   0.08242   0.09606   0.10556
 Alpha virt. eigenvalues --    0.12934   0.13393   0.15148   0.15216   0.16673
 Alpha virt. eigenvalues --    0.17217   0.18333   0.19718   0.21428   0.22301

 Mulliken charges:
               1
     1  C   -0.490093
     2  C    0.214798
     3  C   -0.287878
     4  C   -0.223847
     5  C   -0.103355
     6  C    0.057022
     7  O   -0.445739
     8  C    0.305513
     9  O   -0.328787
    10  H    0.132751
    11  H    0.118606
    12  H    0.130215
    13  H    0.114463
    14  H    0.112696
    15  H    0.109641
    16  H    0.104842
    17  H    0.089525
    18  H    0.093480
    19  H    0.296147
 Sum of Mulliken charges =   0.00000

 Dipole moment (field-independent basis, Debye):
    X=             -2.4835    Y=             -0.8040    Z=              0.0949  Tot=              2.6121
 Quadrupole moment (field-independent basis, Debye-Ang):
   XX=            -54.4240   YY=            -57.4743   ZZ=            -52.2469
   XY=              0.3572   XZ=              0.0130   YZ=              2.7829

  Exact polarizability:  83.589   2.821  79.692   0.119   0.399  63.567
 Approx polarizability: 117.527   8.507 119.058  -0.022  -3.890  98.342

                      1                      2                      3
                      A                      A                      A
 Frequencies --     61.2853               153.6715               193.6990
 Red. masses --      5.2110                 2.5453                 1.1150
 Frc consts  --      0.0115                 0.0354                 0.0246
 IR Inten    --      1.5718                 2.0155                 1.1423

                      4                      5                      6
                      A                      A                      A
 Frequencies --    207.8113               250.6265               272.6241
 Red. masses --      2.9933                 2.9647                 1.6796
 Frc consts  --      0.0762                 0.1097                 0.0736
 IR Inten    --     11.1782                 5.9146                49.2146

                      7                      8                      9
                      A                      A                      A
 Frequencies --    281.1038               330.1976               381.3183
 Red. masses --      2.3675                 2.2771                 2.4753
 Frc consts  --      0.1102                 0.1463                 0.2121
 IR Inten    --      5.1955                 1.9992                10.1734

                     10                     11                     12
                      A                      A                      A
 Frequencies --    463.3954               550.5517               665.8717
 Red. masses --      4.6515                 3.5723                 3.0936
 Frc consts  --      0.5885                 0.6380                 0.8082
 IR Inten    --      1.0814                 1.6360                 3.9188

                     13                     14                     15
                      A                      A                      A
 Frequencies --    725.4271               765.8877               812.5616
 Red. masses --      1.8943                 2.2788                 2.5466
 Frc consts  --      0.5873                 0.7876                 0.9907
 IR Inten    --      8.1959                 0.3922                 1.8856

                     16                     17                     18
                      A                      A                      A
 Frequencies --    829.6924               895.2465               918.4796
 Red. masses --      3.0970                 2.1351                 2.6415
 Frc consts  --      1.2561                 1.0082                 1.3129
 IR Inten    --      1.2966                 0.8170                20.1392

                     19                     20                     21
                      A                      A                      A
 Frequencies --    956.8445               978.1677               995.7667
 Red. masses --      2.9152                 2.2711                 2.7852
 Frc consts  --      1.5725                 1.2803                 1.6271
 IR Inten    --      3.4479                14.8091                67.5112

                     22                     23                     24
                      A                      A                      A
 Frequencies --   1013.7946              1067.9552              1083.9888
 Red. masses --      1.7100                 1.5936                 1.4698
 Frc consts  --      1.0355                 1.0709                 1.0176
 IR Inten    --     14.6986                 8.8212                13.6438

                     25                     26                     27
                      A                      A                      A
 Frequencies --   1145.5264              1155.5659              1191.9417
 Red. masses --      1.9782                 1.9335                 2.4887
 Frc consts  --      1.5294                 1.5212                 2.0832
 IR Inten    --      4.9195                64.6773                 1.1000

                     28                     29                     30
                      A                      A                      A
 Frequencies --   1210.0463              1225.2649              1248.8024
 Red. masses --      1.5071                 1.6232                 1.5303
 Frc consts  --      1.3002                 1.4357                 1.4061
 IR Inten    --      2.3750                 3.0610                 5.2788

                     31                     32                     33
                      A                      A                      A
 Frequencies --   1270.5351              1285.3283              1331.1134
 Red. masses --      1.5299                 1.3582                 2.7383
 Frc consts  --      1.4550                 1.3220                 2.8587
 IR Inten    --      0.2056                 2.7755                 7.1184

                     34                     35                     36
                      A                      A                      A
 Frequencies --   1355.4008              1398.1100              1409.5921
 Red. masses --      1.6342                 1.2486                 1.2584
 Frc consts  --      1.7689                 1.4380                 1.4731
 IR Inten    --      1.9021                62.8942                 1.6204

                     37                     38                     39
                      A                      A                      A
 Frequencies --   1477.9320              1486.8164              1489.9203
 Red. masses --      1.0776                 1.0547                 1.0532
 Frc consts  --      1.3867                 1.3737                 1.3775
 IR Inten    --      2.5286                 3.7817                 4.4873

                     40                     41                     42
                      A                      A                      A
 Frequencies --   1494.7095              1841.3400              3003.0526
 Red. masses --      1.1038                12.6929                 1.0828
 Frc consts  --      1.4529                25.3560                 5.7537
 IR Inten    --      1.3534               250.9328                29.7121

                     43                     44                     45
                      A                      A                      A
 Frequencies --   3031.5203              3054.2507              3064.7640
 Red. masses --      1.0353                 1.0585                 1.0599
 Frc consts  --      5.6057                 5.8177                 5.8654
 IR Inten    --     21.1377                38.5654                32.9624

                     46                     47                     48
                      A                      A                      A
 Frequencies --   3096.7306              3100.1224              3110.1172
 Red. masses --      1.1009                 1.1074                 1.1015
 Frc consts  --      6.2201                 6.2704                 6.2773
 IR Inten    --     13.6523                 3.3084                14.4214

                     49                     50                     51
                      A                      A                      A
 Frequencies --   3119.9756              3126.8349              3751.8158
 Red. masses --      1.1057                 1.0909                 1.0660
 Frc consts  --      6.3417                 6.2841                 8.8407
 IR Inten    --     26.4209                22.1613                34.5537

 - Thermochemistry -
 -------------------
 Temperature   298.150 Kelvin.  Pressure   1.00000 Atm.
 Atom     1 has atomic number  6 and mass  12.00000

 Molecular mass:   126.06808 amu.
 Principal axes and moments of inertia in atomic units:
                           1         2         3
     Eigenvalues --   788.338241077.962081530.27479
           X            0.99959  -0.02844  -0.00217
           Y            0.02851   0.99854   0.04585
           Z            0.00087  -0.04590   0.99895
 This molecule is an asymmetric top.
 Rotational symmetry number  1.
 Warning -- assumption of classical behavior for rotation
           may cause significant error
 Rotational temperatures (Kelvin)      0.10987     0.08035     0.05660
 Rotational constants (GHZ):           2.28930     1.67422     1.17936
 Zero-point vibrational energy     414704.0 (Joules/Mol)
                                   99.11664 (Kcal/Mol)
 Warning -- explicit consideration of  11 degrees of freedom as
           vibrations may cause significant error
 Vibrational temperatures:     88.18   221.10   278.69   298.99   360.60
          (Kelvin)            392.24   404.45   475.08   548.63   666.72
                              792.12   958.04  1043.73  1101.94  1169.09
                             1193.74  1288.06  1321.49  1376.68  1407.36
                             1432.68  1458.62  1536.55  1559.62  1648.15
                             1662.60  1714.94  1740.98  1762.88  1796.75
                             1828.01  1849.30  1915.17  1950.12  2011.57
                             2028.09  2126.41  2139.19  2143.66  2150.55
                             2649.27  4320.72  4361.68  4394.38  4409.51
                             4455.50  4460.38  4474.76  4488.94  4498.81
                             5398.02

 Zero-point correction=                           0.157952 (Hartree/Particle)
 Thermal correction to Energy=                    0.166855
 Thermal correction to Enthalpy=                  0.167799
 Thermal correction to Gibbs Free Energy=         0.124427
 Sum of electronic and zero-point Energies=           -423.016857
 Sum of electronic and thermal Energies=              -423.007955
 Sum of electronic and thermal Enthalpies=            -423.007011
 Sum of electronic and thermal Free Energies=         -423.050383

                     E (Thermal)             CV                S
                      KCal/Mol        Cal/Mol-Kelvin    Cal/Mol-Kelvin
 Total                  104.703             33.448             91.285
 Electronic               0.000              0.000              0.000
 Translational            0.889              2.981             40.409
 Rotational               0.889              2.981             28.655
 Vibrational            102.926             27.486             22.222
 Vibration     1          0.597              1.973              4.415
 Vibration     2          0.619              1.899              2.626
 Vibration     3          0.635              1.849              2.192
 Vibration     4          0.641              1.829              2.063
 Vibration     5          0.663              1.762              1.726
 Vibration     6          0.676              1.724              1.580
 Vibration     7          0.681              1.709              1.527
 Vibration     8          0.713              1.615              1.259
 Vibration     9          0.751              1.510              1.034
 Vibration    10          0.821              1.331              0.756
 Vibration    11          0.906              1.138              0.543

 Optimization completed.
    -- Stationary point found.
 Normal termination of Gaussian 09 at Tue Jan 28 00:43:31 2020.
