 Gaussian 09, Revision D.01,
 Gaussian 09:  ES64L-G09RevD.01 24-Apr-2013

 -----------------------------
 # b3lyp 6-31G(2df,p) opt Freq
 -----------------------------

 -----
 titel
 -----
 Symbolic Z-matrix:
 Charge =  0 Multiplicity = 1

 SCF Done:  E(RB3LYP) =  -423.167851695     A.U. after   14 cycles
 Optimization completed.
    -- Stationary point found.
 Normal termination of Gaussian 09 at Mon Jan 27 17:26:52 2020.

 ----------------------------------------------------------------------
 #N Geom=AllCheck Guess=TCheck SCRF=Check GenChk RB3LYP/6-31G(2df,p) Fr
 eq
 ----------------------------------------------------------------------

 Structure from the checkpoint file:  "/scratch/puck/g09_2f960525-b148-4712-bf9d-e5c60d74e05d/Gau-39846.chk"
 -----
 titel
 -----
 Charge =  0 Multiplicity = 1

                         Standard orientation:
 ---------------------------------------------------------------------
 Center     Atomic      Atomic             Coordinates (Angstroms)
 Number     Number       Type             X           Y           Z
 ---------------------------------------------------------------------
      1          6           0       -2.631928   -0.481125   -0.612342
      2          6           0       -1.316076   -0.048294   -0.029103
      3          6           0       -0.859982    1.403990   -0.124104
      4          6           0        0.618169    1.385122    0.339203
      5          6           0        1.097440   -0.035320    0.048322
      6          6           0        2.464762   -0.518895    0.242652
      7          8           0        1.965592   -0.251857   -1.073874
      8          6           0       -0.124338   -0.906093    0.081950
      9          8           0       -0.948689   -0.647441    1.230126
     10          1           0       -3.461491    0.040578   -0.122371
     11          1           0       -2.676341   -0.251645   -1.682033
     12          1           0       -2.779378   -1.555340   -0.476991
     13          1           0       -0.942532    1.732435   -1.166523
     14          1           0       -1.482448    2.069736    0.481667
     15          1           0        1.240915    2.117585   -0.178243
     16          1           0        0.680123    1.578305    1.413035
     17          1           0        3.230887    0.169215    0.598663
     18          1           0        2.645272   -1.568700    0.471486
     19          1           0       -0.078520   -1.934085   -0.268180
 ---------------------------------------------------------------------

 SCF Done:  E(RB3LYP) =  -423.167851695     A.U. after    1 cycles

 The electronic state is 1-A.
 Alpha  occ. eigenvalues --  -19.15028 -19.14810 -10.24244 -10.24132 -10.23312
 Alpha  occ. eigenvalues --  -10.23258 -10.18931 -10.18739 -10.18531  -1.07633
 Alpha  occ. eigenvalues --   -1.06332  -0.80368  -0.74895  -0.69579  -0.66614
 Alpha  occ. eigenvalues --   -0.64646  -0.56554  -0.55965  -0.51045  -0.48448
 Alpha  occ. eigenvalues --   -0.46017  -0.45364  -0.43661  -0.41188  -0.40335
 Alpha  occ. eigenvalues --   -0.39698  -0.36988  -0.35607  -0.35441  -0.35184
 Alpha  occ. eigenvalues --   -0.31847  -0.28097  -0.27369  -0.25378
 Alpha virt. eigenvalues --    0.07757   0.09380   0.10324   0.11042   0.11495
 Alpha virt. eigenvalues --    0.12247   0.13811   0.14744   0.15829   0.16876
 Alpha virt. eigenvalues --    0.17613   0.18869   0.20002   0.20576   0.21272

 Mulliken charges:
               1
     1  C   -0.484846
     2  C    0.418583
     3  C   -0.282573
     4  C   -0.311707
     5  C    0.441686
     6  C   -0.253921
     7  O   -0.280548
     8  C   -0.111316
     9  O   -0.303284
    10  H    0.127871
    11  H    0.125904
    12  H    0.131576
    13  H    0.111129
    14  H    0.107662
    15  H    0.115788
    16  H    0.123094
    17  H    0.114615
    18  H    0.114667
    19  H    0.095621
 Sum of Mulliken charges =   0.00000

 Dipole moment (field-independent basis, Debye):
    X=             -0.3738    Y=              0.5361    Z=             -0.0622  Tot=              0.6565
 Quadrupole moment (field-independent basis, Debye-Ang):
   XX=            -50.7045   YY=            -50.2140   ZZ=            -57.5765
   XY=             -0.9867   XZ=              6.0167   YZ=              0.9967

  Exact polarizability:  92.007  -4.104  72.876   3.907   0.049  60.719
 Approx polarizability: 117.850  -8.039 103.339  -0.232  -2.013 104.072

                      1                      2                      3
                      A                      A                      A
 Frequencies --    102.1900               173.9290               195.9813
 Red. masses --      3.6371                 2.0951                 1.0836
 Frc consts  --      0.0224                 0.0373                 0.0245
 IR Inten    --      3.1523                 2.0412                 0.7019

                      4                      5                      6
                      A                      A                      A
 Frequencies --    244.1787               334.0348               361.3182
 Red. masses --      2.6266                 2.5151                 3.6220
 Frc consts  --      0.0923                 0.1653                 0.2786
 IR Inten    --      1.2670                 1.3949                10.1559

                      7                      8                      9
                      A                      A                      A
 Frequencies --    372.5130               396.3157               468.5752
 Red. masses --      2.8304                 2.5618                 5.1721
 Frc consts  --      0.2314                 0.2371                 0.6691
 IR Inten    --      4.8712                 1.6350                 2.9153

                     10                     11                     12
                      A                      A                      A
 Frequencies --    560.9143               593.2935               709.6187
 Red. masses --      4.0202                 3.7603                 2.7056
 Frc consts  --      0.7452                 0.7799                 0.8027
 IR Inten    --      3.2880                 1.4009                 1.6200

                     13                     14                     15
                      A                      A                      A
 Frequencies --    761.0374               843.0124               851.6611
 Red. masses --      3.3705                 3.1583                 3.7156
 Frc consts  --      1.1502                 1.3224                 1.5879
 IR Inten    --     14.9189                30.9559                 9.5883

                     16                     17                     18
                      A                      A                      A
 Frequencies --    859.1406               906.4463               931.0336
 Red. masses --      2.4795                 1.7653                 1.6109
 Frc consts  --      1.0783                 0.8546                 0.8227
 IR Inten    --      5.6343                 6.3799                 6.5749

                     19                     20                     21
                      A                      A                      A
 Frequencies --    968.7230               985.0258              1011.1103
 Red. masses --      3.7816                 2.6143                 1.6863
 Frc consts  --      2.0909                 1.4945                 1.0158
 IR Inten    --     24.0566                 2.9310                 3.8289

                     22                     23                     24
                      A                      A                      A
 Frequencies --   1026.3461              1079.5173              1104.1928
 Red. masses --      1.7147                 1.6582                 1.8952
 Frc consts  --      1.0642                 1.1385                 1.3614
 IR Inten    --     11.8000                11.9446                 0.4991

                     25                     26                     27
                      A                      A                      A
 Frequencies --   1125.6967              1159.4196              1194.0225
 Red. masses --      1.3057                 1.3398                 1.4724
 Frc consts  --      0.9748                 1.0612                 1.2368
 IR Inten    --      2.2630                 1.2192                 2.7212

                     28                     29                     30
                      A                      A                      A
 Frequencies --   1209.4264              1233.9707              1249.9763
 Red. masses --      1.5326                 1.8705                 1.4487
 Frc consts  --      1.3208                 1.6781                 1.3336
 IR Inten    --      2.6547                13.1865                 7.6546

                     31                     32                     33
                      A                      A                      A
 Frequencies --   1287.0806              1311.6151              1338.9425
 Red. masses --      2.6507                 1.2947                 2.0594
 Frc consts  --      2.5871                 1.3123                 2.1752
 IR Inten    --      5.9061                 4.4628                 3.6568

                     34                     35                     36
                      A                      A                      A
 Frequencies --   1405.3582              1427.1079              1458.0320
 Red. masses --      1.4971                 2.2152                 1.6429
 Frc consts  --      1.7422                 2.6582                 2.0578
 IR Inten    --      3.8101                10.9436                 9.2150

                     37                     38                     39
                      A                      A                      A
 Frequencies --   1472.0088              1485.9143              1488.6899
 Red. masses --      1.2176                 1.1277                 1.0965
 Frc consts  --      1.5544                 1.4671                 1.4317
 IR Inten    --      4.9009                 3.8067                 4.0567

                     40                     41                     42
                      A                      A                      A
 Frequencies --   1500.4388              1534.4826              3035.2292
 Red. masses --      1.2330                 1.5507                 1.0380
 Frc consts  --      1.6355                 2.1513                 5.6344
 IR Inten    --      2.9715                 3.6943                13.2315

                     43                     44                     45
                      A                      A                      A
 Frequencies --   3044.0481              3070.8763              3078.1770
 Red. masses --      1.0589                 1.0648                 1.0506
 Frc consts  --      5.7808                 5.9164                 5.8653
 IR Inten    --     38.3965                 8.8409                29.7527

                     46                     47                     48
                      A                      A                      A
 Frequencies --   3087.7784              3098.5393              3124.0519
 Red. masses --      1.0983                 1.1002                 1.1026
 Frc consts  --      6.1698                 6.2236                 6.3401
 IR Inten    --     15.4737                21.1568                 5.8075

                     49                     50                     51
                      A                      A                      A
 Frequencies --   3124.9524              3153.0348              3163.2434
 Red. masses --      1.1035                 1.0920                 1.1191
 Frc consts  --      6.3492                 6.3965                 6.5977
 IR Inten    --     21.3854                12.8776                23.8247

 - Thermochemistry -
 -------------------
 Temperature   298.150 Kelvin.  Pressure   1.00000 Atm.
 Atom     1 has atomic number  6 and mass  12.00000

 Molecular mass:   126.06808 amu.
 Principal axes and moments of inertia in atomic units:
                           1         2         3
     Eigenvalues --   535.455621384.250951516.59615
           X            0.99927  -0.00080   0.03828
           Y           -0.00111   0.99875   0.04988
           Z           -0.03827  -0.04988   0.99802
 This molecule is an asymmetric top.
 Rotational symmetry number  1.
 Warning -- assumption of classical behavior for rotation
           may cause significant error
 Rotational temperatures (Kelvin)      0.16176     0.06257     0.05711
 Rotational constants (GHZ):           3.37048     1.30377     1.18999
 Zero-point vibrational energy     416911.9 (Joules/Mol)
                                   99.64433 (Kcal/Mol)
 Warning -- explicit consideration of  11 degrees of freedom as
           vibrations may cause significant error
 Vibrational temperatures:    147.03   250.24   281.97   351.32   480.60
          (Kelvin)            519.86   535.96   570.21   674.17   807.03
                              853.62  1020.98  1094.96  1212.91  1225.35
                             1236.11  1304.17  1339.55  1393.77  1417.23
                             1454.76  1476.68  1553.18  1588.69  1619.62
                             1668.14  1717.93  1740.09  1775.41  1798.43
                             1851.82  1887.12  1926.44  2021.99  2053.29
                             2097.78  2117.89  2137.90  2141.89  2158.79
                             2207.78  4367.01  4379.70  4418.30  4428.80
                             4442.62  4458.10  4494.81  4496.10  4536.51
                             4551.20

 Zero-point correction=                           0.158793 (Hartree/Particle)
 Thermal correction to Energy=                    0.166870
 Thermal correction to Enthalpy=                  0.167814
 Thermal correction to Gibbs Free Energy=         0.126455
 Sum of electronic and zero-point Energies=           -423.009058
 Sum of electronic and thermal Energies=              -423.000982
 Sum of electronic and thermal Enthalpies=            -423.000038
 Sum of electronic and thermal Free Energies=         -423.041397

                     E (Thermal)             CV                S
                      KCal/Mol        Cal/Mol-Kelvin    Cal/Mol-Kelvin
 Total                  104.712             31.686             87.048
 Electronic               0.000              0.000              0.000
 Translational            0.889              2.981             40.409
 Rotational               0.889              2.981             28.510
 Vibrational            102.935             25.725             18.130
 Vibration     1          0.604              1.947              3.412
 Vibration     2          0.627              1.875              2.393
 Vibration     3          0.636              1.845              2.171
 Vibration     4          0.660              1.772              1.772
 Vibration     5          0.716              1.608              1.241
 Vibration     6          0.735              1.552              1.116
 Vibration     7          0.744              1.529              1.069
 Vibration     8          0.763              1.478              0.976
 Vibration     9          0.826              1.320              0.742
 Vibration    10          0.917              1.116              0.522
 Vibration    11          0.951              1.046              0.461

 Optimization completed.
    -- Stationary point found.
 Normal termination of Gaussian 09 at Mon Jan 27 18:21:09 2020.
