 Gaussian 09, Revision D.01,
 Gaussian 09:  ES64L-G09RevD.01 24-Apr-2013

 -----------------------------
 # b3lyp 6-31G(2df,p) opt Freq
 -----------------------------

 -----
 titel
 -----
 Symbolic Z-matrix:
 Charge =  0 Multiplicity = 1

 SCF Done:  E(RB3LYP) =  -423.189687931     A.U. after   13 cycles
 Optimization completed.
    -- Stationary point found.
 Normal termination of Gaussian 09 at Mon Jan 27 22:07:11 2020.

 ----------------------------------------------------------------------
 #N Geom=AllCheck Guess=TCheck SCRF=Check GenChk RB3LYP/6-31G(2df,p) Fr
 eq
 ----------------------------------------------------------------------

 Structure from the checkpoint file:  "/scratch/puck/g09_8d2cb78d-89b9-4600-89da-462b0f79ca37/Gau-116810.chk"
 -----
 titel
 -----
 Charge =  0 Multiplicity = 1

                         Standard orientation:
 ---------------------------------------------------------------------
 Center     Atomic      Atomic             Coordinates (Angstroms)
 Number     Number       Type             X           Y           Z
 ---------------------------------------------------------------------
      1          6           0       -2.503130   -0.150160   -0.307209
      2          6           0       -1.014457   -0.234124   -0.650916
      3          6           0       -0.323654    1.120771   -0.570206
      4          6           0        1.182931    1.029414   -0.373418
      5          6           0        1.853031   -0.316817   -0.585527
      6          8           0        1.051418   -1.403681   -0.108344
      7          6           0       -0.189389   -0.995206    0.413919
      8          8           0       -0.006297   -0.063439    1.472203
      9          6           0        0.272696    1.157556    0.816233
     10          1           0       -3.034514    0.486078   -1.022370
     11          1           0       -2.969952   -1.140474   -0.330706
     12          1           0       -2.646134    0.270005    0.692850
     13          1           0       -0.873461   -0.725690   -1.618633
     14          1           0       -0.768405    1.992184   -1.035984
     15          1           0        1.777633    1.892208   -0.656680
     16          1           0        2.065376   -0.478905   -1.651811
     17          1           0        2.811130   -0.347470   -0.050338
     18          1           0       -0.661131   -1.889536    0.822743
     19          1           0        0.270331    2.009953    1.482800
 ---------------------------------------------------------------------

 SCF Done:  E(RB3LYP) =  -423.189687931     A.U. after    1 cycles

 The electronic state is 1-A.
 Alpha  occ. eigenvalues --  -19.14456 -19.13730 -10.27203 -10.23542 -10.23254
 Alpha  occ. eigenvalues --  -10.19592 -10.19178 -10.19115 -10.17680  -1.07813
 Alpha  occ. eigenvalues --   -1.00312  -0.85873  -0.78535  -0.70712  -0.66667
 Alpha  occ. eigenvalues --   -0.62795  -0.57815  -0.54068  -0.53060  -0.48434
 Alpha  occ. eigenvalues --   -0.46799  -0.45294  -0.43471  -0.41558  -0.40914
 Alpha  occ. eigenvalues --   -0.38287  -0.37927  -0.36809  -0.34752  -0.33113
 Alpha  occ. eigenvalues --   -0.31208  -0.29157  -0.24984  -0.23238
 Alpha virt. eigenvalues --    0.08511   0.10704   0.11795   0.12920   0.13575
 Alpha virt. eigenvalues --    0.13736   0.15131   0.15333   0.16033   0.17126
 Alpha virt. eigenvalues --    0.17655   0.18153   0.19536   0.19949   0.22676

 Mulliken charges:
               1
     1  C   -0.410372
     2  C   -0.015292
     3  C   -0.119668
     4  C   -0.132521
     5  C   -0.088816
     6  O   -0.269971
     7  C    0.164013
     8  O   -0.254640
     9  C    0.097444
    10  H    0.113871
    11  H    0.114783
    12  H    0.131584
    13  H    0.084326
    14  H    0.086323
    15  H    0.092266
    16  H    0.102557
    17  H    0.110950
    18  H    0.090746
    19  H    0.102418
 Sum of Mulliken charges =   0.00000

 Dipole moment (field-independent basis, Debye):
    X=             -0.3893    Y=              1.6626    Z=             -1.3511  Tot=              2.1775
 Quadrupole moment (field-independent basis, Debye-Ang):
   XX=            -51.1459   YY=            -51.9114   ZZ=            -55.2165
   XY=              3.0885   XZ=             -0.5382   YZ=              0.2138

  Exact polarizability:  82.508   2.756  70.970  -1.334   0.163  64.992
 Approx polarizability: 109.194   2.586 105.343  -2.051  -0.285 104.062

                      1                      2                      3
                      A                      A                      A
 Frequencies --    131.2746               206.9422               217.2320
 Red. masses --      2.4299                 1.3695                 1.9082
 Frc consts  --      0.0247                 0.0346                 0.0531
 IR Inten    --      2.0199                 0.5633                 0.5854

                      4                      5                      6
                      A                      A                      A
 Frequencies --    274.4203               416.5162               438.7849
 Red. masses --      2.4811                 3.9646                 4.9084
 Frc consts  --      0.1101                 0.4052                 0.5568
 IR Inten    --      1.2095                 1.3493                 1.7913

                      7                      8                      9
                      A                      A                      A
 Frequencies --    515.6172               582.8147               695.5581
 Red. masses --      3.9355                 7.5115                 5.8999
 Frc consts  --      0.6165                 1.5033                 1.6818
 IR Inten    --      7.6787                 0.9728                 2.3255

                     10                     11                     12
                      A                      A                      A
 Frequencies --    719.8620               773.0690               777.7051
 Red. masses --      3.3173                 2.2299                 2.0869
 Frc consts  --      1.0128                 0.7852                 0.7437
 IR Inten    --      2.4367                 7.3038                13.8870

                     13                     14                     15
                      A                      A                      A
 Frequencies --    809.7452               894.3376               909.4796
 Red. masses --      2.9323                 2.1099                 2.6397
 Frc consts  --      1.1328                 0.9943                 1.2864
 IR Inten    --     12.8529                11.1409                 2.1981

                     16                     17                     18
                      A                      A                      A
 Frequencies --    914.2250               956.2482               978.9483
 Red. masses --      2.6181                 2.0226                 2.4856
 Frc consts  --      1.2893                 1.0897                 1.4035
 IR Inten    --     52.7472                25.9158                 6.0334

                     19                     20                     21
                      A                      A                      A
 Frequencies --   1003.1694              1031.4289              1048.9754
 Red. masses --      2.3649                 1.7505                 2.3069
 Frc consts  --      1.4022                 1.0972                 1.4956
 IR Inten    --     30.2876                21.2144                25.5089

                     22                     23                     24
                      A                      A                      A
 Frequencies --   1073.4509              1097.9606              1108.5315
 Red. masses --      1.5376                 1.6721                 2.0637
 Frc consts  --      1.0439                 1.1877                 1.4942
 IR Inten    --      3.9406                19.7520                 5.3790

                     25                     26                     27
                      A                      A                      A
 Frequencies --   1124.6081              1134.2607              1142.8862
 Red. masses --      1.6603                 2.2693                 1.7973
 Frc consts  --      1.2372                 1.7201                 1.3831
 IR Inten    --      3.7234                 7.6008                14.7738

                     28                     29                     30
                      A                      A                      A
 Frequencies --   1158.4742              1251.1973              1264.3253
 Red. masses --      3.9967                 1.1896                 1.4191
 Frc consts  --      3.1603                 1.0972                 1.3365
 IR Inten    --    110.8006                 5.2516                 4.7887

                     31                     32                     33
                      A                      A                      A
 Frequencies --   1283.4917              1318.1772              1335.5832
 Red. masses --      1.5613                 1.3455                 1.3241
 Frc consts  --      1.5154                 1.3775                 1.3916
 IR Inten    --      6.5903                 2.2578                 5.3823

                     34                     35                     36
                      A                      A                      A
 Frequencies --   1368.0900              1377.4626              1407.7997
 Red. masses --      1.5712                 1.6283                 1.2476
 Frc consts  --      1.7326                 1.8203                 1.4568
 IR Inten    --      1.6585                 4.8950                 5.9081

                     37                     38                     39
                      A                      A                      A
 Frequencies --   1410.0786              1438.8660              1495.9086
 Red. masses --      1.7066                 1.8476                 1.0459
 Frc consts  --      1.9992                 2.2538                 1.3789
 IR Inten    --     18.1186                 8.6715                 3.8673

                     40                     41                     42
                      A                      A                      A
 Frequencies --   1501.1968              1524.9237              2997.0372
 Red. masses --      1.0522                 1.0853                 1.0610
 Frc consts  --      1.3970                 1.4869                 5.6149
 IR Inten    --      3.7486                 0.3264                79.2937

                     43                     44                     45
                      A                      A                      A
 Frequencies --   3030.6776              3034.1012              3060.0100
 Red. masses --      1.1027                 1.0356                 1.0848
 Frc consts  --      5.9674                 5.6169                 5.9847
 IR Inten    --     45.6014                21.3758                16.6399

                     46                     47                     48
                      A                      A                      A
 Frequencies --   3099.7890              3113.8743              3117.4713
 Red. masses --      1.1014                 1.1012                 1.0906
 Frc consts  --      6.2351                 6.2910                 6.2450
 IR Inten    --     18.6333                22.8028                39.1986

                     49                     50                     51
                      A                      A                      A
 Frequencies --   3158.2384              3179.2929              3203.0264
 Red. masses --      1.0888                 1.0908                 1.0949
 Frc consts  --      6.3987                 6.4963                 6.6183
 IR Inten    --     11.6237                11.4685                17.1845

 - Thermochemistry -
 -------------------
 Temperature   298.150 Kelvin.  Pressure   1.00000 Atm.
 Atom     1 has atomic number  6 and mass  12.00000

 Molecular mass:   126.06808 amu.
 Principal axes and moments of inertia in atomic units:
                           1         2         3
     Eigenvalues --   640.224511001.735431126.46271
           X            0.99944   0.03353  -0.00209
           Y           -0.03352   0.99943   0.00307
           Z            0.00219  -0.00300   0.99999
 This molecule is an asymmetric top.
 Rotational symmetry number  1.
 Warning -- assumption of classical behavior for rotation
           may cause significant error
 Rotational temperatures (Kelvin)      0.13529     0.08646     0.07689
 Rotational constants (GHZ):           2.81892     1.80161     1.60213
 Zero-point vibrational energy     425315.2 (Joules/Mol)
                                  101.65277 (Kcal/Mol)
 Warning -- explicit consideration of   8 degrees of freedom as
           vibrations may cause significant error
 Vibrational temperatures:    188.87   297.74   312.55   394.83   599.27
          (Kelvin)            631.31   741.86   838.54  1000.75  1035.72
                             1112.27  1118.94  1165.04  1286.75  1308.54
                             1315.36  1375.83  1408.49  1443.34  1483.99
                             1509.24  1544.45  1579.72  1594.93  1618.06
                             1631.95  1644.36  1666.78  1800.19  1819.08
                             1846.66  1896.56  1921.60  1968.37  1981.86
                             2025.51  2028.79  2070.20  2152.28  2159.88
                             2194.02  4312.06  4360.46  4365.39  4402.67
                             4459.90  4480.17  4485.34  4543.99  4574.29
                             4608.43

 Zero-point correction=                           0.161994 (Hartree/Particle)
 Thermal correction to Energy=                    0.169070
 Thermal correction to Enthalpy=                  0.170015
 Thermal correction to Gibbs Free Energy=         0.130741
 Sum of electronic and zero-point Energies=           -423.027694
 Sum of electronic and thermal Energies=              -423.020618
 Sum of electronic and thermal Enthalpies=            -423.019673
 Sum of electronic and thermal Free Energies=         -423.058947

                     E (Thermal)             CV                S
                      KCal/Mol        Cal/Mol-Kelvin    Cal/Mol-Kelvin
 Total                  106.093             28.717             82.659
 Electronic               0.000              0.000              0.000
 Translational            0.889              2.981             40.409
 Rotational               0.889              2.981             28.071
 Vibrational            104.316             22.755             14.180
 Vibration     1          0.612              1.922              2.927
 Vibration     2          0.641              1.830              2.070
 Vibration     3          0.646              1.815              1.982
 Vibration     4          0.677              1.721              1.568
 Vibration     5          0.780              1.434              0.904
 Vibration     6          0.799              1.386              0.830
 Vibration     7          0.871              1.215              0.620
 Vibration     8          0.940              1.068              0.480

 Normal termination of Gaussian 09 at Mon Jan 27 23:06:20 2020.
