 Gaussian 09, Revision D.01,
 Gaussian 09:  ES64L-G09RevD.01 24-Apr-2013

 -----------------------------
 # b3lyp 6-31G(2df,p) opt Freq
 -----------------------------

 -----
 titel
 -----
 Symbolic Z-matrix:
 Charge =  0 Multiplicity = 1

 SCF Done:  E(RB3LYP) =  -423.108089472     A.U. after   13 cycles
 Optimization completed.
    -- Stationary point found.
 Normal termination of Gaussian 09 at Mon Jan 27 18:36:54 2020.

 ----------------------------------------------------------------------
 #N Geom=AllCheck Guess=TCheck SCRF=Check GenChk RB3LYP/6-31G(2df,p) Fr
 eq
 ----------------------------------------------------------------------

 Structure from the checkpoint file:  "/scratch/puck/g09_2219036f-502c-4076-bee2-3b240724b871/Gau-75787.chk"
 -----
 titel
 -----
 Charge =  0 Multiplicity = 1

                         Standard orientation:
 ---------------------------------------------------------------------
 Center     Atomic      Atomic             Coordinates (Angstroms)
 Number     Number       Type             X           Y           Z
 ---------------------------------------------------------------------
      1          6           0        0.644926    1.957591    0.085629
      2          6           0        0.446371    0.526723   -0.344064
      3          8           0        1.741005   -0.146776   -0.527936
      4          6           0        1.525254   -0.940607    0.680397
      5          6           0        0.029564   -0.689748    0.546034
      6          6           0       -0.554006   -1.339272   -0.771331
      7          6           0       -0.864502    0.120240   -1.069060
      8          8           0       -1.808292    0.444815    0.006899
      9          6           0       -1.230808   -0.184125    1.205811
     10          1           0        1.216954    2.025771    1.017345
     11          1           0        1.218428    2.483006   -0.686100
     12          1           0       -0.313064    2.464062    0.218724
     13          1           0        1.878885   -1.969482    0.564513
     14          1           0        2.006794   -0.473937    1.549175
     15          1           0        0.221333   -1.776700   -1.395834
     16          1           0       -1.414483   -2.001469   -0.661565
     17          1           0       -1.269018    0.528695   -1.995778
     18          1           0       -1.067508    0.577127    1.975157
     19          1           0       -1.920820   -0.946198    1.582169
 ---------------------------------------------------------------------

 SCF Done:  E(RB3LYP) =  -423.108089472     A.U. after    1 cycles

 The electronic state is 1-A.
 Alpha  occ. eigenvalues --  -19.14102 -19.13939 -10.24346 -10.23823 -10.23602
 Alpha  occ. eigenvalues --  -10.23538 -10.20509 -10.18382 -10.17575  -1.05332
 Alpha  occ. eigenvalues --   -1.02099  -0.81543  -0.74882  -0.73019  -0.67787
 Alpha  occ. eigenvalues --   -0.63071  -0.57824  -0.52222  -0.50815  -0.49160
 Alpha  occ. eigenvalues --   -0.47236  -0.45915  -0.42753  -0.40685  -0.40204
 Alpha  occ. eigenvalues --   -0.39125  -0.38523  -0.34974  -0.34689  -0.32447
 Alpha  occ. eigenvalues --   -0.31548  -0.26939  -0.26416  -0.23842
 Alpha virt. eigenvalues --    0.06511   0.08529   0.09450   0.12109   0.12642
 Alpha virt. eigenvalues --    0.13667   0.13895   0.14562   0.15493   0.16157
 Alpha virt. eigenvalues --    0.17419   0.18215   0.19020   0.19934   0.21107

 Mulliken charges:
               1
     1  C   -0.478431
     2  C    0.456517
     3  O   -0.348356
     4  C   -0.205579
     5  C    0.179575
     6  C   -0.256701
     7  C    0.008237
     8  O   -0.297238
     9  C   -0.176269
    10  H    0.116033
    11  H    0.130327
    12  H    0.139273
    13  H    0.112178
    14  H    0.108231
    15  H    0.122408
    16  H    0.099484
    17  H    0.074707
    18  H    0.109218
    19  H    0.106387
 Sum of Mulliken charges =   0.00000

 Dipole moment (field-independent basis, Debye):
    X=              0.1834    Y=             -0.7728    Z=              1.1521  Tot=              1.3994
 Quadrupole moment (field-independent basis, Debye-Ang):
   XX=            -59.1301   YY=            -51.0381   ZZ=            -50.5751
   XY=              1.0798   XZ=              2.2042   YZ=             -0.7721

  Exact polarizability:  76.393   0.455  76.231   2.301  -0.120  70.377
 Approx polarizability: 115.737  -2.273 109.223   0.684  -2.705 109.167

                      1                      2                      3
                      A                      A                      A
 Frequencies --    194.2628               220.5170               261.0382
 Red. masses --      1.0490                 2.5703                 2.6198
 Frc consts  --      0.0233                 0.0736                 0.1052
 IR Inten    --      0.1891                 0.9767                 2.9242

                      4                      5                      6
                      A                      A                      A
 Frequencies --    325.5533               361.0528               415.5467
 Red. masses --      2.6956                 2.7983                 3.7616
 Frc consts  --      0.1683                 0.2149                 0.3827
 IR Inten    --      1.5008                 2.3863                11.5866

                      7                      8                      9
                      A                      A                      A
 Frequencies --    476.3730               489.0972               554.0228
 Red. masses --      2.9645                 2.1039                 4.5065
 Frc consts  --      0.3964                 0.2965                 0.8150
 IR Inten    --      7.1282                 1.1047                 0.5178

                     10                     11                     12
                      A                      A                      A
 Frequencies --    646.1288               713.6804               757.6089
 Red. masses --      3.6766                 4.3435                 3.5528
 Frc consts  --      0.9043                 1.3035                 1.2015
 IR Inten    --      1.4494                 4.2821                 3.4095

                     13                     14                     15
                      A                      A                      A
 Frequencies --    835.9700               846.7174               861.4264
 Red. masses --      2.9757                 4.1300                 4.4366
 Frc consts  --      1.2252                 1.7445                 1.9397
 IR Inten    --     20.8522                10.0777                 8.9606

                     16                     17                     18
                      A                      A                      A
 Frequencies --    899.1326               915.8703               939.8714
 Red. masses --      2.9086                 2.3624                 4.5102
 Frc consts  --      1.3854                 1.1675                 2.3474
 IR Inten    --     46.3543                24.6654                46.7401

                     19                     20                     21
                      A                      A                      A
 Frequencies --    970.1405               984.3925              1014.0818
 Red. masses --      2.4199                 1.5044                 1.7475
 Frc consts  --      1.3419                 0.8589                 1.0588
 IR Inten    --     24.3054                 9.7504                 2.3069

                     22                     23                     24
                      A                      A                      A
 Frequencies --   1062.8401              1093.6461              1104.2729
 Red. masses --      1.6144                 2.0187                 1.5908
 Frc consts  --      1.0745                 1.4226                 1.1429
 IR Inten    --      0.4701                11.6646                 6.0490

                     25                     26                     27
                      A                      A                      A
 Frequencies --   1138.9064              1156.1472              1166.5359
 Red. masses --      1.8918                 1.2168                 1.7893
 Frc consts  --      1.4458                 0.9583                 1.4346
 IR Inten    --     19.9325                 0.9814                11.6505

                     28                     29                     30
                      A                      A                      A
 Frequencies --   1200.7766              1217.8082              1234.6631
 Red. masses --      1.5478                 2.5309                 1.5874
 Frc consts  --      1.3149                 2.2114                 1.4258
 IR Inten    --      1.9998                 7.9470                 3.2474

                     31                     32                     33
                      A                      A                      A
 Frequencies --   1263.8608              1280.8648              1292.8783
 Red. masses --      1.4306                 1.5799                 2.5064
 Frc consts  --      1.3464                 1.5271                 2.4684
 IR Inten    --      4.4618                 9.5607                 8.0935

                     34                     35                     36
                      A                      A                      A
 Frequencies --   1337.0362              1373.4922              1400.1979
 Red. masses --      1.4480                 2.5916                 1.3201
 Frc consts  --      1.5252                 2.8805                 1.5249
 IR Inten    --      0.9924                 1.0824                11.2873

                     37                     38                     39
                      A                      A                      A
 Frequencies --   1476.3710              1481.3589              1491.2137
 Red. masses --      1.1133                 1.0613                 1.0563
 Frc consts  --      1.4297                 1.3721                 1.3839
 IR Inten    --      3.6660                 4.0870                 3.8990

                     40                     41                     42
                      A                      A                      A
 Frequencies --   1514.3976              1527.3089              3018.3231
 Red. masses --      1.1006                 1.1038                 1.0596
 Frc consts  --      1.4872                 1.5171                 5.6875
 IR Inten    --      0.3198                 0.1724                60.1081

                     43                     44                     45
                      A                      A                      A
 Frequencies --   3034.4614              3038.2034              3083.0140
 Red. masses --      1.0387                 1.0540                 1.1066
 Frc consts  --      5.6351                 5.7324                 6.1969
 IR Inten    --     25.2900                62.6855                10.5846

                     46                     47                     48
                      A                      A                      A
 Frequencies --   3086.7858              3087.9986              3092.5189
 Red. masses --      1.1047                 1.0652                 1.1005
 Frc consts  --      6.2017                 5.9849                 6.2013
 IR Inten    --     34.3272                46.4954                18.4348

                     49                     50                     51
                      A                      A                      A
 Frequencies --   3115.6038              3133.9146              3172.9557
 Red. masses --      1.0910                 1.0996                 1.1066
 Frc consts  --      6.2396                 6.3629                 6.5642
 IR Inten    --     48.9283                 8.9089                 9.1712

 - Thermochemistry -
 -------------------
 Temperature   298.150 Kelvin.  Pressure   1.00000 Atm.
 Atom     1 has atomic number  6 and mass  12.00000

 Molecular mass:   126.06808 amu.
 Principal axes and moments of inertia in atomic units:
                           1         2         3
     Eigenvalues --   681.88219 917.104431095.85707
           X            0.99875   0.04459   0.02237
           Y           -0.04525   0.99852   0.03017
           Z           -0.02099  -0.03115   0.99929
 This molecule is an asymmetric top.
 Rotational symmetry number  1.
 Warning -- assumption of classical behavior for rotation
           may cause significant error
 Rotational temperatures (Kelvin)      0.12702     0.09444     0.07904
 Rotational constants (GHZ):           2.64671     1.96787     1.64688
 Zero-point vibrational energy     420851.3 (Joules/Mol)
                                  100.58587 (Kcal/Mol)
 Warning -- explicit consideration of   9 degrees of freedom as
           vibrations may cause significant error
 Vibrational temperatures:    279.50   317.27   375.58   468.40   519.47
          (Kelvin)            597.88   685.39   703.70   797.11   929.63
                             1026.83  1090.03  1202.77  1218.24  1239.40
                             1293.65  1317.73  1352.26  1395.81  1416.32
                             1459.04  1529.19  1573.51  1588.80  1638.63
                             1663.44  1678.38  1727.65  1752.15  1776.40
                             1818.41  1842.88  1860.16  1923.69  1976.15
                             2014.57  2124.17  2131.34  2145.52  2178.88
                             2197.45  4342.69  4365.91  4371.29  4435.76
                             4441.19  4442.94  4449.44  4482.65  4509.00
                             4565.17

 Zero-point correction=                           0.160294 (Hartree/Particle)
 Thermal correction to Energy=                    0.167463
 Thermal correction to Enthalpy=                  0.168407
 Thermal correction to Gibbs Free Energy=         0.129325
 Sum of electronic and zero-point Energies=           -422.947796
 Sum of electronic and thermal Energies=              -422.940626
 Sum of electronic and thermal Enthalpies=            -422.939682
 Sum of electronic and thermal Free Energies=         -422.978765

                     E (Thermal)             CV                S
                      KCal/Mol        Cal/Mol-Kelvin    Cal/Mol-Kelvin
 Total                  105.085             29.842             82.256
 Electronic               0.000              0.000              0.000
 Translational            0.889              2.981             40.409
 Rotational               0.889              2.981             28.018
 Vibrational            103.307             23.881             13.830
 Vibration     1          0.635              1.848              2.187
 Vibration     2          0.647              1.810              1.955
 Vibration     3          0.669              1.744              1.655
 Vibration     4          0.710              1.624              1.282
 Vibration     5          0.735              1.552              1.118
 Vibration     6          0.779              1.436              0.907
 Vibration     7          0.833              1.302              0.720
 Vibration     8          0.845              1.274              0.686
 Vibration     9          0.909              1.131              0.536

 Optimization completed.
    -- Stationary point found.
 Normal termination of Gaussian 09 at Mon Jan 27 19:37:26 2020.
