 Gaussian 09, Revision D.01,
 Gaussian 09:  ES64L-G09RevD.01 24-Apr-2013

 -----------------------------
 # b3lyp 6-31G(2df,p) opt Freq
 -----------------------------

 -----
 titel
 -----
 Symbolic Z-matrix:
 Charge =  0 Multiplicity = 1

 SCF Done:  E(RB3LYP) =  -423.169392947     A.U. after   13 cycles
 Optimization completed.
    -- Stationary point found.
 Normal termination of Gaussian 09 at Tue Jan 28 03:02:07 2020.

 ----------------------------------------------------------------------
 #N Geom=AllCheck Guess=TCheck SCRF=Check GenChk RB3LYP/6-31G(2df,p) Fr
 eq
 ----------------------------------------------------------------------

 Structure from the checkpoint file:  "/scratch/puck/g09_2a1434ac-0a2a-4dbe-9b35-5429296bd1c4/Gau-114306.chk"
 -----
 titel
 -----
 Charge =  0 Multiplicity = 1

                         Standard orientation:
 ---------------------------------------------------------------------
 Center     Atomic      Atomic             Coordinates (Angstroms)
 Number     Number       Type             X           Y           Z
 ---------------------------------------------------------------------
      1          8           0        2.755738   -0.150096    0.049289
      2          6           0        1.381143   -0.047643   -0.314678
      3          6           0        0.604906   -1.279592    0.210562
      4          6           0       -0.909004   -1.229059   -0.055722
      5          6           0       -1.737652   -0.386960    0.938210
      6          6           0       -1.589294    0.715230   -0.142964
      7          8           0       -1.223922   -0.293338   -1.124095
      8          6           0       -0.456844    1.665862    0.129870
      9          6           0        0.827002    1.309741    0.075643
     10          1           0        2.806701   -0.110041    1.010786
     11          1           0        1.385677   -0.104380   -1.408335
     12          1           0        1.051062   -2.160789   -0.261247
     13          1           0        0.777826   -1.382079    1.290356
     14          1           0       -1.300130   -2.225337   -0.283811
     15          1           0       -2.763017   -0.748399    1.038324
     16          1           0       -1.310006   -0.183409    1.920730
     17          1           0       -2.499606    1.244912   -0.440015
     18          1           0       -0.723546    2.682368    0.408987
     19          1           0        1.598974    2.049155    0.277142
 ---------------------------------------------------------------------

 SCF Done:  E(RB3LYP) =  -423.169392947     A.U. after    1 cycles

 The electronic state is 1-A.
 Alpha  occ. eigenvalues --  -19.13341 -19.13096 -10.23841 -10.23735 -10.23413
 Alpha  occ. eigenvalues --  -10.18900 -10.18394 -10.18340 -10.18251  -1.03879
 Alpha  occ. eigenvalues --   -1.01591  -0.79601  -0.76543  -0.74057  -0.65375
 Alpha  occ. eigenvalues --   -0.64626  -0.55664  -0.52750  -0.52095  -0.48292
 Alpha  occ. eigenvalues --   -0.46507  -0.45607  -0.44421  -0.42254  -0.39664
 Alpha  occ. eigenvalues --   -0.38357  -0.37794  -0.35007  -0.32827  -0.32161
 Alpha  occ. eigenvalues --   -0.30670  -0.27322  -0.24835  -0.24534
 Alpha virt. eigenvalues --    0.00072   0.07807   0.09063   0.10296   0.11537
 Alpha virt. eigenvalues --    0.11866   0.13658   0.14543   0.16104   0.17029
 Alpha virt. eigenvalues --    0.18850   0.19606   0.20300   0.22958   0.23984

 Mulliken charges:
               1
     1  O   -0.435604
     2  C    0.091240
     3  C   -0.254527
     4  C    0.096523
     5  C   -0.262110
     6  C    0.047212
     7  O   -0.283714
     8  C   -0.059403
     9  C   -0.100260
    10  H    0.273926
    11  H    0.125691
    12  H    0.111991
    13  H    0.089197
    14  H    0.080673
    15  H    0.108568
    16  H    0.102241
    17  H    0.080757
    18  H    0.089591
    19  H    0.098007
 Sum of Mulliken charges =   0.00000

 Dipole moment (field-independent basis, Debye):
    X=             -1.0753    Y=              0.0317    Z=              2.4815  Tot=              2.7047
 Quadrupole moment (field-independent basis, Debye-Ang):
   XX=            -55.8397   YY=            -50.2502   ZZ=            -53.8438
   XY=             -0.1276   XZ=              1.2380   YZ=             -0.0885

  Exact polarizability:  89.468  -2.522  77.448  -0.417   1.219  59.467
 Approx polarizability: 130.219  -7.288 108.588   0.702   2.670  96.794

                      1                      2                      3
                      A                      A                      A
 Frequencies --    109.5821               213.1139               297.8639
 Red. masses --      3.3038                 2.5498                 5.1534
 Frc consts  --      0.0234                 0.0682                 0.2694
 IR Inten    --      0.6031                 2.1316                 1.0740

                      4                      5                      6
                      A                      A                      A
 Frequencies --    311.6952               346.8646               374.3063
 Red. masses --      1.3002                 2.3816                 4.1812
 Frc consts  --      0.0744                 0.1688                 0.3451
 IR Inten    --     42.6091                36.1066                18.8881

                      7                      8                      9
                      A                      A                      A
 Frequencies --    398.2762               421.9201               560.2613
 Red. masses --      1.9640                 5.1158                 2.7863
 Frc consts  --      0.1836                 0.5366                 0.5153
 IR Inten    --      2.6302                 4.6018                 1.0879

                     10                     11                     12
                      A                      A                      A
 Frequencies --    613.9038               678.5811               745.9187
 Red. masses --      3.7490                 2.9899                 1.6162
 Frc consts  --      0.8325                 0.8112                 0.5298
 IR Inten    --      7.0846                 2.3725                24.5477

                     13                     14                     15
                      A                      A                      A
 Frequencies --    806.3739               831.5204               875.0558
 Red. masses --      2.9369                 2.2585                 2.9012
 Frc consts  --      1.1251                 0.9200                 1.3089
 IR Inten    --      5.7020                 2.4795                 3.0105

                     16                     17                     18
                      A                      A                      A
 Frequencies --    897.1761               914.1883               947.5742
 Red. masses --      2.9759                 3.4656                 2.4886
 Frc consts  --      1.4113                 1.7065                 1.3165
 IR Inten    --     10.0706                 5.0653                18.9039

                     19                     20                     21
                      A                      A                      A
 Frequencies --    985.2253              1002.4065              1012.2946
 Red. masses --      1.9565                 1.4991                 3.1076
 Frc consts  --      1.1189                 0.8875                 1.8762
 IR Inten    --     16.6774                 9.7329                43.3076

                     22                     23                     24
                      A                      A                      A
 Frequencies --   1054.8633              1077.0505              1096.5698
 Red. masses --      2.3122                 2.6568                 2.1415
 Frc consts  --      1.5159                 1.8158                 1.5172
 IR Inten    --     80.3758                37.2132                31.2057

                     25                     26                     27
                      A                      A                      A
 Frequencies --   1116.0613              1138.5395              1172.4492
 Red. masses --      2.5312                 1.3868                 1.1519
 Frc consts  --      1.8576                 1.0592                 0.9329
 IR Inten    --      5.8676                 2.3086                 5.2255

                     28                     29                     30
                      A                      A                      A
 Frequencies --   1218.9256              1237.5891              1255.0524
 Red. masses --      1.2251                 1.3742                 1.2717
 Frc consts  --      1.0725                 1.2401                 1.1802
 IR Inten    --      7.3655                 5.5933                 8.5606

                     31                     32                     33
                      A                      A                      A
 Frequencies --   1263.3650              1315.1876              1334.8484
 Red. masses --      1.3363                 1.4463                 1.4083
 Frc consts  --      1.2567                 1.4739                 1.4785
 IR Inten    --      2.7699                 1.7620                 2.9976

                     34                     35                     36
                      A                      A                      A
 Frequencies --   1352.6239              1359.4922              1380.6496
 Red. masses --      1.4222                 1.3437                 1.4206
 Frc consts  --      1.5330                 1.4632                 1.5955
 IR Inten    --      3.1138                 8.7981                10.6303

                     37                     38                     39
                      A                      A                      A
 Frequencies --   1399.2984              1416.9334              1479.9548
 Red. masses --      1.4227                 1.3314                 1.1028
 Frc consts  --      1.6413                 1.5749                 1.4231
 IR Inten    --      8.0821                51.7818                 0.3824

                     40                     41                     42
                      A                      A                      A
 Frequencies --   1491.0630              1708.8261              3020.3491
 Red. masses --      1.1063                 7.3060                 1.0651
 Frc consts  --      1.4492                12.5698                 5.7249
 IR Inten    --      4.7058                 0.3808                24.2920

                     43                     44                     45
                      A                      A                      A
 Frequencies --   3051.1889              3057.8052              3058.5500
 Red. masses --      1.0864                 1.0834                 1.0841
 Frc consts  --      5.9590                 5.9687                 5.9750
 IR Inten    --     23.7379                42.2210                23.0888

                     46                     47                     48
                      A                      A                      A
 Frequencies --   3077.3256              3082.5212              3137.4976
 Red. masses --      1.0639                 1.0962                 1.1094
 Frc consts  --      5.9359                 6.1369                 6.4346
 IR Inten    --     46.3157                34.7813                23.6604

                     49                     50                     51
                      A                      A                      A
 Frequencies --   3145.0044              3167.6199              3796.6290
 Red. masses --      1.0836                 1.0964                 1.0660
 Frc consts  --      6.3146                 6.4817                 9.0532
 IR Inten    --      6.1199                23.2441                11.2740

 - Thermochemistry -
 -------------------
 Temperature   298.150 Kelvin.  Pressure   1.00000 Atm.
 Atom     1 has atomic number  8 and mass  15.99491

 Molecular mass:   126.06808 amu.
 Principal axes and moments of inertia in atomic units:
                           1         2         3
     Eigenvalues --   606.058001196.611011495.07199
           X            0.99996  -0.00230  -0.00865
           Y            0.00224   0.99997  -0.00695
           Z            0.00867   0.00693   0.99994
 This molecule is an asymmetric top.
 Rotational symmetry number  1.
 Warning -- assumption of classical behavior for rotation
           may cause significant error
 Rotational temperatures (Kelvin)      0.14291     0.07238     0.05793
 Rotational constants (GHZ):           2.97784     1.50821     1.20713
 Zero-point vibrational energy     423525.5 (Joules/Mol)
                                  101.22503 (Kcal/Mol)
 Warning -- explicit consideration of  10 degrees of freedom as
           vibrations may cause significant error
 Vibrational temperatures:    157.66   306.62   428.56   448.46   499.06
          (Kelvin)            538.54   573.03   607.05   806.09   883.27
                              976.33  1073.21  1160.19  1196.37  1259.01
                             1290.83  1315.31  1363.35  1417.52  1442.24
                             1456.46  1517.71  1549.63  1577.72  1605.76
                             1638.10  1686.89  1753.76  1780.61  1805.74
                             1817.70  1892.26  1920.55  1946.12  1956.00
                             1986.44  2013.28  2038.65  2129.32  2145.30
                             2458.62  4345.60  4389.97  4399.49  4400.57
                             4427.58  4435.05  4514.15  4524.95  4557.49
                             5462.50

 Zero-point correction=                           0.161312 (Hartree/Particle)
 Thermal correction to Energy=                    0.168825
 Thermal correction to Enthalpy=                  0.169769
 Thermal correction to Gibbs Free Energy=         0.129629
 Sum of electronic and zero-point Energies=           -423.008081
 Sum of electronic and thermal Energies=              -423.000568
 Sum of electronic and thermal Enthalpies=            -422.999624
 Sum of electronic and thermal Free Energies=         -423.039764

                     E (Thermal)             CV                S
                      KCal/Mol        Cal/Mol-Kelvin    Cal/Mol-Kelvin
 Total                  105.939             30.509             84.482
 Electronic               0.000              0.000              0.000
 Translational            0.889              2.981             40.409
 Rotational               0.889              2.981             28.474
 Vibrational            104.162             24.547             15.599
 Vibration     1          0.606              1.942              3.276
 Vibration     2          0.644              1.821              2.017
 Vibration     3          0.691              1.678              1.429
 Vibration     4          0.700              1.651              1.353
 Vibration     5          0.725              1.582              1.180
 Vibration     6          0.745              1.525              1.062
 Vibration     7          0.765              1.474              0.969
 Vibration     8          0.784              1.423              0.885
 Vibration     9          0.916              1.117              0.523
 Vibration    10          0.973              1.002              0.426

 Normal termination of Gaussian 09 at Tue Jan 28 03:48:21 2020.
