 Gaussian 09, Revision D.01,
 Gaussian 09:  ES64L-G09RevD.01 24-Apr-2013

 -----------------------------
 # b3lyp 6-31G(2df,p) opt Freq
 -----------------------------

 -----
 titel
 -----
 Symbolic Z-matrix:
 Charge =  0 Multiplicity = 1

 SCF Done:  E(RB3LYP) =  -423.168316434     A.U. after   14 cycles
 Optimization completed.
    -- Stationary point found.
 Normal termination of Gaussian 09 at Tue Jan 28 02:51:36 2020.

 ----------------------------------------------------------------------
 #N Geom=AllCheck Guess=TCheck SCRF=Check GenChk RB3LYP/6-31G(2df,p) Fr
 eq
 ----------------------------------------------------------------------

 Structure from the checkpoint file:  "/scratch/puck/g09_c3c07b17-c8d6-4726-85b2-c9401cee875c/Gau-40662.chk"
 -----
 titel
 -----
 Charge =  0 Multiplicity = 1

                         Standard orientation:
 ---------------------------------------------------------------------
 Center     Atomic      Atomic             Coordinates (Angstroms)
 Number     Number       Type             X           Y           Z
 ---------------------------------------------------------------------
      1          6           0       -0.435040    1.879735   -0.454267
      2          6           0        0.155861    0.522300   -0.206666
      3          6           0       -0.069081   -0.823954   -0.861913
      4          6           0        1.420054   -1.161953   -0.817451
      5          6           0        1.659396    0.234779   -0.138661
      6          8           0        2.191165    0.278120    1.166188
      7          6           0       -0.554498   -0.600105    0.564675
      8          6           0       -2.017781   -0.498104    0.757235
      9          8           0       -2.811465   -0.125568   -0.078977
     10          1           0        0.026201    2.340765   -1.335006
     11          1           0       -1.510741    1.817492   -0.626963
     12          1           0       -0.256576    2.542581    0.400072
     13          1           0       -0.787254   -1.079478   -1.630935
     14          1           0        1.697624   -2.035349   -0.219066
     15          1           0        1.887365   -1.235532   -1.802429
     16          1           0        2.206450    0.909847   -0.811375
     17          1           0        3.131397    0.077826    1.117878
     18          1           0       -0.017347   -1.065149    1.386195
     19          1           0       -2.368190   -0.809593    1.766227
 ---------------------------------------------------------------------

 SCF Done:  E(RB3LYP) =  -423.168316434     A.U. after    1 cycles

 The electronic state is 1-A.
 Alpha  occ. eigenvalues --  -19.14473 -19.12943 -10.26493 -10.24218 -10.20928
 Alpha  occ. eigenvalues --  -10.20317 -10.19713 -10.19019 -10.17577  -1.03653
 Alpha  occ. eigenvalues --   -1.02833  -0.90367  -0.74501  -0.72624  -0.64856
 Alpha  occ. eigenvalues --   -0.64076  -0.55229  -0.53178  -0.51440  -0.49134
 Alpha  occ. eigenvalues --   -0.46366  -0.43887  -0.42909  -0.41470  -0.40625
 Alpha  occ. eigenvalues --   -0.39607  -0.38434  -0.37160  -0.35687  -0.32146
 Alpha  occ. eigenvalues --   -0.28395  -0.27672  -0.26529  -0.24613
 Alpha virt. eigenvalues --   -0.02227   0.06988   0.10128   0.11002   0.12144
 Alpha virt. eigenvalues --    0.12788   0.14015   0.15527   0.16309   0.17212
 Alpha virt. eigenvalues --    0.17661   0.18530   0.20086   0.20730   0.22974

 Mulliken charges:
               1
     1  C   -0.520435
     2  C    0.349854
     3  C   -0.089180
     4  C   -0.295636
     5  C    0.051064
     6  O   -0.432032
     7  C   -0.161070
     8  C    0.117408
     9  O   -0.274829
    10  H    0.114585
    11  H    0.157934
    12  H    0.126053
    13  H    0.109818
    14  H    0.100504
    15  H    0.106597
    16  H    0.075139
    17  H    0.286466
    18  H    0.098977
    19  H    0.078784
 Sum of Mulliken charges =   0.00000

 Dipole moment (field-independent basis, Debye):
    X=              3.2966    Y=             -0.6180    Z=             -0.1410  Tot=              3.3570
 Quadrupole moment (field-independent basis, Debye-Ang):
   XX=            -54.6492   YY=            -52.2575   ZZ=            -52.6515
   XY=             -0.1898   XZ=             -3.4383   YZ=             -1.4017

  Exact polarizability:  90.139  -0.770  71.338  -4.024  -2.524  71.375
 Approx polarizability: 126.056  -0.710 103.408   0.058  -3.851 112.788

                      1                      2                      3
                      A                      A                      A
 Frequencies --    116.9058               124.6671               194.8737
 Red. masses --      4.6308                 3.4447                 1.2274
 Frc consts  --      0.0373                 0.0315                 0.0275
 IR Inten    --      5.0225                 4.8404                 0.6885

                      4                      5                      6
                      A                      A                      A
 Frequencies --    199.1252               206.6818               246.2338
 Red. masses --      2.5288                 3.4153                 2.6575
 Frc consts  --      0.0591                 0.0860                 0.0949
 IR Inten    --     11.3638                 5.0000                 2.4716

                      7                      8                      9
                      A                      A                      A
 Frequencies --    274.3780               317.6875               356.1617
 Red. masses --      1.1481                 2.3635                 3.3314
 Frc consts  --      0.0509                 0.1405                 0.2490
 IR Inten    --     86.4747                 7.5198                 5.6791

                     10                     11                     12
                      A                      A                      A
 Frequencies --    426.6203               544.2263               648.9931
 Red. masses --      2.6358                 3.4709                 3.7341
 Frc consts  --      0.2826                 0.6057                 0.9267
 IR Inten    --      6.7845                 5.6420                 0.6277

                     13                     14                     15
                      A                      A                      A
 Frequencies --    671.5726               706.6593               813.3227
 Red. masses --      3.9230                 4.5824                 2.1545
 Frc consts  --      1.0425                 1.3482                 0.8397
 IR Inten    --      0.6992                 5.6003                 3.5089

                     16                     17                     18
                      A                      A                      A
 Frequencies --    853.1058               920.4423               940.4092
 Red. masses --      3.3873                 2.3558                 1.7467
 Frc consts  --      1.4525                 1.1759                 0.9101
 IR Inten    --     43.9286                 5.8947                21.2912

                     19                     20                     21
                      A                      A                      A
 Frequencies --    959.9691               992.9685              1036.6663
 Red. masses --      1.5113                 1.9889                 1.6185
 Frc consts  --      0.8206                 1.1554                 1.0248
 IR Inten    --      9.2591                 6.7838                19.9098

                     22                     23                     24
                      A                      A                      A
 Frequencies --   1044.7165              1077.4408              1085.6019
 Red. masses --      1.8640                 1.4146                 2.1545
 Frc consts  --      1.1986                 0.9676                 1.4960
 IR Inten    --     15.2108                16.6094                49.8086

                     25                     26                     27
                      A                      A                      A
 Frequencies --   1098.0801              1121.1074              1165.0116
 Red. masses --      1.9585                 1.8155                 1.7974
 Frc consts  --      1.3914                 1.3444                 1.4373
 IR Inten    --     43.8356                 0.8519                57.8357

                     28                     29                     30
                      A                      A                      A
 Frequencies --   1195.3862              1230.3781              1238.0303
 Red. masses --      1.3483                 1.6645                 1.6282
 Frc consts  --      1.1351                 1.4846                 1.4703
 IR Inten    --      5.2136                 5.0508                 4.4631

                     31                     32                     33
                      A                      A                      A
 Frequencies --   1253.7488              1309.9406              1352.9891
 Red. masses --      1.6463                 1.5358                 1.5311
 Frc consts  --      1.5247                 1.5527                 1.6513
 IR Inten    --     42.6552                27.5107                25.5913

                     34                     35                     36
                      A                      A                      A
 Frequencies --   1400.6184              1416.8751              1428.8007
 Red. masses --      1.7594                 1.3979                 1.3849
 Frc consts  --      2.0335                 1.6534                 1.6657
 IR Inten    --     35.1210                 1.1383                30.1728

                     37                     38                     39
                      A                      A                      A
 Frequencies --   1442.9086              1486.4557              1495.4116
 Red. masses --      1.7676                 1.1703                 1.0727
 Frc consts  --      2.1683                 1.5235                 1.4134
 IR Inten    --     11.1361                 5.5655                 2.2976

                     40                     41                     42
                      A                      A                      A
 Frequencies --   1500.1248              1794.7758              2883.4657
 Red. masses --      1.0487                 9.2092                 1.0828
 Frc consts  --      1.3904                17.4781                 5.3043
 IR Inten    --      6.2965               155.9293               149.9129

                     43                     44                     45
                      A                      A                      A
 Frequencies --   3001.9516              3031.0562              3049.1522
 Red. masses --      1.0850                 1.0390                 1.0597
 Frc consts  --      5.7609                 5.6241                 5.8047
 IR Inten    --     41.9454                37.1380                40.9488

                     46                     47                     48
                      A                      A                      A
 Frequencies --   3085.6186              3108.0807              3138.8855
 Red. masses --      1.1006                 1.1062                 1.0971
 Frc consts  --      6.1742                 6.2963                 6.3688
 IR Inten    --     19.9512                22.4723                 2.8975

                     49                     50                     51
                      A                      A                      A
 Frequencies --   3153.0249              3199.3493              3816.9565
 Red. masses --      1.0890                 1.0924                 1.0661
 Frc consts  --      6.3788                 6.5878                 9.1514
 IR Inten    --      9.3043                 6.1255                24.9475

 - Thermochemistry -
 -------------------
 Temperature   298.150 Kelvin.  Pressure   1.00000 Atm.
 Atom     1 has atomic number  6 and mass  12.00000

 Molecular mass:   126.06808 amu.
 Principal axes and moments of inertia in atomic units:
                           1         2         3
     Eigenvalues --   615.198851476.298521606.97636
           X            0.99974  -0.01767  -0.01413
           Y            0.01675   0.99786  -0.06325
           Z            0.01522   0.06300   0.99790
 This molecule is an asymmetric top.
 Rotational symmetry number  1.
 Warning -- assumption of classical behavior for rotation
           may cause significant error
 Rotational temperatures (Kelvin)      0.14079     0.05867     0.05390
 Rotational constants (GHZ):           2.93359     1.22248     1.12307
 Zero-point vibrational energy     413654.4 (Joules/Mol)
                                   98.86577 (Kcal/Mol)
 Warning -- explicit consideration of  11 degrees of freedom as
           vibrations may cause significant error
 Vibrational temperatures:    168.20   179.37   280.38   286.50   297.37
          (Kelvin)            354.28   394.77   457.08   512.44   613.81
                              783.02   933.76   966.24  1016.72  1170.19
                             1227.43  1324.31  1353.04  1381.18  1428.66
                             1491.53  1503.11  1550.20  1561.94  1579.89
                             1613.02  1676.19  1719.89  1770.24  1781.25
                             1803.86  1884.71  1946.65  2015.18  2038.56
                             2055.72  2076.02  2138.68  2151.56  2158.34
                             2582.28  4148.66  4319.13  4361.01  4387.04
                             4439.51  4471.83  4516.15  4536.49  4603.14
                             5491.74

 Zero-point correction=                           0.157553 (Hartree/Particle)
 Thermal correction to Energy=                    0.166626
 Thermal correction to Enthalpy=                  0.167571
 Thermal correction to Gibbs Free Energy=         0.124070
 Sum of electronic and zero-point Energies=           -423.010764
 Sum of electronic and thermal Energies=              -423.001690
 Sum of electronic and thermal Enthalpies=            -423.000746
 Sum of electronic and thermal Free Energies=         -423.044247

                     E (Thermal)             CV                S
                      KCal/Mol        Cal/Mol-Kelvin    Cal/Mol-Kelvin
 Total                  104.560             33.855             91.556
 Electronic               0.000              0.000              0.000
 Translational            0.889              2.981             40.409
 Rotational               0.889              2.981             28.769
 Vibrational            102.782             27.893             22.378
 Vibration     1          0.608              1.935              3.151
 Vibration     2          0.610              1.928              3.027
 Vibration     3          0.636              1.847              2.181
 Vibration     4          0.637              1.841              2.141
 Vibration     5          0.641              1.830              2.073
 Vibration     6          0.661              1.769              1.757
 Vibration     7          0.677              1.721              1.568
 Vibration     8          0.704              1.640              1.322
 Vibration     9          0.732              1.563              1.139
 Vibration    10          0.788              1.412              0.870
 Vibration    11          0.899              1.152              0.556

 Normal termination of Gaussian 09 at Tue Jan 28 03:37:33 2020.
