 Gaussian 09, Revision D.01,
 Gaussian 09:  ES64L-G09RevD.01 24-Apr-2013

 -----------------------------
 # b3lyp 6-31G(2df,p) opt Freq
 -----------------------------

 -----
 titel
 -----
 Symbolic Z-matrix:
 Charge =  0 Multiplicity = 1

 SCF Done:  E(RB3LYP) =  -423.111172256     A.U. after   14 cycles
 Optimization completed.
    -- Stationary point found.
 Normal termination of Gaussian 09 at Mon Jan 27 11:18:37 2020.

 ----------------------------------------------------------------------
 #N Geom=AllCheck Guess=TCheck SCRF=Check GenChk RB3LYP/6-31G(2df,p) Fr
 eq
 ----------------------------------------------------------------------

 Structure from the checkpoint file:  "/scratch/puck/g09_64327c74-06cb-4b0e-b30d-a9030eeb5111/Gau-41923.chk"
 -----
 titel
 -----
 Charge =  0 Multiplicity = 1

                         Standard orientation:
 ---------------------------------------------------------------------
 Center     Atomic      Atomic             Coordinates (Angstroms)
 Number     Number       Type             X           Y           Z
 ---------------------------------------------------------------------
      1          6           0        1.242102    0.106123    1.231568
      2          6           0        1.782037   -0.692672    0.033859
      3          8           0        1.861985    0.591586   -0.732797
      4          6           0        0.533539    0.584583   -0.071909
      5          6           0       -0.613474    1.523788   -0.251125
      6          6           0       -1.835770    0.739357    0.305746
      7          8           0       -1.983634   -0.561322   -0.246275
      8          6           0       -0.919131   -1.469101    0.063645
      9          6           0        0.344127   -0.869369   -0.537298
     10          1           0        0.665848   -0.413831    1.998875
     11          1           0        1.944456    0.826578    1.651873
     12          1           0        2.648943   -1.350290   -0.031280
     13          1           0       -0.501520    2.474339    0.281126
     14          1           0       -0.759629    1.732243   -1.316271
     15          1           0       -1.754107    0.677204    1.403388
     16          1           0       -2.762301    1.268137    0.068667
     17          1           0       -0.851889   -1.621765    1.150440
     18          1           0       -1.201882   -2.420255   -0.394484
     19          1           0        0.344695   -0.950718   -1.626664
 ---------------------------------------------------------------------

 SCF Done:  E(RB3LYP) =  -423.111172256     A.U. after    1 cycles

 The electronic state is 1-A.
 Alpha  occ. eigenvalues --  -19.14409 -19.13025 -10.25146 -10.24705 -10.23766
 Alpha  occ. eigenvalues --  -10.23334 -10.19205 -10.19139 -10.18884  -1.05347
 Alpha  occ. eigenvalues --   -1.03131  -0.80363  -0.77981  -0.71952  -0.66452
 Alpha  occ. eigenvalues --   -0.62771  -0.59775  -0.53329  -0.50606  -0.48332
 Alpha  occ. eigenvalues --   -0.46902  -0.46565  -0.43867  -0.42697  -0.41106
 Alpha  occ. eigenvalues --   -0.38383  -0.37015  -0.34400  -0.34153  -0.32561
 Alpha  occ. eigenvalues --   -0.30938  -0.29262  -0.26125  -0.23408
 Alpha virt. eigenvalues --    0.07925   0.09405   0.10462   0.11022   0.11629
 Alpha virt. eigenvalues --    0.13101   0.14030   0.14417   0.15645   0.16038
 Alpha virt. eigenvalues --    0.17266   0.17624   0.17951   0.19830   0.21930

 Mulliken charges:
               1
     1  C   -0.279244
     2  C   -0.007350
     3  O   -0.365037
     4  C    0.444738
     5  C   -0.364114
     6  C   -0.069129
     7  O   -0.249992
     8  C   -0.146608
     9  C    0.003814
    10  H    0.097086
    11  H    0.107925
    12  H    0.094037
    13  H    0.106236
    14  H    0.122608
    15  H    0.093897
    16  H    0.116089
    17  H    0.094651
    18  H    0.111434
    19  H    0.088960
 Sum of Mulliken charges =   0.00000

 Dipole moment (field-independent basis, Debye):
    X=             -0.5086    Y=             -0.4155    Z=              1.5686  Tot=              1.7006
 Quadrupole moment (field-independent basis, Debye-Ang):
   XX=            -58.1939   YY=            -50.3084   ZZ=            -53.3247
   XY=             -5.1464   XZ=              1.4093   YZ=              0.8904

  Exact polarizability:  80.935  -3.599  75.404   1.254   1.339  67.830
 Approx polarizability: 114.829  -2.135 111.655   0.175   0.178 107.582

                      1                      2                      3
                      A                      A                      A
 Frequencies --    169.5688               257.6714               341.1613
 Red. masses --      2.8578                 3.0880                 2.2533
 Frc consts  --      0.0484                 0.1208                 0.1545
 IR Inten    --      1.2523                 4.8689                 1.3193

                      4                      5                      6
                      A                      A                      A
 Frequencies --    361.2722               387.9620               441.7203
 Red. masses --      3.6286                 2.4094                 4.6122
 Frc consts  --      0.2790                 0.2137                 0.5302
 IR Inten    --      2.5640                 2.7606                 0.4438

                      7                      8                      9
                      A                      A                      A
 Frequencies --    514.2490               564.5800               631.5736
 Red. masses --      3.5622                 2.1492                 3.7147
 Frc consts  --      0.5550                 0.4036                 0.8730
 IR Inten    --      2.3203                 6.4576                12.2369

                     10                     11                     12
                      A                      A                      A
 Frequencies --    668.0538               711.8768               816.7540
 Red. masses --      2.4842                 4.3355                 2.2293
 Frc consts  --      0.6532                 1.2945                 0.8762
 IR Inten    --     13.1398                14.6904                 4.8299

                     13                     14                     15
                      A                      A                      A
 Frequencies --    850.1229               859.4270               906.8716
 Red. masses --      2.9521                 2.6155                 2.7086
 Frc consts  --      1.2570                 1.1382                 1.3125
 IR Inten    --      8.8853                 1.3382                 2.6161

                     16                     17                     18
                      A                      A                      A
 Frequencies --    924.6409               938.3758               952.3457
 Red. masses --      2.7491                 2.4417                 2.7478
 Frc consts  --      1.3848                 1.2668                 1.4683
 IR Inten    --     28.3756                 2.5962                20.6811

                     19                     20                     21
                      A                      A                      A
 Frequencies --    988.5466              1012.8042              1058.1425
 Red. masses --      1.8214                 1.5652                 1.6378
 Frc consts  --      1.0487                 0.9460                 1.0804
 IR Inten    --      2.4441                 1.6743                18.8267

                     22                     23                     24
                      A                      A                      A
 Frequencies --   1079.4286              1111.5627              1119.3234
 Red. masses --      2.8310                 1.8223                 2.0024
 Frc consts  --      1.9434                 1.3266                 1.4781
 IR Inten    --     41.6904                 3.4119                20.2389

                     25                     26                     27
                      A                      A                      A
 Frequencies --   1128.6452              1156.8518              1198.4688
 Red. masses --      2.8066                 1.6826                 1.5566
 Frc consts  --      2.1065                 1.3267                 1.3173
 IR Inten    --     13.5627                 4.8834                19.9278

                     28                     29                     30
                      A                      A                      A
 Frequencies --   1212.6938              1219.8792              1238.8030
 Red. masses --      1.4046                 1.3977                 1.2681
 Frc consts  --      1.2170                 1.2255                 1.1466
 IR Inten    --      5.6218                 5.3042                 9.4225

                     31                     32                     33
                      A                      A                      A
 Frequencies --   1277.8306              1293.9968              1307.1517
 Red. masses --      1.7413                 1.5010                 1.4449
 Frc consts  --      1.6752                 1.4808                 1.4545
 IR Inten    --     10.1966                11.4783                16.5917

                     34                     35                     36
                      A                      A                      A
 Frequencies --   1350.5222              1381.0384              1388.6357
 Red. masses --      1.3028                 1.7028                 1.3390
 Frc consts  --      1.4000                 1.9134                 1.5213
 IR Inten    --      2.1572                18.3559                 4.9097

                     37                     38                     39
                      A                      A                      A
 Frequencies --   1422.0089              1478.2707              1487.0580
 Red. masses --      1.5959                 1.1146                 1.1540
 Frc consts  --      1.9014                 1.4350                 1.5036
 IR Inten    --      4.8483                 2.6314                 1.6468

                     40                     41                     42
                      A                      A                      A
 Frequencies --   1497.2878              1515.6014              2972.4085
 Red. masses --      1.1528                 1.1490                 1.0707
 Frc consts  --      1.5227                 1.5550                 5.5737
 IR Inten    --      2.6924                 6.0536                43.6153

                     43                     44                     45
                      A                      A                      A
 Frequencies --   3002.1759              3043.5933              3076.3313
 Red. masses --      1.0681                 1.0582                 1.0553
 Frc consts  --      5.6722                 5.7757                 5.8844
 IR Inten    --     42.4905                22.3924                32.5487

                     46                     47                     48
                      A                      A                      A
 Frequencies --   3085.6081              3092.8880              3098.3802
 Red. masses --      1.0872                 1.0992                 1.0965
 Frc consts  --      6.0990                 6.1953                 6.2021
 IR Inten    --     14.0388                24.5492                12.7329

                     49                     50                     51
                      A                      A                      A
 Frequencies --   3101.0610              3118.9752              3150.1066
 Red. masses --      1.0948                 1.0938                 1.1103
 Frc consts  --      6.2032                 6.2692                 6.4914
 IR Inten    --     62.0021                59.4634                23.4800

 - Thermochemistry -
 -------------------
 Temperature   298.150 Kelvin.  Pressure   1.00000 Atm.
 Atom     1 has atomic number  6 and mass  12.00000

 Molecular mass:   126.06808 amu.
 Principal axes and moments of inertia in atomic units:
                           1         2         3
     Eigenvalues --   575.466561100.835951334.32156
           X            0.99928  -0.03737   0.00695
           Y            0.03730   0.99926   0.00960
           Z           -0.00731  -0.00933   0.99993
 This molecule is an asymmetric top.
 Rotational symmetry number  1.
 Warning -- assumption of classical behavior for rotation
           may cause significant error
 Rotational temperatures (Kelvin)      0.15051     0.07868     0.06491
 Rotational constants (GHZ):           3.13614     1.63943     1.35255
 Zero-point vibrational energy     424460.8 (Joules/Mol)
                                  101.44857 (Kcal/Mol)
 Warning -- explicit consideration of   8 degrees of freedom as
           vibrations may cause significant error
 Vibrational temperatures:    243.97   370.73   490.85   519.79   558.19
          (Kelvin)            635.54   739.89   812.30   908.69   961.18
                             1024.23  1175.13  1223.14  1236.52  1304.78
                             1330.35  1350.11  1370.21  1422.30  1457.20
                             1522.43  1553.05  1599.29  1610.45  1623.87
                             1664.45  1724.33  1744.79  1755.13  1782.36
                             1838.51  1861.77  1880.70  1943.10  1987.00
                             1997.93  2045.95  2126.90  2139.54  2154.26
                             2180.61  4276.63  4319.46  4379.05  4426.15
                             4439.50  4449.97  4457.87  4461.73  4487.50
                             4532.30

 Zero-point correction=                           0.161669 (Hartree/Particle)
 Thermal correction to Energy=                    0.168434
 Thermal correction to Enthalpy=                  0.169378
 Thermal correction to Gibbs Free Energy=         0.130883
 Sum of electronic and zero-point Energies=           -422.949504
 Sum of electronic and thermal Energies=              -422.942738
 Sum of electronic and thermal Enthalpies=            -422.941794
 Sum of electronic and thermal Free Energies=         -422.980289

                     E (Thermal)             CV                S
                      KCal/Mol        Cal/Mol-Kelvin    Cal/Mol-Kelvin
 Total                  105.694             28.573             81.019
 Electronic               0.000              0.000              0.000
 Translational            0.889              2.981             40.409
 Rotational               0.889              2.981             28.227
 Vibrational            103.916             22.612             12.384
 Vibration     1          0.625              1.880              2.440
 Vibration     2          0.667              1.750              1.677
 Vibration     3          0.721              1.593              1.207
 Vibration     4          0.735              1.552              1.117
 Vibration     5          0.756              1.496              1.008
 Vibration     6          0.801              1.379              0.821
 Vibration     7          0.869              1.218              0.623
 Vibration     8          0.920              1.108              0.515

 Optimization completed.
    -- Stationary point found.
 Normal termination of Gaussian 09 at Mon Jan 27 12:07:29 2020.
