 Gaussian 09, Revision D.01,
 Gaussian 09:  ES64L-G09RevD.01 24-Apr-2013

 -----------------------------
 # b3lyp 6-31G(2df,p) opt Freq
 -----------------------------

 -----
 titel
 -----
 Symbolic Z-matrix:
 Charge =  0 Multiplicity = 1

 SCF Done:  E(RB3LYP) =  -423.170548875     A.U. after   13 cycles
 Optimization completed.
    -- Stationary point found.
 Normal termination of Gaussian 09 at Tue Jan 28 03:44:24 2020.

 ----------------------------------------------------------------------
 #N Geom=AllCheck Guess=TCheck SCRF=Check GenChk RB3LYP/6-31G(2df,p) Fr
 eq
 ----------------------------------------------------------------------

 Structure from the checkpoint file:  "/scratch/puck/g09_37b477e2-87f2-412e-a826-5c5087454133/Gau-8616.chk"
 -----
 titel
 -----
 Charge =  0 Multiplicity = 1

                         Standard orientation:
 ---------------------------------------------------------------------
 Center     Atomic      Atomic             Coordinates (Angstroms)
 Number     Number       Type             X           Y           Z
 ---------------------------------------------------------------------
      1          6           0        2.645100   -0.493729   -0.000581
      2          6           0        1.300404    0.027962   -0.485995
      3          8           0        0.934938    1.189742    0.296893
      4          6           0       -0.447342    1.054323    0.609737
      5          6           0       -1.282754    1.015052   -0.700286
      6          6           0       -1.272426   -0.521158   -0.831612
      7          8           0       -1.872570   -0.896190    0.448192
      8          6           0       -0.612631   -0.452375    1.001076
      9          6           0        0.131199   -0.928879   -0.265151
     10          1           0        2.570440   -0.867642    1.025299
     11          1           0        3.001167   -1.304656   -0.644286
     12          1           0        3.385927    0.310452   -0.016995
     13          1           0        1.384407    0.323146   -1.542908
     14          1           0       -0.711553    1.811597    1.345714
     15          1           0       -2.307812    1.371941   -0.582497
     16          1           0       -0.789511    1.565193   -1.504805
     17          1           0       -1.732767   -0.997495   -1.696766
     18          1           0       -0.410670   -0.773213    2.021232
     19          1           0        0.342134   -1.994921   -0.327789
 ---------------------------------------------------------------------

 SCF Done:  E(RB3LYP) =  -423.170548875     A.U. after    1 cycles

 The electronic state is 1-A.
 Alpha  occ. eigenvalues --  -19.13599 -19.13556 -10.24131 -10.23471 -10.23458
 Alpha  occ. eigenvalues --  -10.23155 -10.19521 -10.18157 -10.17834  -1.06152
 Alpha  occ. eigenvalues --   -1.02403  -0.78815  -0.77660  -0.71323  -0.68954
 Alpha  occ. eigenvalues --   -0.61091  -0.56618  -0.54623  -0.53109  -0.49240
 Alpha  occ. eigenvalues --   -0.47688  -0.42957  -0.42200  -0.40739  -0.39194
 Alpha  occ. eigenvalues --   -0.38493  -0.38062  -0.36421  -0.35138  -0.32518
 Alpha  occ. eigenvalues --   -0.31565  -0.31019  -0.26247  -0.23111
 Alpha virt. eigenvalues --    0.08157   0.09971   0.10584   0.11703   0.12899
 Alpha virt. eigenvalues --    0.13505   0.14908   0.15361   0.16300   0.17074
 Alpha virt. eigenvalues --    0.17645   0.17869   0.18428   0.20079   0.21460

 Mulliken charges:
               1
     1  C   -0.401746
     2  C    0.108335
     3  O   -0.290328
     4  C    0.077894
     5  C   -0.237307
     6  C    0.046737
     7  O   -0.301925
     8  C    0.072204
     9  C   -0.063029
    10  H    0.119185
    11  H    0.113630
    12  H    0.128986
    13  H    0.075049
    14  H    0.081977
    15  H    0.110255
    16  H    0.108066
    17  H    0.080539
    18  H    0.086227
    19  H    0.085252
 Sum of Mulliken charges =   0.00000

 Dipole moment (field-independent basis, Debye):
    X=              0.7525    Y=             -0.4514    Z=             -0.9363  Tot=              1.2832
 Quadrupole moment (field-independent basis, Debye-Ang):
   XX=            -56.2953   YY=            -54.5388   ZZ=            -50.1882
   XY=             -4.7510   XZ=              0.8788   YZ=              0.6954

  Exact polarizability:  80.925  -3.601  69.079   0.793   0.439  69.364
 Approx polarizability: 110.166   0.302 104.257  -0.968   1.156 107.956

                      1                      2                      3
                      A                      A                      A
 Frequencies --    140.9445               228.6456               270.4457
 Red. masses --      3.2068                 1.0467                 2.6458
 Frc consts  --      0.0375                 0.0322                 0.1140
 IR Inten    --      0.3029                 0.1482                 0.9606

                      4                      5                      6
                      A                      A                      A
 Frequencies --    345.1772               425.3688               496.6289
 Red. masses --      2.8091                 3.4869                 3.1361
 Frc consts  --      0.1972                 0.3717                 0.4557
 IR Inten    --      2.9269                 2.4433                 8.3860

                      7                      8                      9
                      A                      A                      A
 Frequencies --    524.3217               585.8234               688.7038
 Red. masses --      3.3775                 6.0454                 3.3592
 Frc consts  --      0.5471                 1.2224                 0.9388
 IR Inten    --      6.4119                 0.4144                 2.4667

                     10                     11                     12
                      A                      A                      A
 Frequencies --    767.1407               809.9590               838.2560
 Red. masses --      3.9363                 2.5531                 2.7355
 Frc consts  --      1.3648                 0.9868                 1.1325
 IR Inten    --      2.3903                 1.0114                13.4473

                     13                     14                     15
                      A                      A                      A
 Frequencies --    850.9931               877.4923               904.3710
 Red. masses --      3.4574                 2.8043                 2.8283
 Frc consts  --      1.4752                 1.2722                 1.3629
 IR Inten    --     21.8469                 8.1525                 0.5973

                     16                     17                     18
                      A                      A                      A
 Frequencies --    915.1688               943.2432               952.1682
 Red. masses --      2.4373                 2.2303                 1.9416
 Frc consts  --      1.2027                 1.1691                 1.0371
 IR Inten    --     21.3125                 7.0112                 4.1862

                     19                     20                     21
                      A                      A                      A
 Frequencies --    973.8028              1008.4432              1031.1642
 Red. masses --      2.3427                 1.8726                 1.9290
 Frc consts  --      1.3089                 1.1220                 1.2085
 IR Inten    --     15.7478                13.1271                 3.8918

                     22                     23                     24
                      A                      A                      A
 Frequencies --   1042.7458              1065.9136              1103.0751
 Red. masses --      1.8151                 2.9900                 1.8388
 Frc consts  --      1.1628                 2.0015                 1.3183
 IR Inten    --     13.8637                79.5473                11.1252

                     25                     26                     27
                      A                      A                      A
 Frequencies --   1127.3603              1155.4845              1166.1316
 Red. masses --      2.0391                 1.8443                 1.7377
 Frc consts  --      1.5269                 1.4508                 1.3922
 IR Inten    --      7.0565                13.0858                14.7638

                     28                     29                     30
                      A                      A                      A
 Frequencies --   1187.4767              1209.1025              1236.9438
 Red. masses --      2.0433                 1.3638                 1.3031
 Frc consts  --      1.6976                 1.1747                 1.1747
 IR Inten    --      7.4216                 1.0059                 0.3015

                     31                     32                     33
                      A                      A                      A
 Frequencies --   1280.2108              1286.6275              1301.6972
 Red. masses --      1.5427                 1.3667                 1.4236
 Frc consts  --      1.4897                 1.3330                 1.4212
 IR Inten    --      8.7788                 4.2743                 3.8316

                     34                     35                     36
                      A                      A                      A
 Frequencies --   1320.6482              1333.6262              1362.0025
 Red. masses --      1.7843                 1.4531                 1.4930
 Frc consts  --      1.8335                 1.5227                 1.6318
 IR Inten    --     10.5302                 4.5296                 6.2355

                     37                     38                     39
                      A                      A                      A
 Frequencies --   1396.0124              1408.5288              1474.7119
 Red. masses --      1.4337                 1.3661                 1.1035
 Frc consts  --      1.6462                 1.5968                 1.4140
 IR Inten    --      5.7976                12.2134                 4.6995

                     40                     41                     42
                      A                      A                      A
 Frequencies --   1486.2961              1496.3444              2982.9269
 Red. masses --      1.0604                 1.0463                 1.0835
 Frc consts  --      1.3802                 1.3803                 5.6804
 IR Inten    --      3.2739                 3.1047                44.2840

                     43                     44                     45
                      A                      A                      A
 Frequencies --   3037.9685              3073.3860              3110.8855
 Red. masses --      1.0349                 1.0584                 1.1017
 Frc consts  --      5.6277                 5.8902                 6.2819
 IR Inten    --     17.4539                17.3017                22.2846

                     46                     47                     48
                      A                      A                      A
 Frequencies --   3118.7976              3124.6833              3128.6071
 Red. masses --      1.1017                 1.0907                 1.1047
 Frc consts  --      6.3137                 6.2741                 6.3710
 IR Inten    --     17.9169                36.7798                10.9902

                     49                     50                     51
                      A                      A                      A
 Frequencies --   3135.1265              3138.5449              3148.5523
 Red. masses --      1.0924                 1.0882                 1.0947
 Frc consts  --      6.3260                 6.3155                 6.3939
 IR Inten    --     14.2933                52.9776                19.4017

 - Thermochemistry -
 -------------------
 Temperature   298.150 Kelvin.  Pressure   1.00000 Atm.
 Atom     1 has atomic number  6 and mass  12.00000

 Molecular mass:   126.06808 amu.
 Principal axes and moments of inertia in atomic units:
                           1         2         3
     Eigenvalues --   535.840031122.550081270.07425
           X            0.99848  -0.05415   0.01029
           Y            0.05428   0.99843  -0.01354
           Z           -0.00954   0.01407   0.99986
 This molecule is an asymmetric top.
 Rotational symmetry number  1.
 Warning -- assumption of classical behavior for rotation
           may cause significant error
 Rotational temperatures (Kelvin)      0.16164     0.07716     0.06820
 Rotational constants (GHZ):           3.36806     1.60772     1.42097
 Zero-point vibrational energy     424786.0 (Joules/Mol)
                                  101.52630 (Kcal/Mol)
 Warning -- explicit consideration of   8 degrees of freedom as
           vibrations may cause significant error
 Vibrational temperatures:    202.79   328.97   389.11   496.63   612.01
          (Kelvin)            714.54   754.38   842.87   990.89  1103.74
                             1165.35  1206.06  1224.39  1262.51  1301.19
                             1316.72  1357.11  1369.96  1401.08  1450.92
                             1483.61  1500.28  1533.61  1587.08  1622.02
                             1662.48  1677.80  1708.51  1739.63  1779.68
                             1841.94  1851.17  1872.85  1900.12  1918.79
                             1959.62  2008.55  2026.56  2121.78  2138.45
                             2152.90  4291.76  4370.95  4421.91  4475.86
                             4487.25  4495.72  4501.36  4510.74  4515.66
                             4530.06

 Zero-point correction=                           0.161792 (Hartree/Particle)
 Thermal correction to Energy=                    0.168578
 Thermal correction to Enthalpy=                  0.169522
 Thermal correction to Gibbs Free Energy=         0.130867
 Sum of electronic and zero-point Energies=           -423.008756
 Sum of electronic and thermal Energies=              -423.001971
 Sum of electronic and thermal Enthalpies=            -423.001027
 Sum of electronic and thermal Free Energies=         -423.039682

                     E (Thermal)             CV                S
                      KCal/Mol        Cal/Mol-Kelvin    Cal/Mol-Kelvin
 Total                  105.784             28.302             81.356
 Electronic               0.000              0.000              0.000
 Translational            0.889              2.981             40.409
 Rotational               0.889              2.981             28.126
 Vibrational            104.007             22.340             12.822
 Vibration     1          0.615              1.912              2.791
 Vibration     2          0.651              1.797              1.890
 Vibration     3          0.674              1.728              1.593
 Vibration     4          0.724              1.585              1.188
 Vibration     5          0.787              1.415              0.874
 Vibration     6          0.852              1.257              0.667
 Vibration     7          0.879              1.196              0.600
 Vibration     8          0.943              1.062              0.475

 Optimization completed.
    -- Stationary point found.
 Normal termination of Gaussian 09 at Tue Jan 28 04:29:22 2020.
