 Gaussian 09, Revision D.01,
 Gaussian 09:  ES64L-G09RevD.01 24-Apr-2013

 -----------------------------
 # b3lyp 6-31G(2df,p) opt Freq
 -----------------------------

 -----
 titel
 -----
 Symbolic Z-matrix:
 Charge =  0 Multiplicity = 1

 SCF Done:  E(RB3LYP) =  -423.091178212     A.U. after   14 cycles
 Optimization completed.
    -- Stationary point found.
 Normal termination of Gaussian 09 at Mon Jan 27 19:01:10 2020.

 ----------------------------------------------------------------------
 #N Geom=AllCheck Guess=TCheck SCRF=Check GenChk RB3LYP/6-31G(2df,p) Fr
 eq
 ----------------------------------------------------------------------

 Structure from the checkpoint file:  "/scratch/puck/g09_5d215882-925a-4b23-bf9b-f9002fa35328/Gau-90976.chk"
 -----
 titel
 -----
 Charge =  0 Multiplicity = 1

                         Standard orientation:
 ---------------------------------------------------------------------
 Center     Atomic      Atomic             Coordinates (Angstroms)
 Number     Number       Type             X           Y           Z
 ---------------------------------------------------------------------
      1          6           0        0.207111    2.046816    0.305303
      2          6           0        0.138459    0.669813   -0.320913
      3          8           0       -1.071370    0.474635   -1.038844
      4          6           0       -1.947870   -0.293248   -0.159788
      5          6           0       -1.131595   -0.810611    1.094414
      6          6           0        0.227105   -0.606007    0.493476
      7          6           0        0.794514   -1.387957   -0.730609
      8          6           0        1.513957   -0.047651   -0.619155
      9          8           0        1.620727   -0.267258    0.875439
     10          1           0        0.199428    2.804487   -0.485160
     11          1           0       -0.662242    2.235841    0.944780
     12          1           0        1.113096    2.160873    0.901853
     13          1           0       -2.787429    0.338113    0.148720
     14          1           0       -2.341654   -1.132863   -0.740633
     15          1           0       -1.293948   -0.170073    1.965491
     16          1           0       -1.395075   -1.838632    1.350902
     17          1           0        1.400543   -2.254704   -0.467011
     18          1           0        0.140994   -1.548800   -1.587401
     19          1           0        2.421348    0.319822   -1.100661
 ---------------------------------------------------------------------

 SCF Done:  E(RB3LYP) =  -423.091178212     A.U. after    1 cycles

 The electronic state is 1-A.
 Alpha  occ. eigenvalues --  -19.14340 -19.13919 -10.25000 -10.24499 -10.24139
 Alpha  occ. eigenvalues --  -10.23339 -10.20355 -10.18735 -10.17220  -1.06462
 Alpha  occ. eigenvalues --   -1.02175  -0.79296  -0.77390  -0.73531  -0.66360
 Alpha  occ. eigenvalues --   -0.62661  -0.59955  -0.51619  -0.50024  -0.48949
 Alpha  occ. eigenvalues --   -0.46950  -0.45565  -0.43171  -0.40538  -0.39455
 Alpha  occ. eigenvalues --   -0.38907  -0.37568  -0.35740  -0.34275  -0.33248
 Alpha  occ. eigenvalues --   -0.32430  -0.27540  -0.26283  -0.23563
 Alpha virt. eigenvalues --    0.06120   0.08255   0.09974   0.11037   0.12370
 Alpha virt. eigenvalues --    0.13168   0.14137   0.14750   0.15427   0.16654
 Alpha virt. eigenvalues --    0.17159   0.18000   0.19163   0.20117   0.21378

 Mulliken charges:
               1
     1  C   -0.470292
     2  C    0.423007
     3  O   -0.333846
     4  C   -0.079756
     5  C   -0.402454
     6  C    0.396759
     7  C   -0.267807
     8  C   -0.044547
     9  O   -0.381723
    10  H    0.124670
    11  H    0.110836
    12  H    0.138400
    13  H    0.115015
    14  H    0.116392
    15  H    0.126755
    16  H    0.117742
    17  H    0.103720
    18  H    0.116271
    19  H    0.090857
 Sum of Mulliken charges =   0.00000

 Dipole moment (field-independent basis, Debye):
    X=             -1.2723    Y=             -0.5790    Z=              0.0116  Tot=              1.3979
 Quadrupole moment (field-independent basis, Debye-Ang):
   XX=            -52.7058   YY=            -51.4399   ZZ=            -55.3813
   XY=              2.3508   XZ=             -5.6060   YZ=              1.1225

  Exact polarizability:  82.396   1.687  76.366  -4.524   1.911  65.079
 Approx polarizability: 120.884   2.754 106.950  -1.782  -0.152 105.758

                      1                      2                      3
                      A                      A                      A
 Frequencies --    140.2026               204.4481               216.6929
 Red. masses --      2.1380                 1.0370                 2.4175
 Frc consts  --      0.0248                 0.0255                 0.0669
 IR Inten    --      1.3169                 0.1045                 0.4193

                      4                      5                      6
                      A                      A                      A
 Frequencies --    294.9354               327.2878               391.2309
 Red. masses --      3.1618                 2.9789                 3.8001
 Frc consts  --      0.1620                 0.1880                 0.3427
 IR Inten    --      6.0038                 3.7356                 6.0066

                      7                      8                      9
                      A                      A                      A
 Frequencies --    446.9869               535.7040               555.9288
 Red. masses --      3.0452                 2.9627                 4.4503
 Frc consts  --      0.3585                 0.5009                 0.8104
 IR Inten    --      4.8646                 2.5910                 5.9717

                     10                     11                     12
                      A                      A                      A
 Frequencies --    649.6000               698.0362               704.6869
 Red. masses --      4.8473                 2.6450                 6.3194
 Frc consts  --      1.2052                 0.7593                 1.8489
 IR Inten    --      1.6308                 0.7338                19.6586

                     13                     14                     15
                      A                      A                      A
 Frequencies --    768.7964               838.7587               844.3607
 Red. masses --      3.4874                 1.9878                 2.2437
 Frc consts  --      1.2144                 0.8239                 0.9425
 IR Inten    --      1.4753                 5.2481                 0.8112

                     16                     17                     18
                      A                      A                      A
 Frequencies --    875.3559               901.3163               919.2321
 Red. masses --      2.2313                 2.3775                 3.0563
 Frc consts  --      1.0074                 1.1380                 1.5216
 IR Inten    --      0.9121                 7.5645                12.0916

                     19                     20                     21
                      A                      A                      A
 Frequencies --    955.9659               959.8909               986.8562
 Red. masses --      2.4480                 2.6634                 2.2560
 Frc consts  --      1.3181                 1.4459                 1.2945
 IR Inten    --     49.4608                29.9236                12.8978

                     22                     23                     24
                      A                      A                      A
 Frequencies --   1023.8663              1082.1729              1110.7310
 Red. masses --      1.5332                 1.6921                 1.8682
 Frc consts  --      0.9470                 1.1675                 1.3580
 IR Inten    --      2.8743                 5.2237                 6.0642

                     25                     26                     27
                      A                      A                      A
 Frequencies --   1140.6512              1157.1712              1181.2750
 Red. masses --      1.9973                 1.9087                 1.7071
 Frc consts  --      1.5311                 1.5058                 1.4035
 IR Inten    --     31.8825                17.8154                13.5036

                     28                     29                     30
                      A                      A                      A
 Frequencies --   1192.5657              1200.8984              1210.2016
 Red. masses --      1.4748                 1.5607                 1.7001
 Frc consts  --      1.2358                 1.3261                 1.4671
 IR Inten    --      8.1978                 9.3313                 9.7798

                     31                     32                     33
                      A                      A                      A
 Frequencies --   1221.2740              1273.4834              1288.1733
 Red. masses --      1.3085                 1.3914                 2.8480
 Frc consts  --      1.1498                 1.3295                 2.7845
 IR Inten    --     12.9000                 4.2052                19.8206

                     34                     35                     36
                      A                      A                      A
 Frequencies --   1347.2234              1378.3442              1400.1422
 Red. masses --      2.6592                 1.5296                 1.3435
 Frc consts  --      2.8436                 1.7121                 1.5518
 IR Inten    --     18.3074                 3.5000                12.4494

                     37                     38                     39
                      A                      A                      A
 Frequencies --   1477.0744              1486.0262              1491.9637
 Red. masses --      1.1507                 1.1227                 1.0961
 Frc consts  --      1.4792                 1.4607                 1.4375
 IR Inten    --      3.6396                 1.8013                 8.5305

                     40                     41                     42
                      A                      A                      A
 Frequencies --   1497.9726              1518.9182              3037.7588
 Red. masses --      1.0829                 1.0954                 1.0387
 Frc consts  --      1.4317                 1.4889                 5.6472
 IR Inten    --      0.8669                 0.3549                18.6034

                     43                     44                     45
                      A                      A                      A
 Frequencies --   3043.3255              3067.4992              3084.8797
 Red. masses --      1.0570                 1.0601                 1.1075
 Frc consts  --      5.7678                 5.8770                 6.2098
 IR Inten    --     53.7305                21.8017                15.9463

                     46                     47                     48
                      A                      A                      A
 Frequencies --   3086.9401              3095.2281              3110.4585
 Red. masses --      1.0555                 1.0995                 1.0920
 Frc consts  --      5.9259                 6.2064                 6.2246
 IR Inten    --     30.5799                22.2980                50.5471

                     49                     50                     51
                      A                      A                      A
 Frequencies --   3123.1800              3145.4324              3167.4847
 Red. masses --      1.1073                 1.0988                 1.1127
 Frc consts  --      6.3634                 6.4052                 6.5777
 IR Inten    --     22.5576                 8.2225                15.7346

 - Thermochemistry -
 -------------------
 Temperature   298.150 Kelvin.  Pressure   1.00000 Atm.
 Atom     1 has atomic number  6 and mass  12.00000

 Molecular mass:   126.06808 amu.
 Principal axes and moments of inertia in atomic units:
                           1         2         3
     Eigenvalues --   711.24448 917.626501113.85026
           X            0.99642   0.06492  -0.05422
           Y           -0.06121   0.99584   0.06753
           Z            0.05838  -0.06397   0.99624
 This molecule is an asymmetric top.
 Rotational symmetry number  1.
 Warning -- assumption of classical behavior for rotation
           may cause significant error
 Rotational temperatures (Kelvin)      0.12178     0.09439     0.07776
 Rotational constants (GHZ):           2.53744     1.96675     1.62027
 Zero-point vibrational energy     417847.2 (Joules/Mol)
                                   99.86787 (Kcal/Mol)
 Warning -- explicit consideration of   9 degrees of freedom as
           vibrations may cause significant error
 Vibrational temperatures:    201.72   294.15   311.77   424.35   470.89
          (Kelvin)            562.89   643.11   770.76   799.86   934.63
                             1004.32  1013.89  1106.13  1206.79  1214.85
                             1259.44  1296.79  1322.57  1375.42  1381.07
                             1419.86  1473.11  1557.00  1598.09  1641.14
                             1664.91  1699.59  1715.83  1727.82  1741.21
                             1757.14  1832.26  1853.39  1938.35  1983.13
                             2014.49  2125.18  2138.06  2146.60  2155.25
                             2185.38  4370.65  4378.66  4413.44  4438.45
                             4441.41  4453.34  4475.25  4493.55  4525.57
                             4557.30

 Zero-point correction=                           0.159150 (Hartree/Particle)
 Thermal correction to Energy=                    0.166667
 Thermal correction to Enthalpy=                  0.167611
 Thermal correction to Gibbs Free Energy=         0.127700
 Sum of electronic and zero-point Energies=           -422.932029
 Sum of electronic and thermal Energies=              -422.924511
 Sum of electronic and thermal Enthalpies=            -422.923567
 Sum of electronic and thermal Free Energies=         -422.963478

                     E (Thermal)             CV                S
                      KCal/Mol        Cal/Mol-Kelvin    Cal/Mol-Kelvin
 Total                  104.585             30.654             84.001
 Electronic               0.000              0.000              0.000
 Translational            0.889              2.981             40.409
 Rotational               0.889              2.981             28.077
 Vibrational            102.808             24.692             15.515
 Vibration     1          0.615              1.913              2.801
 Vibration     2          0.640              1.834              2.093
 Vibration     3          0.646              1.816              1.987
 Vibration     4          0.689              1.683              1.445
 Vibration     5          0.711              1.621              1.273
 Vibration     6          0.759              1.489              0.995
 Vibration     7          0.806              1.368              0.805
 Vibration     8          0.891              1.171              0.575
 Vibration     9          0.911              1.127              0.532

 Optimization completed.
    -- Stationary point found.
 Normal termination of Gaussian 09 at Mon Jan 27 19:43:20 2020.
