 Gaussian 09, Revision D.01,
 Gaussian 09:  ES64L-G09RevD.01 24-Apr-2013

 -----------------------------
 # b3lyp 6-31G(2df,p) opt Freq
 -----------------------------

 -----
 titel
 -----
 Symbolic Z-matrix:
 Charge =  0 Multiplicity = 1

 SCF Done:  E(RB3LYP) =  -423.098209302     A.U. after   13 cycles
 Optimization completed.
    -- Stationary point found.
 Normal termination of Gaussian 09 at Tue Jan 28 09:15:03 2020.

 ----------------------------------------------------------------------
 #N Geom=AllCheck Guess=TCheck SCRF=Check GenChk RB3LYP/6-31G(2df,p) Fr
 eq
 ----------------------------------------------------------------------

 Structure from the checkpoint file:  "/scratch/puck/g09_79374802-0d2b-47d1-a850-583c90b55617/Gau-77075.chk"
 -----
 titel
 -----
 Charge =  0 Multiplicity = 1

                         Standard orientation:
 ---------------------------------------------------------------------
 Center     Atomic      Atomic             Coordinates (Angstroms)
 Number     Number       Type             X           Y           Z
 ---------------------------------------------------------------------
      1          6           0       -2.550523    0.514871   -0.142429
      2          8           0       -1.807124   -0.696271   -0.110792
      3          6           0       -0.464023   -0.542374    0.025748
      4          6           0        0.553087   -1.470695    0.559263
      5          8           0        1.413440   -1.438147   -0.575967
      6          6           0        0.773789   -0.183323   -0.934270
      7          6           0        1.286178    0.807704    0.149454
      8          6           0        0.838291    2.251744   -0.029241
      9          6           0        0.455982   -0.020334    1.131896
     10          1           0       -2.309335    1.110854   -1.032866
     11          1           0       -3.605071    0.234610   -0.177585
     12          1           0       -2.361869    1.120159    0.753283
     13          1           0        0.482257   -2.370481    1.155118
     14          1           0        0.796836    0.035091   -2.000740
     15          1           0        2.372682    0.750828    0.281191
     16          1           0        1.354877    2.718109   -0.875504
     17          1           0       -0.239237    2.321541   -0.212141
     18          1           0        1.060120    2.846245    0.863046
     19          1           0        0.241530    0.162818    2.177746
 ---------------------------------------------------------------------

 SCF Done:  E(RB3LYP) =  -423.098209302     A.U. after    1 cycles

 The electronic state is 1-A.
 Alpha  occ. eigenvalues --  -19.16385 -19.13469 -10.24051 -10.23729 -10.23440
 Alpha  occ. eigenvalues --  -10.23406 -10.19248 -10.19166 -10.18034  -1.06873
 Alpha  occ. eigenvalues --   -1.04495  -0.85381  -0.76170  -0.70645  -0.67891
 Alpha  occ. eigenvalues --   -0.61964  -0.55952  -0.53701  -0.53582  -0.48917
 Alpha  occ. eigenvalues --   -0.46713  -0.44879  -0.43669  -0.42295  -0.41330
 Alpha  occ. eigenvalues --   -0.39299  -0.37885  -0.35469  -0.34990  -0.32557
 Alpha  occ. eigenvalues --   -0.32384  -0.26401  -0.24460  -0.22999
 Alpha virt. eigenvalues --    0.07561   0.08659   0.10744   0.11264   0.11774
 Alpha virt. eigenvalues --    0.13233   0.14273   0.15772   0.16094   0.16220
 Alpha virt. eigenvalues --    0.17116   0.17399   0.19145   0.19611   0.21905

 Mulliken charges:
               1
     1  C   -0.253820
     2  O   -0.275567
     3  C    0.367231
     4  C   -0.013786
     5  O   -0.286515
     6  C   -0.026651
     7  C    0.028229
     8  C   -0.417940
     9  C   -0.206985
    10  H    0.118530
    11  H    0.131272
    12  H    0.119091
    13  H    0.115009
    14  H    0.086309
    15  H    0.077501
    16  H    0.116441
    17  H    0.111734
    18  H    0.119745
    19  H    0.090172
 Sum of Mulliken charges =   0.00000

 Dipole moment (field-independent basis, Debye):
    X=             -1.1867    Y=              2.1331    Z=              0.7413  Tot=              2.5510
 Quadrupole moment (field-independent basis, Debye-Ang):
   XX=            -53.7622   YY=            -54.5924   ZZ=            -50.9732
   XY=              0.1161   XZ=              0.6574   YZ=             -2.8507

  Exact polarizability:  78.888  -0.208  77.356  -0.165  -2.534  68.375
 Approx polarizability: 111.173  -1.543 110.792  -0.487  -1.123 106.832

                      1                      2                      3
                      A                      A                      A
 Frequencies --     91.9571               148.7930               185.7500
 Red. masses --      2.9337                 2.9918                 1.0553
 Frc consts  --      0.0146                 0.0390                 0.0215
 IR Inten    --      1.8539                 0.0436                 0.0085

                      4                      5                      6
                      A                      A                      A
 Frequencies --    228.9033               246.4731               277.3335
 Red. masses --      1.0793                 2.8935                 2.5042
 Frc consts  --      0.0333                 0.1036                 0.1135
 IR Inten    --      0.0611                 0.9484                 0.3812

                      7                      8                      9
                      A                      A                      A
 Frequencies --    347.1775               419.6383               510.6326
 Red. masses --      4.3866                 4.0909                 4.1474
 Frc consts  --      0.3115                 0.4244                 0.6372
 IR Inten    --      5.5851                 0.7767                 1.4161

                     10                     11                     12
                      A                      A                      A
 Frequencies --    572.8295               596.5297               741.6740
 Red. masses --      3.5653                 3.6583                 2.8344
 Frc consts  --      0.6893                 0.7670                 0.9186
 IR Inten    --      7.3828                18.0805                 2.0223

                     13                     14                     15
                      A                      A                      A
 Frequencies --    773.4116               806.2352               861.0428
 Red. masses --      4.3631                 2.6701                 1.6117
 Frc consts  --      1.5377                 1.0226                 0.7040
 IR Inten    --      0.7450                 4.4503                 9.1631

                     16                     17                     18
                      A                      A                      A
 Frequencies --    903.1693               917.4048               962.9163
 Red. masses --      3.1900                 1.8167                 1.8376
 Frc consts  --      1.5331                 0.9008                 1.0039
 IR Inten    --     23.6905                 7.8429                20.4131

                     19                     20                     21
                      A                      A                      A
 Frequencies --    973.6595              1017.4248              1042.6331
 Red. masses --      2.4348                 2.2584                 3.1510
 Frc consts  --      1.3600                 1.3774                 2.0182
 IR Inten    --     12.2984                17.2896                13.9644

                     22                     23                     24
                      A                      A                      A
 Frequencies --   1056.0475              1068.6471              1082.8606
 Red. masses --      3.0037                 3.1192                 1.5471
 Frc consts  --      1.9736                 2.0988                 1.0688
 IR Inten    --     32.2100                15.4941                 4.4314

                     25                     26                     27
                      A                      A                      A
 Frequencies --   1100.9078              1129.8995              1157.3874
 Red. masses --      1.9124                 2.4834                 2.2553
 Frc consts  --      1.3656                 1.8680                 1.7800
 IR Inten    --     15.8391                 1.3334                11.1552

                     28                     29                     30
                      A                      A                      A
 Frequencies --   1177.1421              1203.9635              1212.4289
 Red. masses --      1.2798                 1.4263                 1.5133
 Frc consts  --      1.0449                 1.2181                 1.3107
 IR Inten    --      2.0490                 2.3912                13.1741

                     31                     32                     33
                      A                      A                      A
 Frequencies --   1245.1640              1275.0527              1289.4894
 Red. masses --      2.0408                 1.7252                 1.5493
 Frc consts  --      1.8643                 1.6526                 1.5179
 IR Inten    --     60.2323                12.7575                34.0787

                     34                     35                     36
                      A                      A                      A
 Frequencies --   1369.1985              1411.1762              1440.0405
 Red. masses --      1.7003                 1.2524                 1.7479
 Frc consts  --      1.8781                 1.4694                 2.1356
 IR Inten    --      6.1252                 2.0587                64.9862

                     37                     38                     39
                      A                      A                      A
 Frequencies --   1485.6980              1495.3568              1497.2767
 Red. masses --      1.0626                 1.0501                 1.0910
 Frc consts  --      1.3819                 1.3835                 1.4411
 IR Inten    --     10.3322                 0.0930                 6.7824

                     40                     41                     42
                      A                      A                      A
 Frequencies --   1504.2197              1511.4327              3002.3054
 Red. masses --      1.0508                 1.8699                 1.0343
 Frc consts  --      1.4009                 2.5167                 5.4931
 IR Inten    --     23.6864                38.3322                39.4941

                     43                     44                     45
                      A                      A                      A
 Frequencies --   3030.4045              3044.5624              3063.0126
 Red. masses --      1.0356                 1.0835                 1.1039
 Frc consts  --      5.6033                 5.9176                 6.1019
 IR Inten    --     30.8923                28.5038                33.6405

                     46                     47                     48
                      A                      A                      A
 Frequencies --   3094.5762              3102.7461              3129.3822
 Red. masses --      1.1011                 1.1001                 1.0997
 Frc consts  --      6.2126                 6.2399                 6.3452
 IR Inten    --     22.9948                40.1389                25.1030

                     49                     50                     51
                      A                      A                      A
 Frequencies --   3137.1034              3193.9231              3218.0670
 Red. masses --      1.0924                 1.0926                 1.0961
 Frc consts  --      6.3343                 6.5666                 6.6879
 IR Inten    --     27.1801                 6.5701                11.3906

 - Thermochemistry -
 -------------------
 Temperature   298.150 Kelvin.  Pressure   1.00000 Atm.
 Atom     1 has atomic number  6 and mass  12.00000

 Molecular mass:   126.06808 amu.
 Principal axes and moments of inertia in atomic units:
                           1         2         3
     Eigenvalues --   788.946481032.839061471.55487
           X            0.99994   0.00961   0.00595
           Y           -0.00947   0.99967  -0.02367
           Z           -0.00618   0.02361   0.99970
 This molecule is an asymmetric top.
 Rotational symmetry number  1.
 Warning -- assumption of classical behavior for rotation
           may cause significant error
 Rotational temperatures (Kelvin)      0.10978     0.08386     0.05886
 Rotational constants (GHZ):           2.28753     1.74736     1.22642
 Zero-point vibrational energy     414835.4 (Joules/Mol)
                                   99.14804 (Kcal/Mol)
 Warning -- explicit consideration of  11 degrees of freedom as
           vibrations may cause significant error
 Vibrational temperatures:    132.31   214.08   267.25   329.34   354.62
          (Kelvin)            399.02   499.51   603.77   734.69   824.17
                              858.27  1067.10  1112.77  1159.99  1238.85
                             1299.46  1319.94  1385.42  1400.88  1463.85
                             1500.11  1519.41  1537.54  1557.99  1583.96
                             1625.67  1665.22  1693.64  1732.23  1744.41
                             1791.51  1834.51  1855.29  1969.97  2030.37
                             2071.89  2137.59  2151.48  2154.24  2164.23
                             2174.61  4319.64  4360.07  4380.44  4406.99
                             4452.40  4464.15  4502.48  4513.59  4595.34
                             4630.07

 Zero-point correction=                           0.158002 (Hartree/Particle)
 Thermal correction to Energy=                    0.166343
 Thermal correction to Enthalpy=                  0.167287
 Thermal correction to Gibbs Free Energy=         0.125180
 Sum of electronic and zero-point Energies=           -422.940207
 Sum of electronic and thermal Energies=              -422.931867
 Sum of electronic and thermal Enthalpies=            -422.930922
 Sum of electronic and thermal Free Energies=         -422.973030

                     E (Thermal)             CV                S
                      KCal/Mol        Cal/Mol-Kelvin    Cal/Mol-Kelvin
 Total                  104.382             31.950             88.622
 Electronic               0.000              0.000              0.000
 Translational            0.889              2.981             40.409
 Rotational               0.889              2.981             28.574
 Vibrational            102.604             25.988             19.639
 Vibration     1          0.602              1.955              3.618
 Vibration     2          0.618              1.904              2.688
 Vibration     3          0.632              1.859              2.270
 Vibration     4          0.652              1.797              1.888
 Vibration     5          0.661              1.769              1.756
 Vibration     6          0.678              1.715              1.550
 Vibration     7          0.725              1.581              1.179
 Vibration     8          0.782              1.428              0.893
 Vibration     9          0.866              1.226              0.632
 Vibration    10          0.929              1.090              0.499
 Vibration    11          0.954              1.039              0.456

 Normal termination of Gaussian 09 at Tue Jan 28 10:01:17 2020.
