 Gaussian 09, Revision D.01,
 Gaussian 09:  ES64L-G09RevD.01 24-Apr-2013

 -----------------------------
 # b3lyp 6-31G(2df,p) opt Freq
 -----------------------------

 -----
 titel
 -----
 Symbolic Z-matrix:
 Charge =  0 Multiplicity = 1

 SCF Done:  E(RB3LYP) =  -423.120700133     A.U. after   14 cycles
 Optimization completed.
    -- Stationary point found.
 Normal termination of Gaussian 09 at Mon Jan 27 18:08:23 2020.

 ----------------------------------------------------------------------
 #N Geom=AllCheck Guess=TCheck SCRF=Check GenChk RB3LYP/6-31G(2df,p) Fr
 eq
 ----------------------------------------------------------------------

 Structure from the checkpoint file:  "/scratch/puck/g09_94f38ec4-f344-45f1-ab80-ea9ebcd1dbc6/Gau-170974.chk"
 -----
 titel
 -----
 Charge =  0 Multiplicity = 1

                         Standard orientation:
 ---------------------------------------------------------------------
 Center     Atomic      Atomic             Coordinates (Angstroms)
 Number     Number       Type             X           Y           Z
 ---------------------------------------------------------------------
      1          8           0        1.951890   -1.392514   -0.083885
      2          6           0        0.975349   -0.408530    0.027097
      3          6           0        0.138940   -0.109962    1.292830
      4          6           0       -0.771751    0.622693    0.239295
      5          6           0       -2.154034   -0.020082    0.135325
      6          8           0       -1.522143   -1.229866   -0.389414
      7          6           0       -0.337170   -0.467700   -0.765689
      8          6           0        0.038413    1.855489   -0.134957
      9          6           0        1.387631    1.061899   -0.374463
     10          1           0        2.723428   -1.121409    0.425903
     11          1           0       -0.336087   -0.994388    1.712823
     12          1           0        0.596232    0.506504    2.071492
     13          1           0       -2.706929   -0.213747    1.059977
     14          1           0       -2.818673    0.430747   -0.614059
     15          1           0       -0.297605   -0.314423   -1.849451
     16          1           0       -0.315938    2.348449   -1.044212
     17          1           0        0.124288    2.606848    0.655146
     18          1           0        1.725831    1.113944   -1.413455
     19          1           0        2.203214    1.413681    0.265602
 ---------------------------------------------------------------------

 SCF Done:  E(RB3LYP) =  -423.120700133     A.U. after    1 cycles

 The electronic state is 1-A.
 Alpha  occ. eigenvalues --  -19.14220 -19.13547 -10.24453 -10.23477 -10.22301
 Alpha  occ. eigenvalues --  -10.20058 -10.19543 -10.19197 -10.17852  -1.04110
 Alpha  occ. eigenvalues --   -1.02457  -0.87498  -0.72469  -0.71389  -0.66065
 Alpha  occ. eigenvalues --   -0.64764  -0.57585  -0.52857  -0.51395  -0.48868
 Alpha  occ. eigenvalues --   -0.46363  -0.45862  -0.42653  -0.42194  -0.39150
 Alpha  occ. eigenvalues --   -0.38028  -0.36261  -0.36056  -0.32814  -0.32337
 Alpha  occ. eigenvalues --   -0.31260  -0.27048  -0.25561  -0.24935
 Alpha virt. eigenvalues --    0.06017   0.07590   0.09789   0.11216   0.12248
 Alpha virt. eigenvalues --    0.13763   0.14634   0.15449   0.16426   0.16918
 Alpha virt. eigenvalues --    0.18172   0.18841   0.19624   0.20101   0.22098

 Mulliken charges:
               1
     1  O   -0.486868
     2  C    0.375532
     3  C   -0.331027
     4  C    0.281062
     5  C   -0.194733
     6  O   -0.312267
     7  C    0.092846
     8  C   -0.329310
     9  C   -0.271004
    10  H    0.277750
    11  H    0.121936
    12  H    0.081899
    13  H    0.108711
    14  H    0.102476
    15  H    0.070450
    16  H    0.105891
    17  H    0.101816
    18  H    0.109544
    19  H    0.095297
 Sum of Mulliken charges =   0.00000

 Dipole moment (field-independent basis, Debye):
    X=              0.9150    Y=              2.7722    Z=              0.9497  Tot=              3.0699
 Quadrupole moment (field-independent basis, Debye-Ang):
   XX=            -49.0272   YY=            -58.4828   ZZ=            -51.6102
   XY=             -1.0819   XZ=              1.4722   YZ=             -1.9818

  Exact polarizability:  84.998   1.152  69.558   0.204  -1.335  69.115
 Approx polarizability: 118.021   1.237 106.225   0.197   1.550 106.801

                      1                      2                      3
                      A                      A                      A
 Frequencies --    212.7097               248.8220               276.4849
 Red. masses --      1.1361                 2.9175                 3.2632
 Frc consts  --      0.0303                 0.1064                 0.1470
 IR Inten    --     75.4388                 7.8357                 7.6860

                      4                      5                      6
                      A                      A                      A
 Frequencies --    283.5799               333.6524               411.4666
 Red. masses --      2.1425                 2.7340                 3.3900
 Frc consts  --      0.1015                 0.1793                 0.3382
 IR Inten    --      3.1594                 3.2585                10.7147

                      7                      8                      9
                      A                      A                      A
 Frequencies --    449.9734               492.0316               578.2669
 Red. masses --      2.3194                 2.5087                 3.7963
 Frc consts  --      0.2767                 0.3578                 0.7479
 IR Inten    --      3.8962                 4.1052                 9.8305

                     10                     11                     12
                      A                      A                      A
 Frequencies --    615.9907               683.1796               751.7217
 Red. masses --      6.3725                 3.7465                 3.4027
 Frc consts  --      1.4247                 1.0303                 1.1329
 IR Inten    --      4.8808                 0.9979                 7.2231

                     13                     14                     15
                      A                      A                      A
 Frequencies --    819.9630               830.8501               849.9611
 Red. masses --      1.3260                 2.1004                 3.1257
 Frc consts  --      0.5253                 0.8543                 1.3304
 IR Inten    --      2.3607                10.0287                 3.7157

                     16                     17                     18
                      A                      A                      A
 Frequencies --    912.6531               929.4108               953.1073
 Red. masses --      3.2498                 3.1380                 2.4730
 Frc consts  --      1.5949                 1.5970                 1.3236
 IR Inten    --      3.3012                47.8174                10.6850

                     19                     20                     21
                      A                      A                      A
 Frequencies --    975.6989               998.1882              1021.7575
 Red. masses --      2.0303                 2.5818                 2.1311
 Frc consts  --      1.1388                 1.5156                 1.3108
 IR Inten    --     13.7072                39.2499                 5.0523

                     22                     23                     24
                      A                      A                      A
 Frequencies --   1037.2397              1068.0829              1095.1664
 Red. masses --      2.3403                 1.7971                 2.3177
 Frc consts  --      1.4835                 1.2079                 1.6378
 IR Inten    --     10.5051                 6.9182                 4.5074

                     25                     26                     27
                      A                      A                      A
 Frequencies --   1124.3561              1151.2893              1156.1731
 Red. masses --      1.5385                 1.5527                 1.2985
 Frc consts  --      1.1459                 1.2126                 1.0226
 IR Inten    --     32.6138                 1.5544                 2.7816

                     28                     29                     30
                      A                      A                      A
 Frequencies --   1195.6861              1203.4961              1225.9013
 Red. masses --      1.3765                 1.8795                 1.5372
 Frc consts  --      1.1595                 1.6039                 1.3611
 IR Inten    --     19.2799                19.9398                40.8081

                     31                     32                     33
                      A                      A                      A
 Frequencies --   1240.4209              1258.8737              1294.8505
 Red. masses --      1.4295                 1.6632                 1.8420
 Frc consts  --      1.2959                 1.5529                 1.8196
 IR Inten    --     19.8159                 9.1936                67.4566

                     34                     35                     36
                      A                      A                      A
 Frequencies --   1310.6778              1334.3625              1359.0481
 Red. masses --      1.5851                 1.4858                 2.1029
 Frc consts  --      1.6043                 1.5587                 2.2884
 IR Inten    --     62.4826                17.5342                 0.1466

                     37                     38                     39
                      A                      A                      A
 Frequencies --   1389.2124              1479.8794              1490.1762
 Red. masses --      1.9456                 1.0983                 1.1166
 Frc consts  --      2.2123                 1.4171                 1.4609
 IR Inten    --      2.0123                 2.3371                 1.8121

                     40                     41                     42
                      A                      A                      A
 Frequencies --   1513.3900              1515.1989              3009.4126
 Red. masses --      1.1273                 1.1199                 1.0600
 Frc consts  --      1.5213                 1.5149                 5.6564
 IR Inten    --      2.8187                 1.4208                80.2875

                     43                     44                     45
                      A                      A                      A
 Frequencies --   3045.9175              3049.5460              3056.4021
 Red. masses --      1.0594                 1.0817                 1.0627
 Frc consts  --      5.7911                 5.9269                 5.8488
 IR Inten    --     33.3941                50.4285                53.8790

                     46                     47                     48
                      A                      A                      A
 Frequencies --   3066.6604              3079.8115              3089.6677
 Red. masses --      1.0640                 1.1051                 1.1071
 Frc consts  --      5.8957                 6.1757                 6.2267
 IR Inten    --     24.1547                33.8415                 0.2948

                     49                     50                     51
                      A                      A                      A
 Frequencies --   3108.1600              3158.1484              3797.8432
 Red. masses --      1.1063                 1.1034                 1.0657
 Frc consts  --      6.2971                 6.4842                 9.0566
 IR Inten    --     49.4458                11.6450                16.1706

 - Thermochemistry -
 -------------------
 Temperature   298.150 Kelvin.  Pressure   1.00000 Atm.
 Atom     1 has atomic number  8 and mass  15.99491

 Molecular mass:   126.06808 amu.
 Principal axes and moments of inertia in atomic units:
                           1         2         3
     Eigenvalues --   664.91917 988.478231307.86071
           X            0.99983   0.01849  -0.00141
           Y           -0.01853   0.99930  -0.03247
           Z            0.00081   0.03249   0.99947
 This molecule is an asymmetric top.
 Rotational symmetry number  1.
 Warning -- assumption of classical behavior for rotation
           may cause significant error
 Rotational temperatures (Kelvin)      0.13026     0.08762     0.06623
 Rotational constants (GHZ):           2.71423     1.82578     1.37992
 Zero-point vibrational energy     421890.1 (Joules/Mol)
                                  100.83416 (Kcal/Mol)
 Warning -- explicit consideration of  10 degrees of freedom as
           vibrations may cause significant error
 Vibrational temperatures:    306.04   358.00   397.80   408.01   480.05
          (Kelvin)            592.01   647.41   707.92   832.00   886.27
                              982.94  1081.56  1179.74  1195.41  1222.90
                             1313.10  1337.21  1371.31  1403.81  1436.17
                             1470.08  1492.35  1536.73  1575.70  1617.70
                             1656.45  1663.47  1720.32  1731.56  1763.80
                             1784.69  1811.24  1863.00  1885.77  1919.85
                             1955.36  1998.76  2129.21  2144.03  2177.43
                             2180.03  4329.87  4382.39  4387.61  4397.48
                             4412.23  4431.16  4445.34  4471.94  4543.87
                             5464.24

 Zero-point correction=                           0.160689 (Hartree/Particle)
 Thermal correction to Energy=                    0.167908
 Thermal correction to Enthalpy=                  0.168852
 Thermal correction to Gibbs Free Energy=         0.129640
 Sum of electronic and zero-point Energies=           -422.960011
 Sum of electronic and thermal Energies=              -422.952792
 Sum of electronic and thermal Enthalpies=            -422.951848
 Sum of electronic and thermal Free Energies=         -422.991060

                     E (Thermal)             CV                S
                      KCal/Mol        Cal/Mol-Kelvin    Cal/Mol-Kelvin
 Total                  105.364             30.199             82.528
 Electronic               0.000              0.000              0.000
 Translational            0.889              2.981             40.409
 Rotational               0.889              2.981             28.243
 Vibrational            103.586             24.238             13.876
 Vibration     1          0.644              1.822              2.020
 Vibration     2          0.662              1.765              1.739
 Vibration     3          0.678              1.717              1.555
 Vibration     4          0.682              1.704              1.512
 Vibration     5          0.715              1.608              1.242
 Vibration     6          0.775              1.445              0.921
 Vibration     7          0.809              1.361              0.796
 Vibration     8          0.848              1.268              0.678
 Vibration     9          0.935              1.078              0.489
 Vibration    10          0.976              0.998              0.423

 Optimization completed.
    -- Stationary point found.
 Normal termination of Gaussian 09 at Mon Jan 27 18:55:09 2020.
