 Gaussian 09, Revision D.01,
 Gaussian 09:  ES64L-G09RevD.01 24-Apr-2013

 -----------------------------
 # b3lyp 6-31G(2df,p) opt Freq
 -----------------------------

 -----
 titel
 -----
 Symbolic Z-matrix:
 Charge =  0 Multiplicity = 1

 SCF Done:  E(RB3LYP) =  -423.142242628     A.U. after   12 cycles
 Optimization completed.
    -- Stationary point found.
 Normal termination of Gaussian 09 at Tue Jan 28 00:01:14 2020.

 ----------------------------------------------------------------------
 #N Geom=AllCheck Guess=TCheck SCRF=Check GenChk RB3LYP/6-31G(2df,p) Fr
 eq
 ----------------------------------------------------------------------

 Structure from the checkpoint file:  "/scratch/puck/g09_4fb1f579-0d87-4d0f-a854-61e44c0dcc4f/Gau-131049.chk"
 -----
 titel
 -----
 Charge =  0 Multiplicity = 1

                         Standard orientation:
 ---------------------------------------------------------------------
 Center     Atomic      Atomic             Coordinates (Angstroms)
 Number     Number       Type             X           Y           Z
 ---------------------------------------------------------------------
      1          8           0       -2.353109   -0.937545    0.053424
      2          6           0       -0.960109   -0.958916    0.089944
      3          6           0       -0.163250    0.012558    1.049274
      4          6           0       -0.760425    1.353805    0.610827
      5          8           0       -0.807886    1.159709   -0.833555
      6          6           0       -0.188647   -0.141279   -0.976498
      7          6           0        0.970154   -0.112460    0.014038
      8          6           0        2.313447    0.526828   -0.068944
      9          6           0        2.182487   -0.983346    0.047172
     10          1           0       -2.596863   -0.120155   -0.401800
     11          1           0       -0.620497   -1.990491    0.186273
     12          1           0       -0.031633   -0.174806    2.113737
     13          1           0       -1.771416    1.529219    0.993992
     14          1           0       -0.125640    2.213541    0.848291
     15          1           0       -0.111390   -0.399600   -2.031538
     16          1           0        2.629023    0.940414   -1.021161
     17          1           0        2.679261    1.070737    0.796449
     18          1           0        2.415806   -1.583004   -0.827208
     19          1           0        2.459374   -1.446305    0.989147
 ---------------------------------------------------------------------

 SCF Done:  E(RB3LYP) =  -423.142242628     A.U. after    1 cycles

 The electronic state is 1-A.
 Alpha  occ. eigenvalues --  -19.14280 -19.13643 -10.23454 -10.23316 -10.22825
 Alpha  occ. eigenvalues --  -10.20122 -10.19541 -10.19335 -10.19002  -1.05237
 Alpha  occ. eigenvalues --   -1.01063  -0.87343  -0.79664  -0.72664  -0.62110
 Alpha  occ. eigenvalues --   -0.60478  -0.58257  -0.55070  -0.53121  -0.49469
 Alpha  occ. eigenvalues --   -0.48627  -0.47887  -0.42045  -0.40680  -0.39283
 Alpha  occ. eigenvalues --   -0.37826  -0.37145  -0.34921  -0.34844  -0.31665
 Alpha  occ. eigenvalues --   -0.29882  -0.28802  -0.26681  -0.23993
 Alpha virt. eigenvalues --    0.07702   0.09568   0.10273   0.10656   0.12569
 Alpha virt. eigenvalues --    0.13383   0.14449   0.15506   0.16004   0.16510
 Alpha virt. eigenvalues --    0.18343   0.18661   0.20455   0.22072   0.22208

 Mulliken charges:
               1
     1  O   -0.459056
     2  C    0.189109
     3  C   -0.227629
     4  C   -0.097334
     5  O   -0.301130
     6  C   -0.061874
     7  C    0.453480
     8  C   -0.358829
     9  C   -0.360685
    10  H    0.292445
    11  H    0.096441
    12  H    0.074727
    13  H    0.102334
    14  H    0.107517
    15  H    0.081160
    16  H    0.120595
    17  H    0.115042
    18  H    0.117206
    19  H    0.116482
 Sum of Mulliken charges =   0.00000

 Dipole moment (field-independent basis, Debye):
    X=              1.6076    Y=              0.1211    Z=              0.5325  Tot=              1.6978
 Quadrupole moment (field-independent basis, Debye-Ang):
   XX=            -55.7819   YY=            -54.4352   ZZ=            -51.0628
   XY=             -3.1023   XZ=              0.3469   YZ=              2.7307

  Exact polarizability:  84.800  -2.284  72.798  -0.906   2.513  67.120
 Approx polarizability: 114.740  -2.376 109.999   0.039   1.048 104.112

                      1                      2                      3
                      A                      A                      A
 Frequencies --    153.8932               220.3433               242.5157
 Red. masses --      3.9849                 2.5542                 2.6809
 Frc consts  --      0.0556                 0.0731                 0.0929
 IR Inten    --      0.4050                 0.1764                 2.0667

                      4                      5                      6
                      A                      A                      A
 Frequencies --    254.4491               306.8219               448.8143
 Red. masses --      3.9475                 3.2729                 2.5439
 Frc consts  --      0.1506                 0.1815                 0.3019
 IR Inten    --      5.5147                10.8928                 2.3892

                      7                      8                      9
                      A                      A                      A
 Frequencies --    468.0818               509.8899               571.8283
 Red. masses --      3.3359                 1.1749                 4.3123
 Frc consts  --      0.4306                 0.1800                 0.8308
 IR Inten    --      7.9406                59.8494                 0.4218

                     10                     11                     12
                      A                      A                      A
 Frequencies --    682.7825               731.0123               777.1335
 Red. masses --      2.8207                 4.0761                 1.0813
 Frc consts  --      0.7748                 1.2833                 0.3848
 IR Inten    --      2.1494                 4.6590                 0.6386

                     13                     14                     15
                      A                      A                      A
 Frequencies --    816.7029               823.4981               879.4126
 Red. masses --      2.7414                 2.9970                 2.4212
 Frc consts  --      1.0773                 1.1975                 1.1033
 IR Inten    --     23.4122                 9.2085                21.4514

                     16                     17                     18
                      A                      A                      A
 Frequencies --    905.5257               930.4733               946.4430
 Red. masses --      3.0875                 1.4176                 3.0359
 Frc consts  --      1.4916                 0.7231                 1.6023
 IR Inten    --     15.3839                 1.5635                 3.8531

                     19                     20                     21
                      A                      A                      A
 Frequencies --    969.3849               978.4169               999.5243
 Red. masses --      3.0354                 1.7956                 2.4301
 Frc consts  --      1.6806                 1.0127                 1.4304
 IR Inten    --     40.8109                 1.4777                13.2573

                     22                     23                     24
                      A                      A                      A
 Frequencies --   1035.1997              1051.7664              1065.9170
 Red. masses --      1.8451                 1.5342                 3.8680
 Frc consts  --      1.1650                 1.0000                 2.5893
 IR Inten    --      8.1799                 0.4553                11.7938

                     25                     26                     27
                      A                      A                      A
 Frequencies --   1081.3084              1107.7982              1127.7765
 Red. masses --      1.4265                 1.8346                 2.0132
 Frc consts  --      0.9827                 1.3265                 1.5086
 IR Inten    --      0.5910                94.5264                45.3776

                     28                     29                     30
                      A                      A                      A
 Frequencies --   1175.8369              1182.8294              1195.3047
 Red. masses --      1.3757                 1.2997                 1.4022
 Frc consts  --      1.1206                 1.0714                 1.1804
 IR Inten    --      2.0705                 0.6298                40.4099

                     31                     32                     33
                      A                      A                      A
 Frequencies --   1213.9836              1235.0643              1255.7251
 Red. masses --      1.2828                 2.4315                 1.5494
 Frc consts  --      1.1139                 2.1853                 1.4394
 IR Inten    --      6.2495                 4.8369                 4.2358

                     34                     35                     36
                      A                      A                      A
 Frequencies --   1278.4175              1308.3921              1359.4811
 Red. masses --      1.6050                 1.4975                 1.5152
 Frc consts  --      1.5455                 1.5104                 1.6499
 IR Inten    --     10.6346                14.0877                 0.9265

                     37                     38                     39
                      A                      A                      A
 Frequencies --   1420.9558              1435.8002              1466.0280
 Red. masses --      1.8345                 1.3062                 1.0880
 Frc consts  --      2.1824                 1.5865                 1.3777
 IR Inten    --      2.6582                91.9901                 0.9152

                     40                     41                     42
                      A                      A                      A
 Frequencies --   1511.9873              1523.4702              3037.0781
 Red. masses --      1.6259                 1.1754                 1.0557
 Frc consts  --      2.1899                 1.6073                 5.7374
 IR Inten    --      2.2703                 1.0994                58.0645

                     43                     44                     45
                      A                      A                      A
 Frequencies --   3081.6606              3118.2981              3121.7075
 Red. masses --      1.1110                 1.0867                 1.0518
 Frc consts  --      6.2161                 6.2258                 6.0389
 IR Inten    --     29.7177                13.4867                20.9685

                     46                     47                     48
                      A                      A                      A
 Frequencies --   3126.2094              3134.2044              3139.9920
 Red. masses --      1.0570                 1.0894                 1.0933
 Frc consts  --      6.0864                 6.3051                 6.3510
 IR Inten    --     13.8581                46.0675                10.7215

                     49                     50                     51
                      A                      A                      A
 Frequencies --   3199.2696              3213.7303              3755.8450
 Red. masses --      1.1177                 1.1154                 1.0648
 Frc consts  --      6.7400                 6.7872                 8.8499
 IR Inten    --      0.5244                14.6289                28.4575

 - Thermochemistry -
 -------------------
 Temperature   298.150 Kelvin.  Pressure   1.00000 Atm.
 Atom     1 has atomic number  8 and mass  15.99491

 Molecular mass:   126.06808 amu.
 Principal axes and moments of inertia in atomic units:
                           1         2         3
     Eigenvalues --   558.642871217.859201389.58854
           X            0.99983  -0.01805  -0.00453
           Y            0.01831   0.99751   0.06815
           Z            0.00329  -0.06822   0.99766
 This molecule is an asymmetric top.
 Rotational symmetry number  1.
 Warning -- assumption of classical behavior for rotation
           may cause significant error
 Rotational temperatures (Kelvin)      0.15504     0.07112     0.06233
 Rotational constants (GHZ):           3.23058     1.48190     1.29876
 Zero-point vibrational energy     422150.1 (Joules/Mol)
                                  100.89629 (Kcal/Mol)
 Warning -- explicit consideration of   9 degrees of freedom as
           vibrations may cause significant error
 Vibrational temperatures:    221.42   317.02   348.93   366.10   441.45
          (Kelvin)            645.74   673.46   733.62   822.73   982.37
                             1051.76  1118.12  1175.05  1184.83  1265.28
                             1302.85  1338.74  1361.72  1394.73  1407.72
                             1438.09  1489.42  1513.26  1533.61  1555.76
                             1593.87  1622.62  1691.76  1701.83  1719.77
                             1746.65  1776.98  1806.71  1839.36  1882.48
                             1955.99  2044.44  2065.79  2109.28  2175.41
                             2191.93  4369.67  4433.82  4486.53  4491.44
                             4497.91  4509.42  4517.74  4603.03  4623.84
                             5403.82

 Zero-point correction=                           0.160788 (Hartree/Particle)
 Thermal correction to Energy=                    0.168179
 Thermal correction to Enthalpy=                  0.169123
 Thermal correction to Gibbs Free Energy=         0.129354
 Sum of electronic and zero-point Energies=           -422.981454
 Sum of electronic and thermal Energies=              -422.974064
 Sum of electronic and thermal Enthalpies=            -422.973120
 Sum of electronic and thermal Free Energies=         -423.012889

                     E (Thermal)             CV                S
                      KCal/Mol        Cal/Mol-Kelvin    Cal/Mol-Kelvin
 Total                  105.534             30.377             83.701
 Electronic               0.000              0.000              0.000
 Translational            0.889              2.981             40.409
 Rotational               0.889              2.981             28.338
 Vibrational            103.756             24.415             14.955
 Vibration     1          0.619              1.898              2.624
 Vibration     2          0.647              1.810              1.956
 Vibration     3          0.659              1.775              1.784
 Vibration     4          0.665              1.755              1.700
 Vibration     5          0.697              1.661              1.379
 Vibration     6          0.808              1.364              0.799
 Vibration     7          0.825              1.321              0.743
 Vibration     8          0.865              1.228              0.634
 Vibration     9          0.928              1.092              0.501

 Normal termination of Gaussian 09 at Tue Jan 28 00:44:56 2020.
