 Gaussian 09, Revision D.01,
 Gaussian 09:  ES64L-G09RevD.01 24-Apr-2013

 -----------------------------
 # b3lyp 6-31G(2df,p) opt Freq
 -----------------------------

 -----
 titel
 -----
 Symbolic Z-matrix:
 Charge =  0 Multiplicity = 1

 SCF Done:  E(RB3LYP) =  -423.193971536     A.U. after   14 cycles
 Optimization completed.
    -- Stationary point found.
 Normal termination of Gaussian 09 at Tue Jan 28 09:02:08 2020.

 ----------------------------------------------------------------------
 #N Geom=AllCheck Guess=TCheck SCRF=Check GenChk RB3LYP/6-31G(2df,p) Fr
 eq
 ----------------------------------------------------------------------

 Structure from the checkpoint file:  "/scratch/puck/g09_e57bd922-a0a6-4168-a47f-640d331a9ee9/Gau-94141.chk"
 -----
 titel
 -----
 Charge =  0 Multiplicity = 1

                         Standard orientation:
 ---------------------------------------------------------------------
 Center     Atomic      Atomic             Coordinates (Angstroms)
 Number     Number       Type             X           Y           Z
 ---------------------------------------------------------------------
      1          6           0       -0.193258    2.271191   -0.764633
      2          6           0        0.290480    1.486762    0.461336
      3          6           0        0.659636    0.040238    0.157396
      4          6           0        2.029824   -0.225999   -0.457055
      5          6           0        1.804366   -0.595428    0.966206
      6          6           0       -0.375968   -0.962658   -0.223010
      7          8           0       -0.109365   -2.054758   -0.689400
      8          6           0       -1.880501   -0.735845    0.023928
      9          8           0       -2.384962    0.178198    0.619247
     10          1           0       -1.127177    1.862417   -1.160834
     11          1           0       -0.380845    3.317040   -0.503537
     12          1           0        0.551835    2.252446   -1.566961
     13          1           0        1.186798    1.973788    0.863970
     14          1           0       -0.468079    1.525350    1.245838
     15          1           0        2.084828   -1.030267   -1.180542
     16          1           0        2.628374    0.650936   -0.677598
     17          1           0        1.703868   -1.647785    1.204394
     18          1           0        2.231521    0.021124    1.749260
     19          1           0       -2.463991   -1.582131   -0.397771
 ---------------------------------------------------------------------

 SCF Done:  E(RB3LYP) =  -423.193971536     A.U. after    1 cycles

 The electronic state is 1-A.
 Alpha  occ. eigenvalues --  -19.16998 -19.15153 -10.28836 -10.28309 -10.21585
 Alpha  occ. eigenvalues --  -10.20596 -10.20000 -10.18998 -10.17735  -1.07629
 Alpha  occ. eigenvalues --   -1.05647  -0.88019  -0.76504  -0.70121  -0.64501
 Alpha  occ. eigenvalues --   -0.61820  -0.61157  -0.52971  -0.50347  -0.47939
 Alpha  occ. eigenvalues --   -0.46770  -0.46013  -0.43989  -0.43264  -0.41700
 Alpha  occ. eigenvalues --   -0.39231  -0.38533  -0.36778  -0.35911  -0.35098
 Alpha  occ. eigenvalues --   -0.31908  -0.30814  -0.28667  -0.24861
 Alpha virt. eigenvalues --   -0.09172   0.02856   0.08797   0.10805   0.11447
 Alpha virt. eigenvalues --    0.12431   0.13474   0.15380   0.15855   0.16703
 Alpha virt. eigenvalues --    0.17651   0.18516   0.19896   0.22079   0.23176

 Mulliken charges:
               1
     1  C   -0.385098
     2  C   -0.271457
     3  C    0.228845
     4  C   -0.278122
     5  C   -0.286433
     6  C    0.226702
     7  O   -0.304693
     8  C    0.092477
     9  O   -0.229660
    10  H    0.122629
    11  H    0.118079
    12  H    0.115124
    13  H    0.089579
    14  H    0.128146
    15  H    0.140738
    16  H    0.120539
    17  H    0.136269
    18  H    0.124652
    19  H    0.111683
 Sum of Mulliken charges =   0.00000

 Dipole moment (field-independent basis, Debye):
    X=              1.3468    Y=              0.9365    Z=              0.1935  Tot=              1.6518
 Quadrupole moment (field-independent basis, Debye-Ang):
   XX=            -54.4820   YY=            -56.5263   ZZ=            -53.1928
   XY=              3.2681   XZ=              2.6588   YZ=             -2.3021

  Exact polarizability:  85.638  -0.197  81.368   1.443   4.557  64.002
 Approx polarizability: 119.658  -4.698 124.553  -1.907  16.022 102.140

                      1                      2                      3
                      A                      A                      A
 Frequencies --     34.1814                86.5337               113.6877
 Red. masses --      5.8173                 3.3272                 2.5350
 Frc consts  --      0.0040                 0.0147                 0.0193
 IR Inten    --      1.2417                15.1843                 0.2911

                      4                      5                      6
                      A                      A                      A
 Frequencies --    181.6442               206.7185               231.5879
 Red. masses --      2.5093                 1.4752                 3.1396
 Frc consts  --      0.0488                 0.0371                 0.0992
 IR Inten    --      0.3072                 0.6753                 4.7419

                      7                      8                      9
                      A                      A                      A
 Frequencies --    276.2055               304.1556               360.6802
 Red. masses --      2.5142                 3.5017                 2.1475
 Frc consts  --      0.1130                 0.1909                 0.1646
 IR Inten    --      0.7098                 8.0741                 1.2394

                     10                     11                     12
                      A                      A                      A
 Frequencies --    435.9169               497.2619               602.4690
 Red. masses --      3.2261                 5.9469                 3.8612
 Frc consts  --      0.3612                 0.8664                 0.8257
 IR Inten    --      1.9871                11.3630                13.2810

                     13                     14                     15
                      A                      A                      A
 Frequencies --    627.3796               671.6692               776.6872
 Red. masses --      3.4765                 5.4730                 1.2842
 Frc consts  --      0.8062                 1.4547                 0.4564
 IR Inten    --      1.1985                45.4664                17.3388

                     16                     17                     18
                      A                      A                      A
 Frequencies --    796.8384               839.1667               861.8567
 Red. masses --      1.0687                 4.5279                 1.9461
 Frc consts  --      0.3998                 1.8787                 0.8517
 IR Inten    --      2.1600                 5.5319                24.5362

                     19                     20                     21
                      A                      A                      A
 Frequencies --    937.7338               965.4052              1018.0631
 Red. masses --      2.3872                 1.2419                 1.6930
 Frc consts  --      1.2368                 0.6820                 1.0338
 IR Inten    --     23.6453                 1.4929                 3.9346

                     22                     23                     24
                      A                      A                      A
 Frequencies --   1033.2554              1063.2212              1089.7736
 Red. masses --      1.9651                 1.1834                 1.8069
 Frc consts  --      1.2361                 0.7882                 1.2643
 IR Inten    --      1.2696                 5.5921                 5.6441

                     25                     26                     27
                      A                      A                      A
 Frequencies --   1099.0298              1121.6336              1150.1946
 Red. masses --      1.4861                 1.7669                 3.7273
 Frc consts  --      1.0576                 1.3097                 2.9053
 IR Inten    --      2.4339                 0.9305                14.3976

                     28                     29                     30
                      A                      A                      A
 Frequencies --   1205.5403              1279.3655              1298.2730
 Red. masses --      1.2981                 1.7720                 2.3195
 Frc consts  --      1.1115                 1.7088                 2.3034
 IR Inten    --      0.0713                16.1755                 1.5349

                     31                     32                     33
                      A                      A                      A
 Frequencies --   1362.8595              1376.3938              1385.5617
 Red. masses --      1.5590                 1.4480                 1.5352
 Frc consts  --      1.7061                 1.6162                 1.7365
 IR Inten    --      5.8834                 2.1398                31.3870

                     34                     35                     36
                      A                      A                      A
 Frequencies --   1412.6508              1455.9749              1480.5332
 Red. masses --      1.2313                 1.0960                 1.1746
 Frc consts  --      1.4477                 1.3689                 1.5169
 IR Inten    --      3.5024                 5.5254                13.8134

                     37                     38                     39
                      A                      A                      A
 Frequencies --   1488.8025              1499.9231              1505.9119
 Red. masses --      1.1607                 1.0504                 1.0580
 Frc consts  --      1.5159                 1.3923                 1.4137
 IR Inten    --      0.9767                 6.2264                 2.4925

                     40                     41                     42
                      A                      A                      A
 Frequencies --   1751.8066              1827.0043              2918.7037
 Red. masses --     10.9921                10.9976                 1.0869
 Frc consts  --     19.8749                21.6286                 5.4552
 IR Inten    --     92.2217               108.2842               102.7488

                     43                     44                     45
                      A                      A                      A
 Frequencies --   3034.4473              3038.7446              3097.6782
 Red. masses --      1.0700                 1.0358                 1.0959
 Frc consts  --      5.8046                 5.6354                 6.1956
 IR Inten    --     22.4322                21.8057                 4.9011

                     46                     47                     48
                      A                      A                      A
 Frequencies --   3112.0156              3118.6663              3140.1151
 Red. masses --      1.0986                 1.0996                 1.0507
 Frc consts  --      6.2685                 6.3015                 6.1039
 IR Inten    --     28.6584                27.0446                11.3761

                     49                     50                     51
                      A                      A                      A
 Frequencies --   3142.2410              3228.8266              3242.9163
 Red. masses --      1.0572                 1.1185                 1.1168
 Frc consts  --      6.1501                 6.8701                 6.9196
 IR Inten    --      8.3588                 0.3817                 3.6147

 - Thermochemistry -
 -------------------
 Temperature   298.150 Kelvin.  Pressure   1.00000 Atm.
 Atom     1 has atomic number  6 and mass  12.00000

 Molecular mass:   126.06808 amu.
 Principal axes and moments of inertia in atomic units:
                           1         2         3
     Eigenvalues --   935.946701106.270131680.02717
           X            0.99975   0.01354   0.01776
           Y           -0.01306   0.99956  -0.02659
           Z           -0.01811   0.02636   0.99949
 This molecule is an asymmetric top.
 Rotational symmetry number  1.
 Warning -- assumption of classical behavior for rotation
           may cause significant error
 Rotational temperatures (Kelvin)      0.09254     0.07829     0.05156
 Rotational constants (GHZ):           1.92825     1.63137     1.07423
 Zero-point vibrational energy     411443.0 (Joules/Mol)
                                   98.33725 (Kcal/Mol)
 Warning -- explicit consideration of  12 degrees of freedom as
           vibrations may cause significant error
 Vibrational temperatures:     49.18   124.50   163.57   261.35   297.42
          (Kelvin)            333.20   397.40   437.61   518.94   627.19
                              715.45   866.82   902.66   966.38  1117.48
                             1146.47  1207.37  1240.02  1349.19  1389.00
                             1464.76  1486.62  1529.74  1567.94  1581.26
                             1613.78  1654.87  1734.50  1840.72  1867.92
                             1960.85  1980.32  1993.51  2032.49  2094.82
                             2130.15  2142.05  2158.05  2166.67  2520.46
                             2628.65  4199.36  4365.89  4372.07  4456.86
                             4477.49  4487.06  4517.92  4520.98  4645.56
                             4665.83

 Zero-point correction=                           0.156710 (Hartree/Particle)
 Thermal correction to Energy=                    0.166355
 Thermal correction to Enthalpy=                  0.167299
 Thermal correction to Gibbs Free Energy=         0.121398
 Sum of electronic and zero-point Energies=           -423.037261
 Sum of electronic and thermal Energies=              -423.027617
 Sum of electronic and thermal Enthalpies=            -423.026673
 Sum of electronic and thermal Free Energies=         -423.072574

                     E (Thermal)             CV                S
                      KCal/Mol        Cal/Mol-Kelvin    Cal/Mol-Kelvin
 Total                  104.389             34.643             96.607
 Electronic               0.000              0.000              0.000
 Translational            0.889              2.981             40.409
 Rotational               0.889              2.981             28.944
 Vibrational            102.612             28.681             27.255
 Vibration     1          0.594              1.983              5.571
 Vibration     2          0.601              1.959              3.737
 Vibration     3          0.607              1.938              3.205
 Vibration     4          0.630              1.865              2.311
 Vibration     5          0.641              1.830              2.072
 Vibration     6          0.653              1.793              1.867
 Vibration     7          0.678              1.717              1.557
 Vibration     8          0.695              1.666              1.394
 Vibration     9          0.735              1.553              1.119
 Vibration    10          0.796              1.392              0.840
 Vibration    11          0.853              1.256              0.665
 Vibration    12          0.961              1.027              0.445

 Optimization completed.
    -- Stationary point found.
 Normal termination of Gaussian 09 at Tue Jan 28 09:44:34 2020.
