 Gaussian 09, Revision D.01,
 Gaussian 09:  ES64L-G09RevD.01 24-Apr-2013

 -----------------------------
 # b3lyp 6-31G(2df,p) opt Freq
 -----------------------------

 -----
 titel
 -----
 Symbolic Z-matrix:
 Charge =  0 Multiplicity = 1

 SCF Done:  E(RB3LYP) =  -423.112184024     A.U. after   14 cycles
 Optimization completed.
    -- Stationary point found.
 Normal termination of Gaussian 09 at Tue Jan 28 12:07:42 2020.

 ----------------------------------------------------------------------
 #N Geom=AllCheck Guess=TCheck SCRF=Check GenChk RB3LYP/6-31G(2df,p) Fr
 eq
 ----------------------------------------------------------------------

 Structure from the checkpoint file:  "/scratch/puck/g09_d91d0f87-aff6-448b-8195-c9108f74134d/Gau-1276.chk"
 -----
 titel
 -----
 Charge =  0 Multiplicity = 1

                         Standard orientation:
 ---------------------------------------------------------------------
 Center     Atomic      Atomic             Coordinates (Angstroms)
 Number     Number       Type             X           Y           Z
 ---------------------------------------------------------------------
      1          6           0        4.164370    0.561745   -0.198484
      2          8           0        2.762627    0.590214   -0.060854
      3          6           0        2.214907   -0.708864    0.053820
      4          6           0        0.766959   -0.637720    0.183333
      5          6           0       -0.432585   -0.605144    0.284756
      6          6           0       -1.876250   -0.544326    0.419516
      7          6           0       -2.501770    0.829419    0.793164
      8          6           0       -3.268449    0.681136   -0.534273
      9          8           0       -2.589526   -0.554506   -0.846076
     10          1           0        4.501809    1.597404   -0.277788
     11          1           0        4.652747    0.093189    0.671087
     12          1           0        4.476973    0.014782   -1.102403
     13          1           0        2.475468   -1.317125   -0.830376
     14          1           0        2.642811   -1.230739    0.928115
     15          1           0       -2.222677   -1.369352    1.056831
     16          1           0       -3.102594    0.832377    1.703030
     17          1           0       -1.782882    1.647624    0.823614
     18          1           0       -4.351665    0.536711   -0.438148
     19          1           0       -3.077888    1.451992   -1.289521
 ---------------------------------------------------------------------

 SCF Done:  E(RB3LYP) =  -423.112184024     A.U. after    1 cycles

 The electronic state is 1-A.
 Alpha  occ. eigenvalues --  -19.14558 -19.13189 -10.25511 -10.25370 -10.23078
 Alpha  occ. eigenvalues --  -10.22804 -10.19401 -10.18047 -10.17630  -1.03930
 Alpha  occ. eigenvalues --   -1.03660  -0.78402  -0.75214  -0.72854  -0.68406
 Alpha  occ. eigenvalues --   -0.64849  -0.57864  -0.51922  -0.49727  -0.48947
 Alpha  occ. eigenvalues --   -0.48760  -0.48304  -0.44933  -0.42500  -0.41010
 Alpha  occ. eigenvalues --   -0.40214  -0.37888  -0.35214  -0.32835  -0.31082
 Alpha  occ. eigenvalues --   -0.27298  -0.26464  -0.25517  -0.24736
 Alpha virt. eigenvalues --    0.02266   0.03428   0.09382   0.10484   0.11777
 Alpha virt. eigenvalues --    0.12711   0.13247   0.14234   0.15717   0.16300
 Alpha virt. eigenvalues --    0.16801   0.17135   0.18459   0.19683   0.21605

 Mulliken charges:
               1
     1  C   -0.219085
     2  O   -0.228068
     3  C   -0.202690
     4  C   -0.002184
     5  C    0.174952
     6  C   -0.037879
     7  C   -0.284643
     8  C   -0.058580
     9  O   -0.278405
    10  H    0.131631
    11  H    0.104680
    12  H    0.106074
    13  H    0.119616
    14  H    0.115409
    15  H    0.101604
    16  H    0.115381
    17  H    0.129100
    18  H    0.102333
    19  H    0.110753
 Sum of Mulliken charges =   0.00000

 Dipole moment (field-independent basis, Debye):
    X=              0.8327    Y=              0.3054    Z=              1.2946  Tot=              1.5692
 Quadrupole moment (field-independent basis, Debye-Ang):
   XX=            -41.0600   YY=            -52.8535   ZZ=            -54.0629
   XY=             -5.1929   XZ=             -4.1561   YZ=             -1.7892

  Exact polarizability: 123.085  -3.900  65.489  -1.698  -2.049  62.278
 Approx polarizability: 157.318  -4.664  94.458  -2.866  -1.465  90.864

                      1                      2                      3
                      A                      A                      A
 Frequencies --     29.1037                50.1144                70.2048
 Red. masses --      2.6255                 2.7560                 2.7221
 Frc consts  --      0.0013                 0.0041                 0.0079
 IR Inten    --      2.9994                 2.8214                 5.2163

                      4                      5                      6
                      A                      A                      A
 Frequencies --     83.2984               133.1814               209.0801
 Red. masses --      2.8390                 4.5026                 3.5763
 Frc consts  --      0.0116                 0.0471                 0.0921
 IR Inten    --      0.6260                 1.4722                 0.5292

                      7                      8                      9
                      A                      A                      A
 Frequencies --    228.5214               313.4338               359.3334
 Red. masses --      1.1789                 4.1731                 3.7892
 Frc consts  --      0.0363                 0.2415                 0.2883
 IR Inten    --      3.2057                 1.8692                 0.3512

                     10                     11                     12
                      A                      A                      A
 Frequencies --    389.8131               518.7023               581.1246
 Red. masses --      4.7183                 6.3145                 6.3563
 Frc consts  --      0.4224                 1.0010                 1.2647
 IR Inten    --      0.6981                 2.4246                 3.6490

                     13                     14                     15
                      A                      A                      A
 Frequencies --    715.0509               801.7156               846.1306
 Red. masses --      2.4045                 1.2061                 4.6503
 Frc consts  --      0.7244                 0.4568                 1.9616
 IR Inten    --      1.8307                 0.8213                 3.7378

                     16                     17                     18
                      A                      A                      A
 Frequencies --    935.4171               945.9784               978.5619
 Red. masses --      2.6490                 3.1788                 4.4158
 Frc consts  --      1.3657                 1.6760                 2.4914
 IR Inten    --     17.0347                23.7018                32.8582

                     19                     20                     21
                      A                      A                      A
 Frequencies --   1010.5672              1023.6627              1029.9474
 Red. masses --      5.4435                 1.6597                 4.2831
 Frc consts  --      3.2754                 1.0247                 2.6769
 IR Inten    --     97.4372                 2.7262                57.3681

                     22                     23                     24
                      A                      A                      A
 Frequencies --   1087.0988              1142.5288              1163.4810
 Red. masses --      2.1814                 5.7649                 1.1651
 Frc consts  --      1.5189                 4.4338                 0.9293
 IR Inten    --      3.6503               125.0653                 1.9901

                     25                     26                     27
                      A                      A                      A
 Frequencies --   1182.7049              1187.4628              1215.1605
 Red. masses --      1.2883                 2.6400                 1.2618
 Frc consts  --      1.0617                 2.1933                 1.0977
 IR Inten    --      4.1973                80.9362                 1.4727

                     28                     29                     30
                      A                      A                      A
 Frequencies --   1220.3916              1254.4509              1257.8675
 Red. masses --      1.5529                 1.1075                 1.4454
 Frc consts  --      1.3627                 1.0269                 1.3474
 IR Inten    --     34.3363                 4.1522                 3.1191

                     31                     32                     33
                      A                      A                      A
 Frequencies --   1261.6417              1353.2197              1366.1723
 Red. masses --      1.2188                 1.4013                 1.4360
 Frc consts  --      1.1430                 1.5119                 1.5791
 IR Inten    --      1.3412                 2.9516                60.4827

                     34                     35                     36
                      A                      A                      A
 Frequencies --   1410.5585              1476.9633              1484.3679
 Red. masses --      1.3633                 1.1541                 1.0482
 Frc consts  --      1.5982                 1.4833                 1.3607
 IR Inten    --    113.2164                 0.5123                 5.1415

                     37                     38                     39
                      A                      A                      A
 Frequencies --   1488.8359              1493.4478              1515.5202
 Red. masses --      1.1007                 1.0715                 1.0763
 Frc consts  --      1.4376                 1.4081                 1.4565
 IR Inten    --      3.0830                 3.7229                 3.8375

                     40                     41                     42
                      A                      A                      A
 Frequencies --   1531.9421              2363.7789              2943.9146
 Red. masses --      1.1072                11.9268                 1.0534
 Frc consts  --      1.5309                39.2635                 5.3791
 IR Inten    --      1.1461                 0.3183                29.6605

                     43                     44                     45
                      A                      A                      A
 Frequencies --   2961.6095              2968.8321              3005.3351
 Red. masses --      1.1022                 1.0383                 1.0814
 Frc consts  --      5.6957                 5.3919                 5.7545
 IR Inten    --     43.2716                79.8732                47.3098

                     46                     47                     48
                      A                      A                      A
 Frequencies --   3011.5117              3020.4428              3062.2637
 Red. masses --      1.1030                 1.0584                 1.1099
 Frc consts  --      5.8941                 5.6891                 6.1323
 IR Inten    --     58.0351                78.2635                34.7582

                     49                     50                     51
                      A                      A                      A
 Frequencies --   3092.5176              3121.2238              3153.4685
 Red. masses --      1.0595                 1.0955                 1.1094
 Frc consts  --      5.9702                 6.2879                 6.4999
 IR Inten    --     22.4565                24.7317                17.8865

 - Thermochemistry -
 -------------------
 Temperature   298.150 Kelvin.  Pressure   1.00000 Atm.
 Atom     1 has atomic number  6 and mass  12.00000

 Molecular mass:   126.06808 amu.
 Principal axes and moments of inertia in atomic units:
                           1         2         3
     Eigenvalues --   345.624653248.242323334.64338
           X            0.99993  -0.01011  -0.00647
           Y            0.00979   0.99884  -0.04706
           Z            0.00694   0.04699   0.99887
 This molecule is an asymmetric top.
 Rotational symmetry number  1.
 Rotational temperatures (Kelvin)      0.25060     0.02666     0.02597
 Rotational constants (GHZ):           5.22168     0.55561     0.54121
 Zero-point vibrational energy     413020.6 (Joules/Mol)
                                   98.71430 (Kcal/Mol)
 Warning -- explicit consideration of  12 degrees of freedom as
           vibrations may cause significant error
 Vibrational temperatures:     41.87    72.10   101.01   119.85   191.62
          (Kelvin)            300.82   328.79   450.96   517.00   560.85
                              746.30   836.11  1028.80  1153.49  1217.39
                             1345.85  1361.05  1407.93  1453.98  1472.82
                             1481.86  1564.09  1643.84  1673.99  1701.65
                             1708.49  1748.34  1755.87  1804.87  1809.79
                             1815.22  1946.98  1965.61  2029.48  2125.02
                             2135.67  2142.10  2148.74  2180.49  2204.12
                             3400.95  4235.63  4261.09  4271.48  4324.00
                             4332.89  4345.74  4405.91  4449.44  4490.74
                             4537.13

 Zero-point correction=                           0.157311 (Hartree/Particle)
 Thermal correction to Energy=                    0.167324
 Thermal correction to Enthalpy=                  0.168268
 Thermal correction to Gibbs Free Energy=         0.119801
 Sum of electronic and zero-point Energies=           -422.954873
 Sum of electronic and thermal Energies=              -422.944860
 Sum of electronic and thermal Enthalpies=            -422.943916
 Sum of electronic and thermal Free Energies=         -422.992383

                     E (Thermal)             CV                S
                      KCal/Mol        Cal/Mol-Kelvin    Cal/Mol-Kelvin
 Total                  104.997             33.654            102.008
 Electronic               0.000              0.000              0.000
 Translational            0.889              2.981             40.409
 Rotational               0.889              2.981             29.705
 Vibrational            103.220             27.692             31.894
 Vibration     1          0.593              1.984              5.890
 Vibration     2          0.595              1.978              4.813
 Vibration     3          0.598              1.968              4.148
 Vibration     4          0.600              1.961              3.812
 Vibration     5          0.613              1.920              2.900
 Vibration     6          0.642              1.827              2.052
 Vibration     7          0.651              1.797              1.891
 Vibration     8          0.701              1.648              1.344
 Vibration     9          0.734              1.556              1.125
 Vibration    10          0.758              1.492              1.001
 Vibration    11          0.874              1.209              0.613
 Vibration    12          0.938              1.072              0.483

 Optimization completed.
    -- Stationary point found.
 Normal termination of Gaussian 09 at Tue Jan 28 12:44:52 2020.
