 Gaussian 09, Revision D.01,
 Gaussian 09:  ES64L-G09RevD.01 24-Apr-2013

 -----------------------------
 # b3lyp 6-31G(2df,p) opt Freq
 -----------------------------

 -----
 titel
 -----
 Symbolic Z-matrix:
 Charge =  0 Multiplicity = 1

 SCF Done:  E(RB3LYP) =  -423.128392899     A.U. after   13 cycles
 SCF Done:  E(RB3LYP) =  -423.128392297     A.U. after    9 cycles
 SCF Done:  E(RB3LYP) =  -423.128390844     A.U. after    8 cycles
 SCF Done:  E(RB3LYP) =  -423.128393186     A.U. after    9 cycles
 SCF Done:  E(RB3LYP) =  -423.128393433     A.U. after    7 cycles
 Optimization completed.
    -- Stationary point found.
 Normal termination of Gaussian 09 at Tue Jan 28 01:00:53 2020.

 ----------------------------------------------------------------------
 #N Geom=AllCheck Guess=TCheck SCRF=Check GenChk RB3LYP/6-31G(2df,p) Fr
 eq
 ----------------------------------------------------------------------

 Structure from the checkpoint file:  "/scratch/puck/g09_5dce52d0-ba77-4a74-b676-f28a3edfc0d0/Gau-81514.chk"
 -----
 titel
 -----
 Charge =  0 Multiplicity = 1

                         Standard orientation:
 ---------------------------------------------------------------------
 Center     Atomic      Atomic             Coordinates (Angstroms)
 Number     Number       Type             X           Y           Z
 ---------------------------------------------------------------------
      1          8           0       -0.964092    1.935355   -0.404130
      2          6           0       -0.354638    0.967112    0.416225
      3          6           0       -1.362448    0.100043    1.228782
      4          6           0       -1.269209   -0.972319    0.121156
      5          8           0       -2.324314   -0.728210   -0.804498
      6          6           0        0.073638   -0.330788   -0.345496
      7          6           0        1.323532   -1.029520    0.212977
      8          6           0        2.549812   -0.282237   -0.040625
      9          6           0        3.544708    0.354674   -0.262023
     10          1           0       -1.688506    1.490341   -0.863197
     11          1           0        0.433597    1.478762    0.973170
     12          1           0       -0.955160   -0.249448    2.180657
     13          1           0       -2.352601    0.529943    1.392834
     14          1           0       -1.245509   -2.028062    0.424004
     15          1           0       -2.132964   -1.217891   -1.612091
     16          1           0        0.170493   -0.197267   -1.427634
     17          1           0        1.212601   -1.185499    1.294486
     18          1           0        1.405638   -2.032917   -0.226040
     19          1           0        4.427289    0.913094   -0.453134
 ---------------------------------------------------------------------

 SCF Done:  E(RB3LYP) =  -423.128393433     A.U. after    1 cycles

 The electronic state is 1-A.
 Alpha  occ. eigenvalues --  -19.15510 -19.12620 -10.24117 -10.22916 -10.21588
 Alpha  occ. eigenvalues --  -10.19197 -10.18229 -10.18106 -10.17147  -1.03738
 Alpha  occ. eigenvalues --   -1.01005  -0.84170  -0.77727  -0.71153  -0.64961
 Alpha  occ. eigenvalues --   -0.64338  -0.56625  -0.53730  -0.51825  -0.50692
 Alpha  occ. eigenvalues --   -0.47068  -0.45401  -0.42869  -0.41742  -0.40733
 Alpha  occ. eigenvalues --   -0.39707  -0.36380  -0.35607  -0.33636  -0.31022
 Alpha  occ. eigenvalues --   -0.27291  -0.26657  -0.25947  -0.24899
 Alpha virt. eigenvalues --    0.04779   0.05400   0.06827   0.09377   0.09862
 Alpha virt. eigenvalues --    0.12164   0.12957   0.14084   0.14934   0.15095
 Alpha virt. eigenvalues --    0.16758   0.17664   0.19256   0.20498   0.22642

 Mulliken charges:
               1
     1  O   -0.443879
     2  C    0.152135
     3  C   -0.260391
     4  C    0.092552
     5  O   -0.440804
     6  C   -0.051078
     7  C   -0.387810
     8  C    0.301582
     9  C   -0.435085
    10  H    0.281223
    11  H    0.091615
    12  H    0.105688
    13  H    0.113053
    14  H    0.064091
    15  H    0.285016
    16  H    0.076621
    17  H    0.130101
    18  H    0.128175
    19  H    0.197197
 Sum of Mulliken charges =   0.00000

 Dipole moment (field-independent basis, Debye):
    X=              0.0392    Y=             -2.5033    Z=             -0.2808  Tot=              2.5193
 Quadrupole moment (field-independent basis, Debye-Ang):
   XX=            -54.2367   YY=            -55.2876   ZZ=            -49.5159
   XY=              3.3521   XZ=              1.2839   YZ=              1.9457

  Exact polarizability:  95.438   8.576  70.810  -2.637  -1.148  64.907
 Approx polarizability: 130.624  18.396 108.144  -3.988  -4.217  98.035

                      1                      2                      3
                      A                      A                      A
 Frequencies --     63.5167                96.8644               128.0644
 Red. masses --      3.6243                 4.6090                 4.0542
 Frc consts  --      0.0086                 0.0255                 0.0392
 IR Inten    --      0.1899                 0.2836                 0.7023

                      4                      5                      6
                      A                      A                      A
 Frequencies --    228.5101               248.4310               333.1301
 Red. masses --      3.2076                 4.5146                 2.1128
 Frc consts  --      0.0987                 0.1642                 0.1381
 IR Inten    --      2.5073                 2.8214                19.7504

                      7                      8                      9
                      A                      A                      A
 Frequencies --    346.9044               379.6013               388.8511
 Red. masses --      2.3127                 2.3336                 2.5235
 Frc consts  --      0.1640                 0.1981                 0.2248
 IR Inten    --     12.9555                29.1790                15.0878

                     10                     11                     12
                      A                      A                      A
 Frequencies --    406.8816               453.9350               517.3893
 Red. masses --      2.9495                 2.2213                 1.1494
 Frc consts  --      0.2877                 0.2697                 0.1813
 IR Inten    --     24.5101                 2.3784               103.8817

                     13                     14                     15
                      A                      A                      A
 Frequencies --    560.7956               624.2330               639.9070
 Red. masses --      3.8926                 1.2040                 1.2173
 Frc consts  --      0.7213                 0.2764                 0.2937
 IR Inten    --     16.2013                43.1948                44.4175

                     16                     17                     18
                      A                      A                      A
 Frequencies --    792.8646               815.0773               862.8021
 Red. masses --      2.2639                 2.7978                 2.5325
 Frc consts  --      0.8385                 1.0951                 1.1108
 IR Inten    --      7.1416                 5.3082                16.9503

                     19                     20                     21
                      A                      A                      A
 Frequencies --    891.8906               937.6463               977.0567
 Red. masses --      2.1180                 3.9032                 2.2466
 Frc consts  --      0.9926                 2.0219                 1.2636
 IR Inten    --      3.1240                 4.7687                14.8240

                     22                     23                     24
                      A                      A                      A
 Frequencies --    983.5135              1020.8289              1048.8352
 Red. masses --      2.1911                 2.1917                 2.5354
 Frc consts  --      1.2487                 1.3457                 1.6433
 IR Inten    --     21.2343                 8.3606                 4.3061

                     25                     26                     27
                      A                      A                      A
 Frequencies --   1068.5657              1127.2046              1139.6457
 Red. masses --      3.0554                 2.2067                 1.7749
 Frc consts  --      2.0555                 1.6520                 1.3582
 IR Inten    --      4.1609               110.4151                17.7487

                     28                     29                     30
                      A                      A                      A
 Frequencies --   1153.3194              1194.6923              1233.4223
 Red. masses --      1.2456                 1.2214                 1.3972
 Frc consts  --      0.9762                 1.0271                 1.2524
 IR Inten    --     27.9596                20.7113                13.3841

                     31                     32                     33
                      A                      A                      A
 Frequencies --   1251.2230              1261.7443              1299.5382
 Red. masses --      1.3491                 1.4525                 1.2816
 Frc consts  --      1.2444                 1.3624                 1.2752
 IR Inten    --     14.0793                10.3128                26.1823

                     34                     35                     36
                      A                      A                      A
 Frequencies --   1323.3372              1340.9174              1358.6028
 Red. masses --      1.4214                 1.4835                 1.5490
 Frc consts  --      1.4666                 1.5716                 1.6845
 IR Inten    --     21.3749                 7.5375                 9.8114

                     37                     38                     39
                      A                      A                      A
 Frequencies --   1408.9833              1453.9048              1463.6479
 Red. masses --      1.4375                 1.1777                 1.1419
 Frc consts  --      1.6814                 1.4668                 1.4413
 IR Inten    --      7.6442                62.5645                12.9271

                     40                     41                     42
                      A                      A                      A
 Frequencies --   1475.0371              2239.4519              3003.8655
 Red. masses --      1.1059                 5.9250                 1.0825
 Frc consts  --      1.4176                17.5075                 5.7548
 IR Inten    --     19.2511                 1.9092                38.0001

                     43                     44                     45
                      A                      A                      A
 Frequencies --   3012.2118              3037.3434              3062.8846
 Red. masses --      1.0617                 1.0984                 1.0884
 Frc consts  --      5.6757                 5.9702                 6.0156
 IR Inten    --     46.6136                 4.8103                30.3204

                     46                     47                     48
                      A                      A                      A
 Frequencies --   3069.3852              3090.1244              3130.0716
 Red. masses --      1.0610                 1.0876                 1.1075
 Frc consts  --      5.8892                 6.1191                 6.3929
 IR Inten    --     19.5186                29.1712                17.1862

                     49                     50                     51
                      A                      A                      A
 Frequencies --   3506.8473              3763.9353              3801.8241
 Red. masses --      1.1623                 1.0655                 1.0660
 Frc consts  --      8.4220                 8.8941                 9.0782
 IR Inten    --     67.7023                40.6383                19.0756

 - Thermochemistry -
 -------------------
 Temperature   298.150 Kelvin.  Pressure   1.00000 Atm.
 Atom     1 has atomic number  8 and mass  15.99491

 Molecular mass:   126.06808 amu.
 Principal axes and moments of inertia in atomic units:
                           1         2         3
     Eigenvalues --   627.765031730.688381991.45688
           X            0.99997   0.00633  -0.00405
           Y           -0.00632   0.99998   0.00273
           Z            0.00407  -0.00271   0.99999
 This molecule is an asymmetric top.
 Rotational symmetry number  1.
 Warning -- assumption of classical behavior for rotation
           may cause significant error
 Rotational temperatures (Kelvin)      0.13797     0.05005     0.04349
 Rotational constants (GHZ):           2.87487     1.04279     0.90624
 Zero-point vibrational energy     412826.9 (Joules/Mol)
                                   98.66799 (Kcal/Mol)
 Warning -- explicit consideration of  13 degrees of freedom as
           vibrations may cause significant error
 Vibrational temperatures:     91.39   139.37   184.26   328.77   357.44
          (Kelvin)            479.30   499.12   546.16   559.47   585.41
                              653.11   744.41   806.86   898.13   920.68
                             1140.75  1172.71  1241.38  1283.23  1349.06
                             1405.76  1415.05  1468.74  1509.04  1537.43
                             1621.79  1639.69  1659.37  1718.89  1774.62
                             1800.23  1815.37  1869.74  1903.98  1929.28
                             1954.72  2027.21  2091.84  2105.86  2122.25
                             3222.07  4321.89  4333.90  4370.05  4406.80
                             4416.16  4445.99  4503.47  5045.56  5415.46
                             5469.97

 Zero-point correction=                           0.157237 (Hartree/Particle)
 Thermal correction to Energy=                    0.166623
 Thermal correction to Enthalpy=                  0.167567
 Thermal correction to Gibbs Free Energy=         0.122956
 Sum of electronic and zero-point Energies=           -422.971156
 Sum of electronic and thermal Energies=              -422.961770
 Sum of electronic and thermal Enthalpies=            -422.960826
 Sum of electronic and thermal Free Energies=         -423.005438

                     E (Thermal)             CV                S
                      KCal/Mol        Cal/Mol-Kelvin    Cal/Mol-Kelvin
 Total                  104.558             35.604             93.893
 Electronic               0.000              0.000              0.000
 Translational            0.889              2.981             40.409
 Rotational               0.889              2.981             29.160
 Vibrational            102.780             29.642             24.324
 Vibration     1          0.597              1.972              4.345
 Vibration     2          0.603              1.951              3.516
 Vibration     3          0.611              1.925              2.975
 Vibration     4          0.651              1.798              1.891
 Vibration     5          0.662              1.765              1.742
 Vibration     6          0.715              1.609              1.245
 Vibration     7          0.725              1.582              1.180
 Vibration     8          0.750              1.514              1.041
 Vibration     9          0.757              1.494              1.005
 Vibration    10          0.772              1.455              0.938
 Vibration    11          0.812              1.352              0.784
 Vibration    12          0.872              1.211              0.616
 Vibration    13          0.916              1.116              0.522

 Normal termination of Gaussian 09 at Tue Jan 28 01:41:22 2020.
