 Gaussian 09, Revision D.01,
 Gaussian 09:  ES64L-G09RevD.01 24-Apr-2013

 -----------------------------
 # b3lyp 6-31G(2df,p) opt Freq
 -----------------------------

 -----
 titel
 -----
 Symbolic Z-matrix:
 Charge =  0 Multiplicity = 1

 SCF Done:  E(RB3LYP) =  -423.176056664     A.U. after   13 cycles
 Optimization completed.
    -- Stationary point found.
 Normal termination of Gaussian 09 at Mon Jan 27 16:10:20 2020.

 ----------------------------------------------------------------------
 #N Geom=AllCheck Guess=TCheck SCRF=Check GenChk RB3LYP/6-31G(2df,p) Fr
 eq
 ----------------------------------------------------------------------

 Structure from the checkpoint file:  "/scratch/puck/g09_21eafb57-c798-4f6d-9dd1-704c23b4c699/Gau-176509.chk"
 -----
 titel
 -----
 Charge =  0 Multiplicity = 1

                         Standard orientation:
 ---------------------------------------------------------------------
 Center     Atomic      Atomic             Coordinates (Angstroms)
 Number     Number       Type             X           Y           Z
 ---------------------------------------------------------------------
      1          6           0        0.748772   -1.676985   -0.931611
      2          6           0        0.836938   -0.485228   -0.013481
      3          8           0        2.151517   -0.224021    0.455647
      4          6           0       -0.173260   -0.142356    1.059515
      5          6           0       -1.595663   -0.688201    0.958150
      6          6           0       -2.136172   -0.057266   -0.311235
      7          6           0       -1.250389    0.759655   -0.886909
      8          6           0        0.030426    0.803874   -0.136090
      9          8           0        0.698665    2.019537   -0.092658
     10          1           0        1.053226   -2.589661   -0.407895
     11          1           0       -0.263946   -1.813940   -1.314275
     12          1           0        1.410244   -1.547250   -1.798463
     13          1           0        2.738015   -0.251937   -0.309611
     14          1           0        0.244535    0.102434    2.029592
     15          1           0       -1.621551   -1.785225    0.907793
     16          1           0       -2.196814   -0.410463    1.833670
     17          1           0       -3.120574   -0.288863   -0.701662
     18          1           0       -1.397514    1.329738   -1.796618
     19          1           0        1.589010    1.810076    0.223521
 ---------------------------------------------------------------------

 SCF Done:  E(RB3LYP) =  -423.176056664     A.U. after    1 cycles

 The electronic state is 1-A.
 Alpha  occ. eigenvalues --  -19.15760 -19.13310 -10.24042 -10.23071 -10.18870
 Alpha  occ. eigenvalues --  -10.18296 -10.18064 -10.17955 -10.17865  -1.04786
 Alpha  occ. eigenvalues --   -1.01274  -0.86914  -0.76577  -0.71682  -0.70168
 Alpha  occ. eigenvalues --   -0.60094  -0.55510  -0.54152  -0.51977  -0.48265
 Alpha  occ. eigenvalues --   -0.46987  -0.45537  -0.41239  -0.40450  -0.39589
 Alpha  occ. eigenvalues --   -0.37972  -0.36914  -0.36311  -0.35678  -0.34555
 Alpha  occ. eigenvalues --   -0.31538  -0.27710  -0.25139  -0.20723
 Alpha virt. eigenvalues --    0.01631   0.06102   0.09948   0.12621   0.13600
 Alpha virt. eigenvalues --    0.14040   0.14207   0.15732   0.16722   0.17629
 Alpha virt. eigenvalues --    0.18483   0.19048   0.19523   0.22552   0.23401

 Mulliken charges:
               1
     1  C   -0.478853
     2  C    0.325441
     3  O   -0.475973
     4  C   -0.181687
     5  C   -0.294311
     6  C   -0.075606
     7  C   -0.141146
     8  C    0.360165
     9  O   -0.487682
    10  H    0.125335
    11  H    0.136647
    12  H    0.107126
    13  H    0.285657
    14  H    0.096194
    15  H    0.109889
    16  H    0.113481
    17  H    0.096086
    18  H    0.100131
    19  H    0.279105
 Sum of Mulliken charges =   0.00000

 Dipole moment (field-independent basis, Debye):
    X=              0.4790    Y=             -1.7096    Z=             -0.9154  Tot=              1.9976
 Quadrupole moment (field-independent basis, Debye-Ang):
   XX=            -47.3972   YY=            -57.1862   ZZ=            -52.1365
   XY=              1.4328   XZ=             -2.7751   YZ=              0.6450

  Exact polarizability:  87.774   3.742  71.970  -2.699  -4.287  69.324
 Approx polarizability: 128.042  10.833 110.970  -6.166 -11.986 106.700

                      1                      2                      3
                      A                      A                      A
 Frequencies --    183.4226               209.3023               212.5047
 Red. masses --      2.8047                 1.5528                 1.8075
 Frc consts  --      0.0556                 0.0401                 0.0481
 IR Inten    --      0.5320                 0.5073                 0.5427

                      4                      5                      6
                      A                      A                      A
 Frequencies --    247.1512               278.0811               299.3295
 Red. masses --      2.5715                 3.2479                 1.2525
 Frc consts  --      0.0925                 0.1480                 0.0661
 IR Inten    --      7.2297                30.8374                77.0856

                      7                      8                      9
                      A                      A                      A
 Frequencies --    361.8648               393.1349               415.2270
 Red. masses --      3.0886                 3.3621                 2.7756
 Frc consts  --      0.2383                 0.3062                 0.2820
 IR Inten    --      2.7083                 4.3730                 9.7122

                     10                     11                     12
                      A                      A                      A
 Frequencies --    490.2108               537.3196               547.4464
 Red. masses --      2.6827                 1.0697                 3.6279
 Frc consts  --      0.3798                 0.1820                 0.6406
 IR Inten    --     15.2016                58.5949                 5.0604

                     13                     14                     15
                      A                      A                      A
 Frequencies --    641.1904               684.7058               729.9855
 Red. masses --      4.2565                 3.0951                 3.5118
 Frc consts  --      1.0310                 0.8549                 1.1026
 IR Inten    --      9.1669                 1.9067                 9.1256

                     16                     17                     18
                      A                      A                      A
 Frequencies --    753.4642               828.6303               889.6443
 Red. masses --      1.7193                 3.9095                 2.9629
 Frc consts  --      0.5751                 1.5816                 1.3817
 IR Inten    --     18.2412                15.8583                 6.1270

                     19                     20                     21
                      A                      A                      A
 Frequencies --    919.8594               943.6167               960.6648
 Red. masses --      2.5751                 1.5903                 1.3917
 Frc consts  --      1.2838                 0.8343                 0.7567
 IR Inten    --      7.2285                 0.6170                 1.7947

                     22                     23                     24
                      A                      A                      A
 Frequencies --    968.7313              1006.8927              1034.9200
 Red. masses --      1.7530                 1.8861                 1.8549
 Frc consts  --      0.9692                 1.1266                 1.1706
 IR Inten    --      7.5322                 4.5620                 1.2981

                     25                     26                     27
                      A                      A                      A
 Frequencies --   1083.8799              1107.4820              1121.9498
 Red. masses --      1.9503                 1.5614                 1.3067
 Frc consts  --      1.3499                 1.1283                 0.9691
 IR Inten    --      5.1571                21.8876                26.2913

                     28                     29                     30
                      A                      A                      A
 Frequencies --   1167.3533              1181.6386              1211.0943
 Red. masses --      1.4333                 1.6120                 2.2435
 Frc consts  --      1.1507                 1.3261                 1.9388
 IR Inten    --     17.0955                83.3427                40.2020

                     31                     32                     33
                      A                      A                      A
 Frequencies --   1277.3481              1299.5494              1310.4016
 Red. masses --      2.6154                 1.9320                 1.4709
 Frc consts  --      2.5142                 1.9224                 1.4881
 IR Inten    --     48.0110                64.2479                 8.5080

                     34                     35                     36
                      A                      A                      A
 Frequencies --   1351.3334              1410.0291              1433.7546
 Red. masses --      1.4046                 1.2895                 2.3114
 Frc consts  --      1.5112                 1.5106                 2.7995
 IR Inten    --    109.6693                11.7754                 8.8645

                     37                     38                     39
                      A                      A                      A
 Frequencies --   1444.9130              1472.7576              1492.7308
 Red. masses --      2.2440                 1.0953                 1.0526
 Frc consts  --      2.7602                 1.3997                 1.3819
 IR Inten    --     18.3527                 8.7027                 2.4135

                     40                     41                     42
                      A                      A                      A
 Frequencies --   1499.5207              1668.3977              3014.1387
 Red. masses --      1.1806                 6.3519                 1.0590
 Frc consts  --      1.5640                10.4172                 5.6686
 IR Inten    --      2.9945                 4.9031                44.0178

                     43                     44                     45
                      A                      A                      A
 Frequencies --   3019.4282              3039.4100              3080.4943
 Red. masses --      1.0440                 1.1017                 1.0962
 Frc consts  --      5.6081                 5.9965                 6.1287
 IR Inten    --     31.7124                22.5590                21.6494

                     46                     47                     48
                      A                      A                      A
 Frequencies --   3136.5930              3178.4239              3191.0301
 Red. masses --      1.0960                 1.0902                 1.0850
 Frc consts  --      6.3530                 6.4892                 6.5093
 IR Inten    --      9.4006                 5.6231                 4.3520

                     49                     50                     51
                      A                      A                      A
 Frequencies --   3215.6880              3738.9634              3787.4594
 Red. masses --      1.1038                 1.0642                 1.0658
 Frc consts  --      6.7250                 8.7653                 9.0079
 IR Inten    --     16.3587                51.1626                17.5422

 - Thermochemistry -
 -------------------
 Temperature   298.150 Kelvin.  Pressure   1.00000 Atm.
 Atom     1 has atomic number  6 and mass  12.00000

 Molecular mass:   126.06808 amu.
 Principal axes and moments of inertia in atomic units:
                           1         2         3
     Eigenvalues --   752.323941073.458381351.06325
           X            0.99976   0.00877  -0.01996
           Y           -0.00816   0.99950   0.03058
           Z            0.02021  -0.03041   0.99933
 This molecule is an asymmetric top.
 Rotational symmetry number  1.
 Warning -- assumption of classical behavior for rotation
           may cause significant error
 Rotational temperatures (Kelvin)      0.11513     0.08069     0.06411
 Rotational constants (GHZ):           2.39889     1.68124     1.33579
 Zero-point vibrational energy     415541.2 (Joules/Mol)
                                   99.31673 (Kcal/Mol)
 Warning -- explicit consideration of  12 degrees of freedom as
           vibrations may cause significant error
 Vibrational temperatures:    263.90   301.14   305.75   355.59   400.10
          (Kelvin)            430.67   520.64   565.63   597.42   705.30
                              773.08   787.65   922.53   985.14  1050.29
                             1084.07  1192.21  1280.00  1323.47  1357.65
                             1382.18  1393.79  1448.69  1489.02  1559.46
                             1593.42  1614.23  1679.56  1700.11  1742.49
                             1837.82  1869.76  1885.37  1944.26  2028.71
                             2062.85  2078.90  2118.97  2147.70  2157.47
                             2400.45  4336.67  4344.28  4373.03  4432.14
                             4512.85  4573.04  4591.17  4626.65  5379.53
                             5449.30

 Zero-point correction=                           0.158271 (Hartree/Particle)
 Thermal correction to Energy=                    0.166753
 Thermal correction to Enthalpy=                  0.167697
 Thermal correction to Gibbs Free Energy=         0.126127
 Sum of electronic and zero-point Energies=           -423.017785
 Sum of electronic and thermal Energies=              -423.009304
 Sum of electronic and thermal Enthalpies=            -423.008360
 Sum of electronic and thermal Free Energies=         -423.049930

                     E (Thermal)             CV                S
                      KCal/Mol        Cal/Mol-Kelvin    Cal/Mol-Kelvin
 Total                  104.639             34.186             87.492
 Electronic               0.000              0.000              0.000
 Translational            0.889              2.981             40.409
 Rotational               0.889              2.981             28.480
 Vibrational            102.862             28.224             18.603
 Vibration     1          0.631              1.862              2.293
 Vibration     2          0.642              1.827              2.050
 Vibration     3          0.644              1.822              2.022
 Vibration     4          0.661              1.767              1.751
 Vibration     5          0.679              1.714              1.545
 Vibration     6          0.692              1.675              1.421
 Vibration     7          0.736              1.551              1.114
 Vibration     8          0.760              1.485              0.988
 Vibration     9          0.779              1.437              0.908
 Vibration    10          0.846              1.272              0.683
 Vibration    11          0.892              1.168              0.571
 Vibration    12          0.903              1.145              0.549

 Normal termination of Gaussian 09 at Mon Jan 27 16:58:37 2020.
