 Gaussian 09, Revision D.01,
 Gaussian 09:  ES64L-G09RevD.01 24-Apr-2013

 -----------------------------
 # b3lyp 6-31G(2df,p) opt Freq
 -----------------------------

 -----
 titel
 -----
 Symbolic Z-matrix:
 Charge =  0 Multiplicity = 1

 SCF Done:  E(RB3LYP) =  -423.209335540     A.U. after   14 cycles
 Optimization completed.
    -- Stationary point found.
 Normal termination of Gaussian 09 at Tue Jan 28 00:44:56 2020.

 ----------------------------------------------------------------------
 #N Geom=AllCheck Guess=TCheck SCRF=Check GenChk RB3LYP/6-31G(2df,p) Fr
 eq
 ----------------------------------------------------------------------

 Structure from the checkpoint file:  "/scratch/puck/g09_bced0170-577d-4c6e-b219-28897e13f7f5/Gau-81643.chk"
 -----
 titel
 -----
 Charge =  0 Multiplicity = 1

                         Standard orientation:
 ---------------------------------------------------------------------
 Center     Atomic      Atomic             Coordinates (Angstroms)
 Number     Number       Type             X           Y           Z
 ---------------------------------------------------------------------
      1          6           0        2.461742   -1.316587   -0.251114
      2          6           0        1.185648   -0.640493    0.136496
      3          6           0       -0.023302   -1.189316    0.286774
      4          6           0       -1.099102   -0.190089    0.660989
      5          6           0       -0.281976    1.104407    0.928262
      6          6           0        1.135435    0.861077    0.348771
      7          8           0        1.408749    1.571061   -0.860070
      8          6           0       -2.073506   -0.028928   -0.495511
      9          8           0       -3.218492   -0.393077   -0.501606
     10          1           0        3.201522   -1.247407    0.556509
     11          1           0        2.311270   -2.373041   -0.486853
     12          1           0        2.905185   -0.820872   -1.121819
     13          1           0       -0.253068   -2.239604    0.139000
     14          1           0       -1.682679   -0.512427    1.528918
     15          1           0       -0.725094    2.000161    0.482633
     16          1           0       -0.228489    1.274342    2.006638
     17          1           0        1.914431    1.210547    1.035003
     18          1           0        0.824170    1.221042   -1.542667
     19          1           0       -1.618938    0.462953   -1.391966
 ---------------------------------------------------------------------

 SCF Done:  E(RB3LYP) =  -423.209335540     A.U. after    1 cycles

 The electronic state is 1-A.
 Alpha  occ. eigenvalues --  -19.14351 -19.14293 -10.27414 -10.24083 -10.20437
 Alpha  occ. eigenvalues --  -10.19981 -10.19576 -10.19415 -10.19067  -1.05101
 Alpha  occ. eigenvalues --   -1.02387  -0.85638  -0.76915  -0.71798  -0.68412
 Alpha  occ. eigenvalues --   -0.61913  -0.57770  -0.54966  -0.50007  -0.47992
 Alpha  occ. eigenvalues --   -0.46258  -0.44903  -0.43721  -0.41819  -0.41525
 Alpha  occ. eigenvalues --   -0.40168  -0.38154  -0.37514  -0.36511  -0.34741
 Alpha  occ. eigenvalues --   -0.32856  -0.27618  -0.27203  -0.24403
 Alpha virt. eigenvalues --   -0.03225   0.01743   0.06113   0.09259   0.10993
 Alpha virt. eigenvalues --    0.12466   0.13273   0.14844   0.15652   0.16567
 Alpha virt. eigenvalues --    0.17532   0.18631   0.19215   0.21080   0.22374

 Mulliken charges:
               1
     1  C   -0.494785
     2  C    0.296320
     3  C   -0.200546
     4  C   -0.112985
     5  C   -0.287358
     6  C    0.050061
     7  O   -0.429544
     8  C    0.167735
     9  O   -0.245318
    10  H    0.132219
    11  H    0.125523
    12  H    0.141615
    13  H    0.106728
    14  H    0.097674
    15  H    0.115616
    16  H    0.118590
    17  H    0.089423
    18  H    0.274343
    19  H    0.054688
 Sum of Mulliken charges =   0.00000

 Dipole moment (field-independent basis, Debye):
    X=              2.0151    Y=             -0.6221    Z=              0.6393  Tot=              2.2037
 Quadrupole moment (field-independent basis, Debye-Ang):
   XX=            -65.0543   YY=            -54.3299   ZZ=            -50.7507
   XY=             -5.1774   XZ=             -0.4707   YZ=              1.1723

  Exact polarizability: 101.267   3.104  72.495  -1.608  -0.154  64.572
 Approx polarizability: 150.581  15.727 107.202  -3.079  -3.526  98.773

                      1                      2                      3
                      A                      A                      A
 Frequencies --     48.7010                66.2965               130.6615
 Red. masses --      4.6692                 5.1749                 2.4873
 Frc consts  --      0.0065                 0.0134                 0.0250
 IR Inten    --      3.2227                 5.4126                 0.5143

                      4                      5                      6
                      A                      A                      A
 Frequencies --    174.2631               231.1841               291.0439
 Red. masses --      1.0976                 2.9346                 2.5482
 Frc consts  --      0.0196                 0.0924                 0.1272
 IR Inten    --      0.1690                 0.7145                 6.2444

                      7                      8                      9
                      A                      A                      A
 Frequencies --    323.9284               347.7823               379.8969
 Red. masses --      1.6505                 1.3207                 2.7795
 Frc consts  --      0.1020                 0.0941                 0.2363
 IR Inten    --     20.6654                48.2275                 5.6095

                     10                     11                     12
                      A                      A                      A
 Frequencies --    406.6307               450.3976               591.0020
 Red. masses --      3.2943                 4.6886                 3.9515
 Frc consts  --      0.3209                 0.5604                 0.8132
 IR Inten    --     16.8384                14.5476                 2.1019

                     13                     14                     15
                      A                      A                      A
 Frequencies --    625.2864               777.7610               782.7716
 Red. masses --      3.2440                 5.0595                 2.4526
 Frc consts  --      0.7473                 1.8032                 0.8854
 IR Inten    --      1.7892                 0.6710                 6.4952

                     16                     17                     18
                      A                      A                      A
 Frequencies --    863.0478               887.1363               936.0157
 Red. masses --      1.6130                 1.8726                 2.1688
 Frc consts  --      0.7079                 0.8683                 1.1196
 IR Inten    --      1.9465                46.4397                 5.6029

                     19                     20                     21
                      A                      A                      A
 Frequencies --    955.3561               991.8271              1009.8044
 Red. masses --      2.5577                 2.6344                 1.7666
 Frc consts  --      1.3754                 1.5269                 1.0614
 IR Inten    --      5.3509                25.9537                23.3933

                     22                     23                     24
                      A                      A                      A
 Frequencies --   1048.1685              1064.1346              1077.2270
 Red. masses --      1.7698                 1.6767                 2.1860
 Frc consts  --      1.1456                 1.1187                 1.4946
 IR Inten    --     13.3452                 1.3250                 3.0497

                     25                     26                     27
                      A                      A                      A
 Frequencies --   1098.8129              1168.4630              1200.8266
 Red. masses --      2.7203                 1.6854                 1.2653
 Frc consts  --      1.9351                 1.3558                 1.0750
 IR Inten    --     55.8497                 4.3999                33.8020

                     28                     29                     30
                      A                      A                      A
 Frequencies --   1251.9182              1272.2097              1280.2829
 Red. masses --      1.4946                 1.4207                 1.6834
 Frc consts  --      1.3802                 1.3548                 1.6258
 IR Inten    --      5.0258                 1.3239                 0.9830

                     31                     32                     33
                      A                      A                      A
 Frequencies --   1296.5191              1314.2603              1357.1368
 Red. masses --      1.5132                 1.3877                 1.8262
 Frc consts  --      1.4987                 1.4123                 1.9817
 IR Inten    --      3.3754                 0.5911                 1.0343

                     34                     35                     36
                      A                      A                      A
 Frequencies --   1407.9396              1419.3636              1430.1974
 Red. masses --      1.2896                 1.1821                 1.2015
 Frc consts  --      1.5062                 1.4031                 1.4480
 IR Inten    --      2.6260                 2.9452                53.2103

                     37                     38                     39
                      A                      A                      A
 Frequencies --   1475.0011              1476.9479              1489.1788
 Red. masses --      1.0462                 1.0856                 1.0611
 Frc consts  --      1.3411                 1.3953                 1.3864
 IR Inten    --      7.0909                 5.1915                 9.1497

                     40                     41                     42
                      A                      A                      A
 Frequencies --   1710.3747              1837.0761              2813.8137
 Red. masses --      7.1715                10.7280                 1.0806
 Frc consts  --     12.3606                21.3315                 5.0407
 IR Inten    --      0.7593               245.7621               107.6964

                     43                     44                     45
                      A                      A                      A
 Frequencies --   3025.4675              3050.6420              3059.7892
 Red. masses --      1.0391                 1.0795                 1.0754
 Frc consts  --      5.6037                 5.9191                 5.9320
 IR Inten    --     20.2175                21.7192                25.1103

                     46                     47                     48
                      A                      A                      A
 Frequencies --   3067.3731              3078.9558              3106.5398
 Red. masses --      1.0762                 1.0957                 1.1037
 Frc consts  --      5.9661                 6.1200                 6.2758
 IR Inten    --     21.0855                11.7015                15.5127

                     49                     50                     51
                      A                      A                      A
 Frequencies --   3119.0543              3186.5273              3785.8907
 Red. masses --      1.1011                 1.0935                 1.0660
 Frc consts  --      6.3111                 6.5418                 9.0021
 IR Inten    --     15.3259                11.0503                 8.3876

 - Thermochemistry -
 -------------------
 Temperature   298.150 Kelvin.  Pressure   1.00000 Atm.
 Atom     1 has atomic number  6 and mass  12.00000

 Molecular mass:   126.06808 amu.
 Principal axes and moments of inertia in atomic units:
                           1         2         3
     Eigenvalues --   650.239821628.066671909.70071
           X            0.99936  -0.03457  -0.00930
           Y            0.03485   0.99886   0.03270
           Z            0.00816  -0.03300   0.99942
 This molecule is an asymmetric top.
 Rotational symmetry number  1.
 Warning -- assumption of classical behavior for rotation
           may cause significant error
 Rotational temperatures (Kelvin)      0.13320     0.05320     0.04535
 Rotational constants (GHZ):           2.77550     1.10852     0.94504
 Zero-point vibrational energy     414152.5 (Joules/Mol)
                                   98.98482 (Kcal/Mol)
 Warning -- explicit consideration of  12 degrees of freedom as
           vibrations may cause significant error
 Vibrational temperatures:     70.07    95.39   187.99   250.73   332.62
          (Kelvin)            418.75   466.06   500.38   546.59   585.05
                              648.02   850.32   899.65  1119.02  1126.23
                             1241.73  1276.39  1346.72  1374.54  1427.02
                             1452.88  1508.08  1531.05  1549.89  1580.94
                             1681.16  1727.72  1801.23  1830.42  1842.04
                             1865.40  1890.93  1952.61  2025.71  2042.15
                             2057.73  2122.19  2125.00  2142.59  2460.84
                             2643.14  4048.45  4352.97  4389.19  4402.35
                             4413.26  4429.93  4469.61  4487.62  4584.70
                             5447.05

 Zero-point correction=                           0.157742 (Hartree/Particle)
 Thermal correction to Energy=                    0.167108
 Thermal correction to Enthalpy=                  0.168053
 Thermal correction to Gibbs Free Energy=         0.122812
 Sum of electronic and zero-point Energies=           -423.051593
 Sum of electronic and thermal Energies=              -423.042227
 Sum of electronic and thermal Enthalpies=            -423.041283
 Sum of electronic and thermal Free Energies=         -423.086523

                     E (Thermal)             CV                S
                      KCal/Mol        Cal/Mol-Kelvin    Cal/Mol-Kelvin
 Total                  104.862             33.984             95.216
 Electronic               0.000              0.000              0.000
 Translational            0.889              2.981             40.409
 Rotational               0.889              2.981             29.093
 Vibrational            103.085             28.022             25.714
 Vibration     1          0.595              1.978              4.869
 Vibration     2          0.598              1.970              4.260
 Vibration     3          0.612              1.923              2.936
 Vibration     4          0.627              1.874              2.389
 Vibration     5          0.653              1.793              1.870
 Vibration     6          0.687              1.690              1.468
 Vibration     7          0.708              1.628              1.290
 Vibration     8          0.725              1.580              1.176
 Vibration     9          0.750              1.513              1.040
 Vibration    10          0.771              1.456              0.939
 Vibration    11          0.809              1.360              0.795
 Vibration    12          0.948              1.051              0.465

 Optimization completed.
    -- Stationary point found.
 Normal termination of Gaussian 09 at Tue Jan 28 01:26:39 2020.
