 Gaussian 09, Revision D.01,
 Gaussian 09:  ES64L-G09RevD.01 24-Apr-2013

 -----------------------------
 # b3lyp 6-31G(2df,p) opt Freq
 -----------------------------

 -----
 titel
 -----
 Symbolic Z-matrix:
 Charge =  0 Multiplicity = 1

 SCF Done:  E(RB3LYP) =  -423.210147318     A.U. after   14 cycles
 Optimization completed.
    -- Stationary point found.
 Normal termination of Gaussian 09 at Mon Jan 27 22:03:29 2020.

 ----------------------------------------------------------------------
 #N Geom=AllCheck Guess=TCheck SCRF=Check GenChk RB3LYP/6-31G(2df,p) Fr
 eq
 ----------------------------------------------------------------------

 Structure from the checkpoint file:  "/scratch/puck/g09_2d0bf6dd-1c4c-42e4-850d-f711685ea029/Gau-72656.chk"
 -----
 titel
 -----
 Charge =  0 Multiplicity = 1

                         Standard orientation:
 ---------------------------------------------------------------------
 Center     Atomic      Atomic             Coordinates (Angstroms)
 Number     Number       Type             X           Y           Z
 ---------------------------------------------------------------------
      1          6           0        0.204280    2.392362   -0.578258
      2          6           0        0.125318    1.011260    0.054507
      3          6           0        1.363397    0.064026   -0.100726
      4          6           0        2.285734   -0.202227    1.082750
      5          6           0        0.401029   -1.050952   -0.522064
      6          8           0        0.487796   -2.236251   -0.639795
      7          6           0       -0.789861   -0.043785   -0.626022
      8          6           0       -2.057876   -0.466172    0.066911
      9          8           0       -2.437456   -0.013230    1.117540
     10          1           0        0.967021    3.007295   -0.088996
     11          1           0        0.460643    2.327934   -1.642393
     12          1           0       -0.751269    2.919830   -0.494045
     13          1           0       -0.163104    1.089410    1.107064
     14          1           0        1.951877    0.354174   -0.983242
     15          1           0        2.868062    0.690342    1.332064
     16          1           0        1.713549   -0.492474    1.969451
     17          1           0        2.983925   -1.012263    0.852890
     18          1           0       -1.003414    0.154491   -1.684666
     19          1           0       -2.622143   -1.269954   -0.452675
 ---------------------------------------------------------------------

 SCF Done:  E(RB3LYP) =  -423.210147318     A.U. after    1 cycles

 The electronic state is 1-A.
 Alpha  occ. eigenvalues --  -19.15202 -19.14725 -10.28387 -10.27951 -10.20764
 Alpha  occ. eigenvalues --  -10.20608 -10.20410 -10.19004 -10.18834  -1.06186
 Alpha  occ. eigenvalues --   -1.05312  -0.86726  -0.75676  -0.73503  -0.67494
 Alpha  occ. eigenvalues --   -0.60065  -0.57670  -0.53050  -0.49709  -0.47031
 Alpha  occ. eigenvalues --   -0.46840  -0.45397  -0.43207  -0.42262  -0.41337
 Alpha  occ. eigenvalues --   -0.40225  -0.39263  -0.38161  -0.37580  -0.34775
 Alpha  occ. eigenvalues --   -0.33685  -0.32299  -0.26887  -0.24507
 Alpha virt. eigenvalues --   -0.03847  -0.02065   0.08108   0.10370   0.11740
 Alpha virt. eigenvalues --    0.12238   0.13566   0.14015   0.14548   0.16171
 Alpha virt. eigenvalues --    0.16696   0.17769   0.17894   0.18969   0.21358

 Mulliken charges:
               1
     1  C   -0.419628
     2  C    0.003227
     3  C   -0.107710
     4  C   -0.411016
     5  C    0.379864
     6  O   -0.289659
     7  C   -0.238920
     8  C    0.146052
     9  O   -0.241746
    10  H    0.123298
    11  H    0.112438
    12  H    0.130014
    13  H    0.106329
    14  H    0.103430
    15  H    0.124039
    16  H    0.129600
    17  H    0.137319
    18  H    0.117258
    19  H    0.095813
 Sum of Mulliken charges =   0.00000

 Dipole moment (field-independent basis, Debye):
    X=              1.3965    Y=              2.0461    Z=             -1.5415  Tot=              2.9177
 Quadrupole moment (field-independent basis, Debye-Ang):
   XX=            -54.7883   YY=            -58.7669   ZZ=            -53.6214
   XY=              2.8253   XZ=              5.5007   YZ=             -1.9657

  Exact polarizability:  86.603   0.800  79.765   0.642   2.846  67.263
 Approx polarizability: 118.308  -3.609 118.655  -6.807   9.722 109.107

                      1                      2                      3
                      A                      A                      A
 Frequencies --     38.4237                85.1677               162.0085
 Red. masses --      4.1179                 6.0849                 3.7495
 Frc consts  --      0.0036                 0.0260                 0.0580
 IR Inten    --      0.9240                 6.9650                 5.3101

                      4                      5                      6
                      A                      A                      A
 Frequencies --    178.0451               187.5628               206.1309
 Red. masses --      1.9348                 1.4180                 2.1428
 Frc consts  --      0.0361                 0.0294                 0.0536
 IR Inten    --      1.0740                 0.3540                 1.0022

                      7                      8                      9
                      A                      A                      A
 Frequencies --    223.9120               263.0717               301.6992
 Red. masses --      1.0839                 3.4516                 2.8337
 Frc consts  --      0.0320                 0.1407                 0.1520
 IR Inten    --      0.1116                 3.0751                 3.3653

                     10                     11                     12
                      A                      A                      A
 Frequencies --    410.8932               526.6401               541.2004
 Red. masses --      3.0554                 4.2196                 3.3943
 Frc consts  --      0.3039                 0.6895                 0.5858
 IR Inten    --      1.2986                 0.7002                 2.0692

                     13                     14                     15
                      A                      A                      A
 Frequencies --    623.0046               672.7859               793.0626
 Red. masses --      4.7938                 3.7993                 2.6138
 Frc consts  --      1.0963                 1.0132                 0.9686
 IR Inten    --      7.2386                28.2081                 7.6283

                     16                     17                     18
                      A                      A                      A
 Frequencies --    817.9043               850.1710               934.4957
 Red. masses --      2.4317                 2.1909                 1.3906
 Frc consts  --      0.9584                 0.9330                 0.7155
 IR Inten    --      7.1246                 0.3462                17.2352

                     19                     20                     21
                      A                      A                      A
 Frequencies --    971.2288               987.5203              1009.4021
 Red. masses --      1.5838                 1.4184                 2.0550
 Frc consts  --      0.8802                 0.8149                 1.2337
 IR Inten    --      4.7401                 7.5469                72.6125

                     22                     23                     24
                      A                      A                      A
 Frequencies --   1074.6604              1100.2666              1122.7808
 Red. masses --      2.3272                 2.4647                 2.0276
 Frc consts  --      1.5835                 1.7580                 1.5060
 IR Inten    --     26.3094                 4.7315                31.5935

                     25                     26                     27
                      A                      A                      A
 Frequencies --   1132.8049              1153.4385              1156.5761
 Red. masses --      2.0260                 1.6182                 2.2198
 Frc consts  --      1.5318                 1.2685                 1.7495
 IR Inten    --      2.1310                49.2031                 6.4533

                     28                     29                     30
                      A                      A                      A
 Frequencies --   1228.1295              1243.1671              1298.6837
 Red. masses --      1.5869                 1.4227                 1.6353
 Frc consts  --      1.4102                 1.2954                 1.6250
 IR Inten    --      7.3319                 3.2974                33.9087

                     31                     32                     33
                      A                      A                      A
 Frequencies --   1324.7964              1395.0004              1406.1830
 Red. masses --      1.6329                 1.6325                 1.2190
 Frc consts  --      1.6885                 1.8717                 1.4201
 IR Inten    --      2.1903                10.3407                 2.7403

                     34                     35                     36
                      A                      A                      A
 Frequencies --   1413.9666              1420.3677              1493.2530
 Red. masses --      1.2603                 1.1973                 1.0463
 Frc consts  --      1.4845                 1.4231                 1.3747
 IR Inten    --      1.5804                 8.0951                 5.5173

                     37                     38                     39
                      A                      A                      A
 Frequencies --   1493.7944              1495.1945              1499.4171
 Red. masses --      1.0468                 1.0498                 1.0426
 Frc consts  --      1.3763                 1.3828                 1.3811
 IR Inten    --      3.7461                 2.9436                 6.9200

                     40                     41                     42
                      A                      A                      A
 Frequencies --   1810.6795              1887.5814              2904.6704
 Red. masses --     10.0796                12.8485                 1.0841
 Frc consts  --     19.4705                26.9721                 5.3890
 IR Inten    --    224.2259               211.8914               112.7848

                     43                     44                     45
                      A                      A                      A
 Frequencies --   3010.2875              3025.9449              3037.2570
 Red. masses --      1.0812                 1.0371                 1.0818
 Frc consts  --      5.7727                 5.5951                 5.8797
 IR Inten    --      7.5247                24.2855                 6.4062

                     46                     47                     48
                      A                      A                      A
 Frequencies --   3038.2849              3069.8207              3094.9479
 Red. masses --      1.0354                 1.0855                 1.0985
 Frc consts  --      5.6312                 6.0272                 6.1998
 IR Inten    --     17.1819                 2.8005                30.4749

                     49                     50                     51
                      A                      A                      A
 Frequencies --   3102.7514              3108.2371              3115.5726
 Red. masses --      1.1013                 1.1021                 1.1015
 Frc consts  --      6.2466                 6.2734                 6.2998
 IR Inten    --     15.4143                19.5639                16.1911

 - Thermochemistry -
 -------------------
 Temperature   298.150 Kelvin.  Pressure   1.00000 Atm.
 Atom     1 has atomic number  6 and mass  12.00000

 Molecular mass:   126.06808 amu.
 Principal axes and moments of inertia in atomic units:
                           1         2         3
     Eigenvalues --   969.751441234.587361727.13653
           X            0.99723   0.05816   0.04630
           Y           -0.05649   0.99773  -0.03652
           Z           -0.04832   0.03381   0.99826
 This molecule is an asymmetric top.
 Rotational symmetry number  1.
 Warning -- assumption of classical behavior for rotation
           may cause significant error
 Rotational temperatures (Kelvin)      0.08932     0.07016     0.05015
 Rotational constants (GHZ):           1.86103     1.46182     1.04493
 Zero-point vibrational energy     409379.1 (Joules/Mol)
                                   97.84396 (Kcal/Mol)
 Warning -- explicit consideration of  12 degrees of freedom as
           vibrations may cause significant error
 Vibrational temperatures:     55.28   122.54   233.09   256.17   269.86
          (Kelvin)            296.58   322.16   378.50   434.08   591.18
                              757.72   778.67   896.36   967.99  1141.04
                             1176.78  1223.20  1344.53  1397.38  1420.82
                             1452.30  1546.19  1583.04  1615.43  1629.85
                             1659.54  1664.05  1767.00  1788.64  1868.51
                             1906.08  2007.09  2023.18  2034.38  2043.59
                             2148.46  2149.23  2151.25  2157.32  2605.16
                             2715.81  4179.17  4331.13  4353.65  4369.93
                             4371.41  4416.78  4452.93  4464.16  4472.05
                             4482.61

 Zero-point correction=                           0.155924 (Hartree/Particle)
 Thermal correction to Energy=                    0.165732
 Thermal correction to Enthalpy=                  0.166676
 Thermal correction to Gibbs Free Energy=         0.120482
 Sum of electronic and zero-point Energies=           -423.054223
 Sum of electronic and thermal Energies=              -423.044415
 Sum of electronic and thermal Enthalpies=            -423.043471
 Sum of electronic and thermal Free Energies=         -423.089665

                     E (Thermal)             CV                S
                      KCal/Mol        Cal/Mol-Kelvin    Cal/Mol-Kelvin
 Total                  103.999             34.684             97.224
 Electronic               0.000              0.000              0.000
 Translational            0.889              2.981             40.409
 Rotational               0.889              2.981             29.115
 Vibrational            102.221             28.722             27.700
 Vibration     1          0.594              1.982              5.339
 Vibration     2          0.601              1.959              3.768
 Vibration     3          0.622              1.889              2.526
 Vibration     4          0.628              1.869              2.349
 Vibration     5          0.632              1.857              2.252
 Vibration     6          0.641              1.831              2.078
 Vibration     7          0.649              1.805              1.927
 Vibration     8          0.670              1.741              1.641
 Vibration     9          0.694              1.670              1.407
 Vibration    10          0.775              1.447              0.923
 Vibration    11          0.882              1.191              0.595
 Vibration    12          0.896              1.159              0.563

 Normal termination of Gaussian 09 at Mon Jan 27 22:45:22 2020.
