 Gaussian 09, Revision D.01,
 Gaussian 09:  ES64L-G09RevD.01 24-Apr-2013

 -----------------------------
 # b3lyp 6-31G(2df,p) opt Freq
 -----------------------------

 -----
 titel
 -----
 Symbolic Z-matrix:
 Charge =  0 Multiplicity = 1

 SCF Done:  E(RB3LYP) =  -423.155195207     A.U. after   14 cycles
 Optimization completed.
    -- Stationary point found.
 Normal termination of Gaussian 09 at Mon Jan 27 22:55:45 2020.

 ----------------------------------------------------------------------
 #N Geom=AllCheck Guess=TCheck SCRF=Check GenChk RB3LYP/6-31G(2df,p) Fr
 eq
 ----------------------------------------------------------------------

 Structure from the checkpoint file:  "/scratch/puck/g09_d954a5fb-c7b5-445a-80f9-58044f9fcf49/Gau-183369.chk"
 -----
 titel
 -----
 Charge =  0 Multiplicity = 1

                         Standard orientation:
 ---------------------------------------------------------------------
 Center     Atomic      Atomic             Coordinates (Angstroms)
 Number     Number       Type             X           Y           Z
 ---------------------------------------------------------------------
      1          6           0        0.921553    1.923746    0.200992
      2          6           0        0.733526    0.413009    0.046314
      3          6           0        0.312788   -0.444002    1.286767
      4          6           0       -0.909278   -0.955687    0.517981
      5          6           0       -1.784845    0.188291    0.127285
      6          8           0       -2.991671   -0.202799   -0.458283
      7          6           0       -0.539242   -0.081517   -0.686809
      8          6           0        1.942348   -0.170596   -0.663837
      9          8           0        2.572913   -1.135605   -0.318053
     10          1           0        1.143733    2.393723   -0.764261
     11          1           0        0.020417    2.396168    0.600113
     12          1           0        1.749024    2.149725    0.882478
     13          1           0        1.056905   -1.214406    1.492530
     14          1           0        0.098643    0.117466    2.201685
     15          1           0       -1.296389   -1.966394    0.521932
     16          1           0       -1.851860    1.068109    0.771728
     17          1           0       -3.225936    0.449800   -1.126494
     18          1           0       -0.617945   -0.306905   -1.745027
     19          1           0        2.212373    0.380481   -1.596160
 ---------------------------------------------------------------------

 SCF Done:  E(RB3LYP) =  -423.155195207     A.U. after    1 cycles

 The electronic state is 1-A.
 Alpha  occ. eigenvalues --  -19.15015 -19.14268 -10.26999 -10.24236 -10.21026
 Alpha  occ. eigenvalues --  -10.19985 -10.19457 -10.18897 -10.18607  -1.04955
 Alpha  occ. eigenvalues --   -1.03640  -0.89837  -0.77595  -0.69986  -0.66191
 Alpha  occ. eigenvalues --   -0.60397  -0.58127  -0.53220  -0.52504  -0.48053
 Alpha  occ. eigenvalues --   -0.47487  -0.45996  -0.44001  -0.41733  -0.40952
 Alpha  occ. eigenvalues --   -0.39880  -0.38393  -0.36666  -0.33625  -0.32554
 Alpha  occ. eigenvalues --   -0.31488  -0.27791  -0.26128  -0.24629
 Alpha virt. eigenvalues --   -0.02313   0.07074   0.09034   0.10802   0.11301
 Alpha virt. eigenvalues --    0.11809   0.13838   0.14546   0.15410   0.16015
 Alpha virt. eigenvalues --    0.17623   0.19293   0.19902   0.21099   0.21304

 Mulliken charges:
               1
     1  C   -0.470315
     2  C    0.201179
     3  C   -0.309653
     4  C   -0.047419
     5  C    0.085550
     6  O   -0.431832
     7  C   -0.143418
     8  C    0.124645
     9  O   -0.248184
    10  H    0.119592
    11  H    0.124820
    12  H    0.128314
    13  H    0.137440
    14  H    0.094851
    15  H    0.102525
    16  H    0.080836
    17  H    0.288502
    18  H    0.089078
    19  H    0.073489
 Sum of Mulliken charges =   0.00000

 Dipole moment (field-independent basis, Debye):
    X=             -1.1437    Y=              2.7746    Z=             -0.8343  Tot=              3.1149
 Quadrupole moment (field-independent basis, Debye-Ang):
   XX=            -60.7229   YY=            -53.8716   ZZ=            -50.1381
   XY=              1.2351   XZ=              2.5162   YZ=             -1.4669

  Exact polarizability:  86.404  -1.045  72.677  -0.124  -3.706  70.027
 Approx polarizability: 119.517  -7.017 111.593   0.735  -8.579 107.950

                      1                      2                      3
                      A                      A                      A
 Frequencies --     76.4978               157.5566               185.5443
 Red. masses --      6.7390                 3.0257                 3.1122
 Frc consts  --      0.0232                 0.0443                 0.0631
 IR Inten    --      4.0116                 0.6639                 0.9308

                      4                      5                      6
                      A                      A                      A
 Frequencies --    203.1371               253.4830               307.0204
 Red. masses --      1.0527                 2.7591                 2.1605
 Frc consts  --      0.0256                 0.1045                 0.1200
 IR Inten    --      0.4167                 0.6613                40.8117

                      7                      8                      9
                      A                      A                      A
 Frequencies --    317.1005               326.5723               375.5698
 Red. masses --      1.3396                 2.5837                 2.8169
 Frc consts  --      0.0794                 0.1623                 0.2341
 IR Inten    --     69.0466                11.1752                 5.8309

                     10                     11                     12
                      A                      A                      A
 Frequencies --    388.3356               475.1882               600.3556
 Red. masses --      2.8780                 3.6369                 3.8949
 Frc consts  --      0.2557                 0.4839                 0.8271
 IR Inten    --      1.6715                 6.7556                 3.8831

                     13                     14                     15
                      A                      A                      A
 Frequencies --    682.0685               797.5968               827.3304
 Red. masses --      4.0267                 2.9221                 1.7047
 Frc consts  --      1.1037                 1.0952                 0.6875
 IR Inten    --      6.9782                 5.6396                 7.3311

                     16                     17                     18
                      A                      A                      A
 Frequencies --    849.5581               883.9453               910.4095
 Red. masses --      2.3843                 2.6011                 1.9659
 Frc consts  --      1.0139                 1.1974                 0.9600
 IR Inten    --     22.8168                 6.2795                11.6041

                     19                     20                     21
                      A                      A                      A
 Frequencies --    928.5860               982.2882              1007.4812
 Red. masses --      1.7335                 1.6891                 1.9485
 Frc consts  --      0.8807                 0.9602                 1.1652
 IR Inten    --     22.9445                 5.6129                 1.5230

                     22                     23                     24
                      A                      A                      A
 Frequencies --   1015.9382              1024.2729              1081.1018
 Red. masses --      1.4264                 1.5939                 1.2267
 Frc consts  --      0.8674                 0.9852                 0.8447
 IR Inten    --      1.1766                 4.6688                 7.8498

                     25                     26                     27
                      A                      A                      A
 Frequencies --   1123.8634              1137.7876              1163.6350
 Red. masses --      2.0821                 1.6177                 3.0995
 Frc consts  --      1.5495                 1.2338                 2.4727
 IR Inten    --     44.7754                10.1175                22.1133

                     28                     29                     30
                      A                      A                      A
 Frequencies --   1170.1425              1214.6910              1230.9753
 Red. masses --      2.1883                 2.2593                 2.0361
 Frc consts  --      1.7654                 1.9641                 1.8178
 IR Inten    --      0.7979                34.7766                 5.6115

                     31                     32                     33
                      A                      A                      A
 Frequencies --   1258.2312              1275.5518              1302.5737
 Red. masses --      1.7668                 1.8862                 1.3208
 Frc consts  --      1.6480                 1.8082                 1.3204
 IR Inten    --      7.8398                 4.4743                78.4393

                     34                     35                     36
                      A                      A                      A
 Frequencies --   1322.9046              1404.9538              1425.4725
 Red. masses --      1.5895                 1.2352                 1.2034
 Frc consts  --      1.6389                 1.4365                 1.4407
 IR Inten    --      2.6198                 4.2427                 3.2142

                     37                     38                     39
                      A                      A                      A
 Frequencies --   1447.3553              1482.4944              1492.4398
 Red. masses --      2.0155                 1.1199                 1.0658
 Frc consts  --      2.4876                 1.4501                 1.3987
 IR Inten    --      8.9267                 5.7796                 4.7255

                     40                     41                     42
                      A                      A                      A
 Frequencies --   1496.5416              1828.5710              2849.6912
 Red. masses --      1.0514                10.9209                 1.0818
 Frc consts  --      1.3874                21.5145                 5.1761
 IR Inten    --      3.3230               162.8335               119.6069

                     43                     44                     45
                      A                      A                      A
 Frequencies --   3028.7444              3052.2604              3061.6861
 Red. masses --      1.0370                 1.0643                 1.0868
 Frc consts  --      5.6045                 5.8418                 6.0026
 IR Inten    --     21.3967                29.1110                47.1400

                     46                     47                     48
                      A                      A                      A
 Frequencies --   3092.0562              3114.3566              3131.6421
 Red. masses --      1.1005                 1.0994                 1.1013
 Frc consts  --      6.1991                 6.2827                 6.3633
 IR Inten    --     20.7388                19.0061                 3.5908

                     49                     50                     51
                      A                      A                      A
 Frequencies --   3167.7478              3202.2597              3806.1888
 Red. masses --      1.0900                 1.0940                 1.0662
 Frc consts  --      6.4444                 6.6098                 9.1010
 IR Inten    --     13.2862                 9.7197                24.5244

 - Thermochemistry -
 -------------------
 Temperature   298.150 Kelvin.  Pressure   1.00000 Atm.
 Atom     1 has atomic number  6 and mass  12.00000

 Molecular mass:   126.06808 amu.
 Principal axes and moments of inertia in atomic units:
                           1         2         3
     Eigenvalues --   575.502221595.254791768.32206
           X            0.99981   0.01879   0.00435
           Y           -0.01872   0.99971  -0.01532
           Z           -0.00464   0.01524   0.99987
 This molecule is an asymmetric top.
 Rotational symmetry number  1.
 Warning -- assumption of classical behavior for rotation
           may cause significant error
 Rotational temperatures (Kelvin)      0.15050     0.05429     0.04898
 Rotational constants (GHZ):           3.13594     1.13132     1.02060
 Zero-point vibrational energy     412363.3 (Joules/Mol)
                                   98.55719 (Kcal/Mol)
 Warning -- explicit consideration of  12 degrees of freedom as
           vibrations may cause significant error
 Vibrational temperatures:    110.06   226.69   266.96   292.27   364.71
          (Kelvin)            441.73   456.24   469.86   540.36   558.73
                              683.69   863.78   981.34  1147.56  1190.34
                             1222.32  1271.80  1309.87  1336.03  1413.29
                             1449.54  1461.71  1473.70  1555.46  1616.99
                             1637.02  1674.21  1683.57  1747.67  1771.10
                             1810.31  1835.23  1874.11  1903.36  2021.41
                             2050.93  2082.42  2132.98  2147.29  2153.19
                             2630.90  4100.06  4357.68  4391.52  4405.08
                             4448.77  4480.86  4505.73  4557.68  4607.33
                             5476.25

 Zero-point correction=                           0.157061 (Hartree/Particle)
 Thermal correction to Energy=                    0.166042
 Thermal correction to Enthalpy=                  0.166986
 Thermal correction to Gibbs Free Energy=         0.123580
 Sum of electronic and zero-point Energies=           -422.998134
 Sum of electronic and thermal Energies=              -422.989153
 Sum of electronic and thermal Enthalpies=            -422.988209
 Sum of electronic and thermal Free Energies=         -423.031615

                     E (Thermal)             CV                S
                      KCal/Mol        Cal/Mol-Kelvin    Cal/Mol-Kelvin
 Total                  104.193             33.999             91.355
 Electronic               0.000              0.000              0.000
 Translational            0.889              2.981             40.409
 Rotational               0.889              2.981             28.875
 Vibrational            102.415             28.038             22.072
 Vibration     1          0.599              1.965              3.979
 Vibration     2          0.621              1.894              2.579
 Vibration     3          0.632              1.860              2.272
 Vibration     4          0.639              1.835              2.105
 Vibration     5          0.665              1.757              1.706
 Vibration     6          0.697              1.660              1.378
 Vibration     7          0.704              1.641              1.325
 Vibration     8          0.710              1.622              1.277
 Vibration     9          0.746              1.522              1.057
 Vibration    10          0.757              1.495              1.007
 Vibration    11          0.832              1.305              0.723
 Vibration    12          0.959              1.031              0.449

 Optimization completed.
    -- Stationary point found.
 Normal termination of Gaussian 09 at Mon Jan 27 23:40:22 2020.
