 Gaussian 09, Revision D.01,
 Gaussian 09:  ES64L-G09RevD.01 24-Apr-2013

 -----------------------------
 # b3lyp 6-31G(2df,p) opt Freq
 -----------------------------

 -----
 titel
 -----
 Symbolic Z-matrix:
 Charge =  0 Multiplicity = 1

 SCF Done:  E(RB3LYP) =  -423.219561288     A.U. after   14 cycles
 Optimization completed.
    -- Stationary point found.
 Normal termination of Gaussian 09 at Tue Jan 28 00:03:35 2020.

 ----------------------------------------------------------------------
 #N Geom=AllCheck Guess=TCheck SCRF=Check GenChk RB3LYP/6-31G(2df,p) Fr
 eq
 ----------------------------------------------------------------------

 Structure from the checkpoint file:  "/scratch/puck/g09_67579d17-31d8-4503-a692-8ffda1de4b89/Gau-116677.chk"
 -----
 titel
 -----
 Charge =  0 Multiplicity = 1

                         Standard orientation:
 ---------------------------------------------------------------------
 Center     Atomic      Atomic             Coordinates (Angstroms)
 Number     Number       Type             X           Y           Z
 ---------------------------------------------------------------------
      1          6           0       -0.031776   -1.252407    1.318660
      2          6           0        0.121348   -0.598044   -0.069157
      3          6           0        0.546857   -1.641369   -1.108106
      4          6           0       -1.151262    0.196044   -0.474531
      5          8           0       -2.291617   -0.243816    0.251038
      6          6           0       -0.791087    1.644077   -0.207656
      7          6           0        0.505568    1.816851    0.062713
      8          6           0        1.197008    0.505627    0.063597
      9          8           0        2.386021    0.308884    0.163376
     10          1           0       -0.334717   -0.525805    2.077041
     11          1           0       -0.789972   -2.037829    1.288333
     12          1           0        0.926254   -1.687102    1.616751
     13          1           0        0.641298   -1.199672   -2.105952
     14          1           0        1.519504   -2.060203   -0.836907
     15          1           0       -0.183278   -2.455179   -1.162579
     16          1           0       -1.329400    0.067497   -1.554599
     17          1           0       -3.070869    0.172029   -0.130905
     18          1           0       -1.536935    2.431280   -0.268306
     19          1           0        1.022957    2.749776    0.248697
 ---------------------------------------------------------------------

 SCF Done:  E(RB3LYP) =  -423.219561288     A.U. after    1 cycles

 The electronic state is 1-A.
 Alpha  occ. eigenvalues --  -19.15014 -19.12274 -10.25878 -10.24785 -10.21307
 Alpha  occ. eigenvalues --  -10.19889 -10.19768 -10.17481 -10.17261  -1.03459
 Alpha  occ. eigenvalues --   -1.03051  -0.85246  -0.77813  -0.68837  -0.68066
 Alpha  occ. eigenvalues --   -0.63918  -0.57065  -0.52584  -0.50769  -0.48897
 Alpha  occ. eigenvalues --   -0.44738  -0.43959  -0.42947  -0.41370  -0.40189
 Alpha  occ. eigenvalues --   -0.38081  -0.37055  -0.36573  -0.35953  -0.33758
 Alpha  occ. eigenvalues --   -0.32882  -0.28154  -0.28001  -0.23735
 Alpha virt. eigenvalues --   -0.04868   0.04804   0.07328   0.10618   0.11417
 Alpha virt. eigenvalues --    0.13776   0.14520   0.15509   0.16320   0.17315
 Alpha virt. eigenvalues --    0.18881   0.19392   0.20702   0.20722   0.23364

 Mulliken charges:
               1
     1  C   -0.404264
     2  C    0.139149
     3  C   -0.435778
     4  C    0.031404
     5  O   -0.423634
     6  C   -0.092641
     7  C   -0.179936
     8  C    0.371858
     9  O   -0.348079
    10  H    0.121217
    11  H    0.126868
    12  H    0.125868
    13  H    0.111474
    14  H    0.137270
    15  H    0.116682
    16  H    0.082661
    17  H    0.287261
    18  H    0.111466
    19  H    0.121153
 Sum of Mulliken charges =   0.00000

 Dipole moment (field-independent basis, Debye):
    X=             -3.4017    Y=              1.2985    Z=             -1.2522  Tot=              3.8505
 Quadrupole moment (field-independent basis, Debye-Ang):
   XX=            -56.8045   YY=            -49.5573   ZZ=            -53.1209
   XY=             -3.4866   XZ=              2.4664   YZ=             -0.0670

  Exact polarizability:  90.718  -2.412  80.147   3.737   0.251  60.843
 Approx polarizability: 156.439  -4.455 109.484   9.167  -0.875  90.945

                      1                      2                      3
                      A                      A                      A
 Frequencies --     54.7335               193.6338               213.3233
 Red. masses --      4.6664                 3.5458                 1.1086
 Frc consts  --      0.0082                 0.0783                 0.0297
 IR Inten    --      2.4638                 2.0963                 7.1227

                      4                      5                      6
                      A                      A                      A
 Frequencies --    227.3241               253.2009               259.8446
 Red. masses --      1.0928                 2.1479                 1.4520
 Frc consts  --      0.0333                 0.0811                 0.0578
 IR Inten    --     84.5885                 9.4654                 3.4957

                      7                      8                      9
                      A                      A                      A
 Frequencies --    283.4973               295.6689               326.8517
 Red. masses --      2.8542                 2.5064                 2.6298
 Frc consts  --      0.1352                 0.1291                 0.1655
 IR Inten    --      3.9662                 3.4033                 1.3486

                     10                     11                     12
                      A                      A                      A
 Frequencies --    375.5518               508.0155               532.8641
 Red. masses --      3.6900                 4.0767                 3.6421
 Frc consts  --      0.3066                 0.6199                 0.6093
 IR Inten    --      2.9357                 1.2630                 4.6643

                     13                     14                     15
                      A                      A                      A
 Frequencies --    617.2431               688.9009               711.6155
 Red. masses --      3.4191                 4.1914                 3.5884
 Frc consts  --      0.7675                 1.1720                 1.0706
 IR Inten    --     11.9568                 3.5073                 6.6905

                     16                     17                     18
                      A                      A                      A
 Frequencies --    766.2394               830.0780               873.5365
 Red. masses --      2.9953                 2.5101                 2.0468
 Frc consts  --      1.0362                 1.0190                 0.9202
 IR Inten    --      1.5255                10.8522                16.0094

                     19                     20                     21
                      A                      A                      A
 Frequencies --    951.9600               964.8058               997.8171
 Red. masses --      2.1718                 1.5328                 1.3396
 Frc consts  --      1.1596                 0.8407                 0.7858
 IR Inten    --      7.0137                 0.5177                 2.1125

                     22                     23                     24
                      A                      A                      A
 Frequencies --   1016.7930              1030.1444              1062.1283
 Red. masses --      1.9297                 1.4806                 1.9892
 Frc consts  --      1.1754                 0.9257                 1.3221
 IR Inten    --     24.0734                 0.8761                27.5905

                     25                     26                     27
                      A                      A                      A
 Frequencies --   1113.5690              1139.6027              1148.7958
 Red. masses --      2.3143                 1.7410                 2.0624
 Frc consts  --      1.6908                 1.3321                 1.6037
 IR Inten    --     77.7224                25.5318                 6.8596

                     28                     29                     30
                      A                      A                      A
 Frequencies --   1229.3031              1245.1856              1265.7026
 Red. masses --      2.6351                 2.1469                 1.4720
 Frc consts  --      2.3462                 1.9613                 1.3894
 IR Inten    --     25.0607                 5.2927                27.7303

                     31                     32                     33
                      A                      A                      A
 Frequencies --   1334.2500              1354.4444              1392.5588
 Red. masses --      1.7251                 1.7400                 1.2096
 Frc consts  --      1.8095                 1.8807                 1.3821
 IR Inten    --     51.8593                12.8179                 2.4413

                     34                     35                     36
                      A                      A                      A
 Frequencies --   1404.2150              1426.3772              1482.4942
 Red. masses --      1.2941                 1.3325                 1.0471
 Frc consts  --      1.5035                 1.5973                 1.3559
 IR Inten    --      3.3963                10.9358                 1.1297

                     37                     38                     39
                      A                      A                      A
 Frequencies --   1485.8185              1501.3175              1508.5541
 Red. masses --      1.0484                 1.0624                 1.0564
 Frc consts  --      1.3636                 1.4109                 1.4165
 IR Inten    --      1.5808                 9.1343                 9.4268

                     40                     41                     42
                      A                      A                      A
 Frequencies --   1653.8793              1812.0428              2962.7913
 Red. masses --      6.6197                12.1667                 1.0818
 Frc consts  --     10.6684                23.5374                 5.5952
 IR Inten    --      7.5398               220.5128                36.0728

                     43                     44                     45
                      A                      A                      A
 Frequencies --   3033.1095              3048.8932              3099.1502
 Red. masses --      1.0356                 1.0339                 1.1015
 Frc consts  --      5.6133                 5.6623                 6.2334
 IR Inten    --     26.0931                14.1575                24.5689

                     46                     47                     48
                      A                      A                      A
 Frequencies --   3120.4282              3123.9919              3132.3014
 Red. masses --      1.1013                 1.1018                 1.1025
 Frc consts  --      6.3183                 6.3356                 6.3729
 IR Inten    --      5.8863                21.0912                13.6840

                     49                     50                     51
                      A                      A                      A
 Frequencies --   3177.0371              3221.3546              3821.8452
 Red. masses --      1.0893                 1.1019                 1.0664
 Frc consts  --      6.4778                 6.7369                 9.1776
 IR Inten    --     10.1392                 7.1332                27.6578

 - Thermochemistry -
 -------------------
 Temperature   298.150 Kelvin.  Pressure   1.00000 Atm.
 Atom     1 has atomic number  6 and mass  12.00000

 Molecular mass:   126.06808 amu.
 Principal axes and moments of inertia in atomic units:
                           1         2         3
     Eigenvalues --   799.863151071.316221455.65361
           X            0.99814  -0.06084   0.00274
           Y            0.06082   0.99813   0.00534
           Z           -0.00305  -0.00516   0.99998
 This molecule is an asymmetric top.
 Rotational symmetry number  1.
 Warning -- assumption of classical behavior for rotation
           may cause significant error
 Rotational temperatures (Kelvin)      0.10829     0.08085     0.05950
 Rotational constants (GHZ):           2.25631     1.68460     1.23982
 Zero-point vibrational energy     414355.2 (Joules/Mol)
                                   99.03327 (Kcal/Mol)
 Warning -- explicit consideration of  13 degrees of freedom as
           vibrations may cause significant error
 Vibrational temperatures:     78.75   278.60   306.92   327.07   364.30
          (Kelvin)            373.86   407.89   425.40   470.27   540.33
                              730.92   766.67   888.07   991.17  1023.85
                             1102.45  1194.30  1256.82  1369.66  1388.14
                             1435.63  1462.94  1482.15  1528.16  1602.18
                             1639.63  1652.86  1768.69  1791.54  1821.06
                             1919.69  1948.74  2003.58  2020.35  2052.24
                             2132.98  2137.76  2160.06  2170.47  2379.56
                             2607.12  4262.79  4363.96  4386.67  4458.98
                             4489.59  4494.72  4506.68  4571.04  4634.80
                             5498.78

 Zero-point correction=                           0.157820 (Hartree/Particle)
 Thermal correction to Energy=                    0.167056
 Thermal correction to Enthalpy=                  0.168000
 Thermal correction to Gibbs Free Energy=         0.124177
 Sum of electronic and zero-point Energies=           -423.061742
 Sum of electronic and thermal Energies=              -423.052506
 Sum of electronic and thermal Enthalpies=            -423.051562
 Sum of electronic and thermal Free Energies=         -423.095384

                     E (Thermal)             CV                S
                      KCal/Mol        Cal/Mol-Kelvin    Cal/Mol-Kelvin
 Total                  104.829             34.824             92.233
 Electronic               0.000              0.000              0.000
 Translational            0.889              2.981             40.409
 Rotational               0.889              2.981             28.613
 Vibrational            103.051             28.863             23.211
 Vibration     1          0.596              1.976              4.639
 Vibration     2          0.635              1.849              2.193
 Vibration     3          0.644              1.821              2.015
 Vibration     4          0.651              1.799              1.900
 Vibration     5          0.664              1.757              1.708
 Vibration     6          0.668              1.746              1.663
 Vibration     7          0.682              1.704              1.512
 Vibration     8          0.690              1.682              1.441
 Vibration     9          0.711              1.622              1.276
 Vibration    10          0.746              1.522              1.057
 Vibration    11          0.863              1.232              0.638
 Vibration    12          0.888              1.177              0.581
 Vibration    13          0.977              0.995              0.421

 Optimization completed.
    -- Stationary point found.
 Normal termination of Gaussian 09 at Tue Jan 28 00:58:48 2020.
