 Gaussian 09, Revision D.01,
 Gaussian 09:  ES64L-G09RevD.01 24-Apr-2013

 -----------------------------
 # b3lyp 6-31G(2df,p) opt Freq
 -----------------------------

 -----
 titel
 -----
 Symbolic Z-matrix:
 Charge =  0 Multiplicity = 1

 SCF Done:  E(RB3LYP) =  -423.112479531     A.U. after   13 cycles
 Optimization completed.
    -- Stationary point found.
 Normal termination of Gaussian 09 at Tue Jan 28 03:41:59 2020.

 ----------------------------------------------------------------------
 #N Geom=AllCheck Guess=TCheck SCRF=Check GenChk RB3LYP/6-31G(2df,p) Fr
 eq
 ----------------------------------------------------------------------

 Structure from the checkpoint file:  "/scratch/puck/g09_0b49d72a-e322-42d3-a759-31cea57def4b/Gau-2677.chk"
 -----
 titel
 -----
 Charge =  0 Multiplicity = 1

                         Standard orientation:
 ---------------------------------------------------------------------
 Center     Atomic      Atomic             Coordinates (Angstroms)
 Number     Number       Type             X           Y           Z
 ---------------------------------------------------------------------
      1          8           0        2.512259   -0.739311   -0.347128
      2          6           0        1.521635   -0.217226    0.507104
      3          6           0        1.158811    1.313199    0.273096
      4          6           0       -0.029857    0.794845   -0.603623
      5          8           0       -1.431445    1.091781   -0.606450
      6          6           0       -1.929389   -0.135637   -0.003750
      7          6           0       -1.059238   -0.235668    1.259039
      8          6           0        0.029379   -0.510144    0.167136
      9          6           0       -1.066144   -1.328033   -0.579507
     10          1           0        2.266261   -0.559334   -1.260194
     11          1           0        1.834100   -0.489865    1.516886
     12          1           0        0.857441    1.817946    1.191332
     13          1           0        1.925055    1.903009   -0.234738
     14          1           0        0.304981    0.714416   -1.646763
     15          1           0       -3.018064   -0.132442   -0.009599
     16          1           0       -0.992998    0.660329    1.877804
     17          1           0       -1.249174   -1.122015    1.868032
     18          1           0       -0.974078   -1.420453   -1.664195
     19          1           0       -1.351224   -2.279361   -0.126914
 ---------------------------------------------------------------------

 SCF Done:  E(RB3LYP) =  -423.112479531     A.U. after    1 cycles

 The electronic state is 1-A.
 Alpha  occ. eigenvalues --  -19.14319 -19.13833 -10.24435 -10.24277 -10.22669
 Alpha  occ. eigenvalues --  -10.19676 -10.19518 -10.18791 -10.18781  -1.04234
 Alpha  occ. eigenvalues --   -1.02543  -0.85407  -0.79944  -0.67957  -0.65264
 Alpha  occ. eigenvalues --   -0.63830  -0.58058  -0.54596  -0.52669  -0.47734
 Alpha  occ. eigenvalues --   -0.46745  -0.45161  -0.43181  -0.40436  -0.39631
 Alpha  occ. eigenvalues --   -0.37245  -0.36505  -0.36157  -0.35345  -0.32557
 Alpha  occ. eigenvalues --   -0.31731  -0.27222  -0.25885  -0.24190
 Alpha virt. eigenvalues --    0.05408   0.07988   0.10336   0.11102   0.12010
 Alpha virt. eigenvalues --    0.13080   0.13411   0.15118   0.16455   0.17377
 Alpha virt. eigenvalues --    0.17840   0.19215   0.19917   0.21150   0.22638

 Mulliken charges:
               1
     1  O   -0.426556
     2  C    0.009519
     3  C   -0.333433
     4  C    0.131926
     5  O   -0.299802
     6  C    0.103543
     7  C   -0.257902
     8  C    0.251952
     9  C   -0.346594
    10  H    0.284768
    11  H    0.095141
    12  H    0.119099
    13  H    0.103785
    14  H    0.065014
    15  H    0.086244
    16  H    0.104055
    17  H    0.101808
    18  H    0.100725
    19  H    0.106706
 Sum of Mulliken charges =   0.00000

 Dipole moment (field-independent basis, Debye):
    X=             -0.4762    Y=             -0.6126    Z=              0.1285  Tot=              0.7865
 Quadrupole moment (field-independent basis, Debye-Ang):
   XX=            -57.8555   YY=            -55.5355   ZZ=            -49.5995
   XY=              5.7069   XZ=             -3.1268   YZ=              1.1969

  Exact polarizability:  82.896   6.416  70.368  -1.357   1.203  71.034
 Approx polarizability: 116.753   3.958 106.794  -1.364  -0.265 109.968

                      1                      2                      3
                      A                      A                      A
 Frequencies --    156.1926               206.8548               273.1447
 Red. masses --      4.1351                 2.1602                 1.3869
 Frc consts  --      0.0594                 0.0545                 0.0610
 IR Inten    --      4.6523                12.1120                72.5103

                      4                      5                      6
                      A                      A                      A
 Frequencies --    323.6555               404.5693               438.1169
 Red. masses --      3.4704                 3.7724                 2.4964
 Frc consts  --      0.2142                 0.3638                 0.2823
 IR Inten    --      4.1532                 2.4328                 3.4010

                      7                      8                      9
                      A                      A                      A
 Frequencies --    465.0990               525.2989               584.8834
 Red. masses --      2.5924                 1.9429                 3.1586
 Frc consts  --      0.3304                 0.3159                 0.6366
 IR Inten    --      3.6965                 0.9477                 3.1041

                     10                     11                     12
                      A                      A                      A
 Frequencies --    652.6687               713.8993               785.1190
 Red. masses --      3.0267                 3.5823                 2.4465
 Frc consts  --      0.7596                 1.0757                 0.8885
 IR Inten    --      4.1654                 8.8333                 6.6909

                     13                     14                     15
                      A                      A                      A
 Frequencies --    806.6726               864.5623               876.2367
 Red. masses --      2.5135                 3.7417                 2.7432
 Frc consts  --      0.9637                 1.6478                 1.2409
 IR Inten    --      5.4136                19.8944                 8.6397

                     16                     17                     18
                      A                      A                      A
 Frequencies --    882.4464               934.0803               953.5877
 Red. masses --      3.1160                 2.2041                 2.0620
 Frc consts  --      1.4297                 1.1331                 1.1047
 IR Inten    --     21.4130                20.6750                 6.6307

                     19                     20                     21
                      A                      A                      A
 Frequencies --    968.4297               988.6835              1009.5733
 Red. masses --      2.8112                 1.7046                 2.0574
 Frc consts  --      1.5534                 0.9817                 1.2355
 IR Inten    --      2.3460                11.2028                16.0168

                     22                     23                     24
                      A                      A                      A
 Frequencies --   1033.2320              1070.8615              1106.1803
 Red. masses --      1.2223                 2.7248                 1.5985
 Frc consts  --      0.7688                 1.8410                 1.1524
 IR Inten    --     11.3141                41.4771                21.9637

                     25                     26                     27
                      A                      A                      A
 Frequencies --   1112.9952              1136.9007              1152.8880
 Red. masses --      2.3862                 1.7617                 1.4974
 Frc consts  --      1.7416                 1.3416                 1.1726
 IR Inten    --    104.7436                 3.8987                 9.2102

                     28                     29                     30
                      A                      A                      A
 Frequencies --   1161.8966              1206.5931              1210.4629
 Red. masses --      1.4827                 1.6140                 1.8255
 Frc consts  --      1.1793                 1.3844                 1.5759
 IR Inten    --      3.1839                21.3637                 3.9469

                     31                     32                     33
                      A                      A                      A
 Frequencies --   1224.5407              1239.4981              1265.5409
 Red. masses --      1.6351                 1.5058                 2.2624
 Frc consts  --      1.4446                 1.3630                 2.1349
 IR Inten    --     10.7291                 9.2610                 2.0995

                     34                     35                     36
                      A                      A                      A
 Frequencies --   1275.6818              1294.5569              1312.8685
 Red. masses --      1.8563                 1.5393                 1.5516
 Frc consts  --      1.7799                 1.5199                 1.5757
 IR Inten    --      4.6721                 4.8178                 5.3281

                     37                     38                     39
                      A                      A                      A
 Frequencies --   1395.6071              1433.3207              1470.7856
 Red. masses --      1.2002                 1.2180                 1.1086
 Frc consts  --      1.3773                 1.4743                 1.4129
 IR Inten    --      7.5886                68.5477                 1.7410

                     40                     41                     42
                      A                      A                      A
 Frequencies --   1481.1690              1511.9470              2997.4985
 Red. masses --      1.1047                 1.1317                 1.0845
 Frc consts  --      1.4280                 1.5243                 5.7413
 IR Inten    --      7.1576                 1.2739                48.8278

                     43                     44                     45
                      A                      A                      A
 Frequencies --   3066.7733              3073.5942              3078.7452
 Red. masses --      1.0556                 1.0571                 1.0602
 Frc consts  --      5.8493                 5.8840                 5.9210
 IR Inten    --     37.1522                21.6010                12.6630

                     46                     47                     48
                      A                      A                      A
 Frequencies --   3094.3551              3133.6790              3138.5449
 Red. masses --      1.0879                 1.1107                 1.1090
 Frc consts  --      6.1373                 6.4264                 6.4364
 IR Inten    --     35.9470                 8.8161                33.1440

                     49                     50                     51
                      A                      A                      A
 Frequencies --   3142.0449              3146.1933              3816.7680
 Red. masses --      1.0921                 1.1072                 1.0659
 Frc consts  --      6.3523                 6.4572                 9.1483
 IR Inten    --     56.1094                18.7514                13.1717

 - Thermochemistry -
 -------------------
 Temperature   298.150 Kelvin.  Pressure   1.00000 Atm.
 Atom     1 has atomic number  8 and mass  15.99491

 Molecular mass:   126.06808 amu.
 Principal axes and moments of inertia in atomic units:
                           1         2         3
     Eigenvalues --   556.919601196.186691343.08682
           X            0.99872   0.04985  -0.00865
           Y           -0.04932   0.99738   0.05289
           Z            0.01126  -0.05240   0.99856
 This molecule is an asymmetric top.
 Rotational symmetry number  1.
 Warning -- assumption of classical behavior for rotation
           may cause significant error
 Rotational temperatures (Kelvin)      0.15552     0.07241     0.06449
 Rotational constants (GHZ):           3.24058     1.50875     1.34373
 Zero-point vibrational energy     422278.8 (Joules/Mol)
                                  100.92705 (Kcal/Mol)
 Warning -- explicit consideration of   9 degrees of freedom as
           vibrations may cause significant error
 Vibrational temperatures:    224.73   297.62   392.99   465.67   582.08
          (Kelvin)            630.35   669.17   755.79   841.52   939.04
                             1027.14  1129.61  1160.62  1243.91  1260.71
                             1269.64  1343.93  1372.00  1393.35  1422.49
                             1452.55  1486.59  1540.73  1591.54  1601.35
                             1635.74  1658.75  1671.71  1736.02  1741.58
                             1761.84  1783.36  1820.83  1835.42  1862.58
                             1888.92  2007.96  2062.23  2116.13  2131.07
                             2175.35  4312.73  4412.40  4422.21  4429.62
                             4452.08  4508.66  4515.66  4520.70  4526.66
                             5491.47

 Zero-point correction=                           0.160837 (Hartree/Particle)
 Thermal correction to Energy=                    0.167997
 Thermal correction to Enthalpy=                  0.168942
 Thermal correction to Gibbs Free Energy=         0.129665
 Sum of electronic and zero-point Energies=           -422.951642
 Sum of electronic and thermal Energies=              -422.944482
 Sum of electronic and thermal Enthalpies=            -422.943538
 Sum of electronic and thermal Free Energies=         -422.982815

                     E (Thermal)             CV                S
                      KCal/Mol        Cal/Mol-Kelvin    Cal/Mol-Kelvin
 Total                  105.420             29.912             82.665
 Electronic               0.000              0.000              0.000
 Translational            0.889              2.981             40.409
 Rotational               0.889              2.981             28.283
 Vibrational            103.643             23.950             13.974
 Vibration     1          0.620              1.896              2.595
 Vibration     2          0.641              1.830              2.071
 Vibration     3          0.676              1.723              1.576
 Vibration     4          0.708              1.628              1.292
 Vibration     5          0.770              1.460              0.946
 Vibration     6          0.798              1.387              0.833
 Vibration     7          0.823              1.327              0.751
 Vibration     8          0.880              1.194              0.598
 Vibration     9          0.942              1.064              0.476

 Optimization completed.
    -- Stationary point found.
 Normal termination of Gaussian 09 at Tue Jan 28 04:27:34 2020.
