 Gaussian 09, Revision D.01,
 Gaussian 09:  ES64L-G09RevD.01 24-Apr-2013

 -----------------------------
 # b3lyp 6-31G(2df,p) opt Freq
 -----------------------------

 -----
 titel
 -----
 Symbolic Z-matrix:
 Charge =  0 Multiplicity = 1

 SCF Done:  E(RB3LYP) =  -423.151877456     A.U. after   14 cycles
 Optimization completed.
    -- Stationary point found.
 Normal termination of Gaussian 09 at Mon Jan 27 16:29:24 2020.

 ----------------------------------------------------------------------
 #N Geom=AllCheck Guess=TCheck SCRF=Check GenChk RB3LYP/6-31G(2df,p) Fr
 eq
 ----------------------------------------------------------------------

 Structure from the checkpoint file:  "/scratch/puck/g09_27a25f5d-e960-42f1-9263-410bcca49885/Gau-12225.chk"
 -----
 titel
 -----
 Charge =  0 Multiplicity = 1

                         Standard orientation:
 ---------------------------------------------------------------------
 Center     Atomic      Atomic             Coordinates (Angstroms)
 Number     Number       Type             X           Y           Z
 ---------------------------------------------------------------------
      1          6           0       -2.050300    1.128181    0.689843
      2          6           0       -1.254199    0.041756   -0.012654
      3          8           0       -1.996084   -0.545116   -1.075108
      4          6           0       -0.533067   -1.067179    0.864525
      5          6           0        0.690496   -0.984035   -0.122754
      6          8           0        2.021192   -0.776314    0.310493
      7          6           0        2.401235    0.559989   -0.069089
      8          6           0        1.097362    1.279848   -0.384613
      9          6           0        0.151409    0.356525   -0.498613
     10          1           0       -2.367686    1.889414   -0.029137
     11          1           0       -2.949519    0.703792    1.153401
     12          1           0       -1.460578    1.606878    1.475843
     13          1           0       -2.790380   -0.934584   -0.692639
     14          1           0       -0.265570   -0.698727    1.856785
     15          1           0       -1.057311   -2.024686    0.931771
     16          1           0        0.646565   -1.775382   -0.880150
     17          1           0        2.926539    1.032415    0.771794
     18          1           0        3.104230    0.524589   -0.917039
     19          1           0        0.995223    2.357224   -0.353579
 ---------------------------------------------------------------------

 SCF Done:  E(RB3LYP) =  -423.151877456     A.U. after    1 cycles

 The electronic state is 1-A.
 Alpha  occ. eigenvalues --  -19.14106 -19.13228 -10.25336 -10.23035 -10.22436
 Alpha  occ. eigenvalues --  -10.18623 -10.18595 -10.18224 -10.18177  -1.03204
 Alpha  occ. eigenvalues --   -1.02334  -0.84134  -0.76141  -0.73136  -0.66529
 Alpha  occ. eigenvalues --   -0.61909  -0.57959  -0.53974  -0.49159  -0.47823
 Alpha  occ. eigenvalues --   -0.47034  -0.45230  -0.43342  -0.41148  -0.40905
 Alpha  occ. eigenvalues --   -0.39620  -0.36285  -0.35525  -0.34388  -0.31969
 Alpha  occ. eigenvalues --   -0.30414  -0.28071  -0.25219  -0.22818
 Alpha virt. eigenvalues --    0.00035   0.07267   0.10815   0.11859   0.12324
 Alpha virt. eigenvalues --    0.13254   0.13848   0.15420   0.16472   0.17005
 Alpha virt. eigenvalues --    0.17662   0.18574   0.19102   0.20190   0.21860

 Mulliken charges:
               1
     1  C   -0.450679
     2  C    0.290931
     3  O   -0.479606
     4  C   -0.313598
     5  C    0.088614
     6  O   -0.280924
     7  C   -0.105796
     8  C   -0.260319
     9  C    0.253935
    10  H    0.130434
    11  H    0.109046
    12  H    0.121829
    13  H    0.277796
    14  H    0.110801
    15  H    0.094902
    16  H    0.090962
    17  H    0.110341
    18  H    0.105757
    19  H    0.105575
 Sum of Mulliken charges =   0.00000

 Dipole moment (field-independent basis, Debye):
    X=             -1.5545    Y=              0.9498    Z=              1.0972  Tot=              2.1266
 Quadrupole moment (field-independent basis, Debye-Ang):
   XX=            -49.9181   YY=            -51.0316   ZZ=            -56.0438
   XY=              5.3074   XZ=             -3.4301   YZ=              0.6940

  Exact polarizability:  95.411  10.613  78.568  -2.373  -0.059  60.921
 Approx polarizability: 129.876  21.914 121.218   1.211   0.237  95.068

                      1                      2                      3
                      A                      A                      A
 Frequencies --    121.5277               132.5036               218.8955
 Red. masses --      3.8455                 2.9081                 1.1590
 Frc consts  --      0.0335                 0.0301                 0.0327
 IR Inten    --      2.6104                 2.1586                 0.2003

                      4                      5                      6
                      A                      A                      A
 Frequencies --    254.3461               288.5465               313.0617
 Red. masses --      2.0048                 1.6232                 1.9331
 Frc consts  --      0.0764                 0.0796                 0.1116
 IR Inten    --      2.7228                45.3438                26.4733

                      7                      8                      9
                      A                      A                      A
 Frequencies --    348.1109               363.3745               419.7185
 Red. masses --      2.3181                 3.1903                 3.5877
 Frc consts  --      0.1655                 0.2482                 0.3724
 IR Inten    --      2.1531                29.1156                 2.3588

                     10                     11                     12
                      A                      A                      A
 Frequencies --    489.9765               599.0540               712.2516
 Red. masses --      2.4137                 3.5563                 2.7240
 Frc consts  --      0.3414                 0.7519                 0.8142
 IR Inten    --      4.0002                 8.5170                 7.7579

                     13                     14                     15
                      A                      A                      A
 Frequencies --    728.3850               777.3262               817.8607
 Red. masses --      3.9003                 3.2638                 1.4093
 Frc consts  --      1.2192                 1.1619                 0.5554
 IR Inten    --      5.7451                 7.2768                16.8537

                     16                     17                     18
                      A                      A                      A
 Frequencies --    855.2002               902.7264               924.2607
 Red. masses --      4.5330                 2.8217                 2.0964
 Frc consts  --      1.9533                 1.3548                 1.0552
 IR Inten    --      8.1886                15.4216                 1.1986

                     19                     20                     21
                      A                      A                      A
 Frequencies --    940.4488               958.6002               973.6609
 Red. masses --      2.2402                 1.7715                 3.7008
 Frc consts  --      1.1674                 0.9591                 2.0671
 IR Inten    --      6.8084                11.1202                25.6485

                     22                     23                     24
                      A                      A                      A
 Frequencies --   1020.4671              1035.6843              1085.3613
 Red. masses --      2.3629                 2.1888                 1.5529
 Frc consts  --      1.4498                 1.3833                 1.0778
 IR Inten    --      0.4413                31.2303                13.5203

                     25                     26                     27
                      A                      A                      A
 Frequencies --   1112.6499              1127.5303              1174.1764
 Red. masses --      1.8066                 2.6435                 1.5460
 Frc consts  --      1.3178                 1.9801                 1.2558
 IR Inten    --      0.9918                94.5963                94.7198

                     28                     29                     30
                      A                      A                      A
 Frequencies --   1181.9231              1197.2723              1229.7038
 Red. masses --      2.1031                 1.1553                 1.9642
 Frc consts  --      1.7310                 0.9758                 1.7500
 IR Inten    --     26.0706                22.9819                14.1258

                     31                     32                     33
                      A                      A                      A
 Frequencies --   1239.3901              1297.2565              1340.7764
 Red. masses --      1.6565                 1.8811                 1.3285
 Frc consts  --      1.4992                 1.8652                 1.4071
 IR Inten    --     16.4039                 2.0720                 0.9210

                     34                     35                     36
                      A                      A                      A
 Frequencies --   1370.5938              1389.5913              1404.7603
 Red. masses --      1.6185                 1.4412                 1.3828
 Frc consts  --      1.7913                 1.6396                 1.6077
 IR Inten    --     42.0860                10.2236                16.9337

                     37                     38                     39
                      A                      A                      A
 Frequencies --   1454.6308              1484.5510              1492.7226
 Red. masses --      1.1254                 1.0478                 1.0675
 Frc consts  --      1.4030                 1.3606                 1.4015
 IR Inten    --      0.5964                 2.3401                 3.2835

                     40                     41                     42
                      A                      A                      A
 Frequencies --   1517.3570              1725.2129              2971.8506
 Red. masses --      1.0882                 8.4914                 1.0690
 Frc consts  --      1.4761                14.8906                 5.5624
 IR Inten    --      1.2420                 1.4353                93.5610

                     43                     44                     45
                      A                      A                      A
 Frequencies --   3025.7605              3027.3462              3034.6384
 Red. masses --      1.0929                 1.0390                 1.0841
 Frc consts  --      5.8954                 5.6103                 5.8824
 IR Inten    --     46.8215                20.8093                32.7232

                     46                     47                     48
                      A                      A                      A
 Frequencies --   3055.7933              3095.6880              3122.4515
 Red. masses --      1.0587                 1.0964                 1.1025
 Frc consts  --      5.8245                 6.1903                 6.3333
 IR Inten    --     37.6597                17.2138                13.2057

                     49                     50                     51
                      A                      A                      A
 Frequencies --   3134.3386              3212.7056              3797.5601
 Red. masses --      1.1076                 1.0958                 1.0658
 Frc consts  --      6.4109                 6.6637                 9.0562
 IR Inten    --     25.3983                 5.5462                14.7449

 - Thermochemistry -
 -------------------
 Temperature   298.150 Kelvin.  Pressure   1.00000 Atm.
 Atom     1 has atomic number  6 and mass  12.00000

 Molecular mass:   126.06808 amu.
 Principal axes and moments of inertia in atomic units:
                           1         2         3
     Eigenvalues --   544.141111382.158621568.16614
           X            0.99971   0.00856  -0.02268
           Y           -0.00784   0.99947   0.03175
           Z            0.02294  -0.03156   0.99924
 This molecule is an asymmetric top.
 Rotational symmetry number  1.
 Warning -- assumption of classical behavior for rotation
           may cause significant error
 Rotational temperatures (Kelvin)      0.15918     0.06267     0.05523
 Rotational constants (GHZ):           3.31668     1.30574     1.15086
 Zero-point vibrational energy     415699.8 (Joules/Mol)
                                   99.35464 (Kcal/Mol)
 Warning -- explicit consideration of  11 degrees of freedom as
           vibrations may cause significant error
 Vibrational temperatures:    174.85   190.64   314.94   365.95   415.15
          (Kelvin)            450.43   500.85   522.81   603.88   704.97
                              861.90  1024.77  1047.98  1118.40  1176.72
                             1230.44  1298.82  1329.80  1353.09  1379.21
                             1400.88  1468.22  1490.12  1561.59  1600.85
                             1622.26  1689.38  1700.52  1722.61  1769.27
                             1783.20  1866.46  1929.08  1971.98  1999.31
                             2021.13  2092.89  2135.94  2147.69  2183.14
                             2482.19  4275.82  4353.39  4355.67  4366.16
                             4396.60  4454.00  4492.51  4509.61  4622.36
                             5463.84

 Zero-point correction=                           0.158332 (Hartree/Particle)
 Thermal correction to Energy=                    0.166730
 Thermal correction to Enthalpy=                  0.167674
 Thermal correction to Gibbs Free Energy=         0.125756
 Sum of electronic and zero-point Energies=           -422.993546
 Sum of electronic and thermal Energies=              -422.985148
 Sum of electronic and thermal Enthalpies=            -422.984203
 Sum of electronic and thermal Free Energies=         -423.026121

                     E (Thermal)             CV                S
                      KCal/Mol        Cal/Mol-Kelvin    Cal/Mol-Kelvin
 Total                  104.625             32.770             88.224
 Electronic               0.000              0.000              0.000
 Translational            0.889              2.981             40.409
 Rotational               0.889              2.981             28.558
 Vibrational            102.847             26.809             19.258
 Vibration     1          0.609              1.931              3.076
 Vibration     2          0.613              1.921              2.909
 Vibration     3          0.647              1.812              1.968
 Vibration     4          0.665              1.755              1.700
 Vibration     5          0.685              1.695              1.482
 Vibration     6          0.701              1.649              1.346
 Vibration     7          0.726              1.579              1.175
 Vibration     8          0.737              1.548              1.108
 Vibration     9          0.782              1.427              0.893
 Vibration    10          0.846              1.272              0.684
 Vibration    11          0.957              1.034              0.451

 Normal termination of Gaussian 09 at Mon Jan 27 18:23:32 2020.
