 Gaussian 09, Revision D.01,
 Gaussian 09:  ES64L-G09RevD.01 24-Apr-2013

 -----------------------------
 # b3lyp 6-31G(2df,p) opt Freq
 -----------------------------

 -----
 titel
 -----
 Symbolic Z-matrix:
 Charge =  0 Multiplicity = 1

 SCF Done:  E(RB3LYP) =  -423.128614022     A.U. after   12 cycles
 Optimization completed.
    -- Stationary point found.
 Normal termination of Gaussian 09 at Mon Jan 27 11:20:49 2020.

 ----------------------------------------------------------------------
 #N Geom=AllCheck Guess=TCheck SCRF=Check GenChk RB3LYP/6-31G(2df,p) Fr
 eq
 ----------------------------------------------------------------------

 Structure from the checkpoint file:  "/scratch/puck/g09_c40c16e7-dfd4-4303-8368-5a4e71218711/Gau-131286.chk"
 -----
 titel
 -----
 Charge =  0 Multiplicity = 1

                         Standard orientation:
 ---------------------------------------------------------------------
 Center     Atomic      Atomic             Coordinates (Angstroms)
 Number     Number       Type             X           Y           Z
 ---------------------------------------------------------------------
      1          6           0       -1.749930   -1.111964    0.750004
      2          6           0       -1.718337   -1.049780   -0.771510
      3          6           0       -0.996263   -0.034054    0.048632
      4          8           0       -1.377518    1.341600    0.091964
      5          6           0       -0.006388    1.752443   -0.121454
      6          6           0        0.489232    0.298342    0.009788
      7          6           0        1.503176   -0.153272    1.078146
      8          6           0        2.313196   -0.684065   -0.118952
      9          8           0        1.287547   -0.255882   -1.044764
     10          1           0       -2.671935   -0.822285    1.242722
     11          1           0       -1.193332   -1.895995    1.254591
     12          1           0       -1.118721   -1.772776   -1.314097
     13          1           0       -2.621065   -0.723129   -1.276053
     14          1           0        0.152334    2.168560   -1.123435
     15          1           0        0.332392    2.462785    0.640986
     16          1           0        1.966478    0.653024    1.649405
     17          1           0        1.130313   -0.912997    1.767427
     18          1           0        3.267888   -0.180675   -0.309958
     19          1           0        2.467298   -1.768160   -0.157104
 ---------------------------------------------------------------------

 SCF Done:  E(RB3LYP) =  -423.128614022     A.U. after    1 cycles

 The electronic state is 1-A.
 Alpha  occ. eigenvalues --  -19.14009 -19.13515 -10.24516 -10.23671 -10.23463
 Alpha  occ. eigenvalues --  -10.22721 -10.19512 -10.18587 -10.18178  -1.05586
 Alpha  occ. eigenvalues --   -1.03177  -0.84631  -0.75355  -0.72476  -0.64899
 Alpha  occ. eigenvalues --   -0.60582  -0.60048  -0.51647  -0.51084  -0.50073
 Alpha  occ. eigenvalues --   -0.48242  -0.47134  -0.43339  -0.42194  -0.39124
 Alpha  occ. eigenvalues --   -0.38618  -0.37640  -0.36659  -0.33801  -0.31173
 Alpha  occ. eigenvalues --   -0.30470  -0.29665  -0.24924  -0.22964
 Alpha virt. eigenvalues --    0.06619   0.08218   0.09013   0.10495   0.11638
 Alpha virt. eigenvalues --    0.12307   0.13561   0.14812   0.16397   0.16766
 Alpha virt. eigenvalues --    0.17526   0.18504   0.19219   0.21755   0.22919

 Mulliken charges:
               1
     1  C   -0.347575
     2  C   -0.323256
     3  C    0.414581
     4  O   -0.316804
     5  C   -0.132626
     6  C    0.283535
     7  C   -0.352187
     8  C   -0.075908
     9  O   -0.305606
    10  H    0.126751
    11  H    0.112232
    12  H    0.126113
    13  H    0.124573
    14  H    0.114062
    15  H    0.102746
    16  H    0.115543
    17  H    0.118538
    18  H    0.107433
    19  H    0.107857
 Sum of Mulliken charges =   0.00000

 Dipole moment (field-independent basis, Debye):
    X=              1.6203    Y=             -0.7418    Z=              1.3558  Tot=              2.2392
 Quadrupole moment (field-independent basis, Debye-Ang):
   XX=            -51.7682   YY=            -52.0491   ZZ=            -54.3946
   XY=              2.2800   XZ=              2.4141   YZ=             -0.8966

  Exact polarizability:  83.089   3.083  75.826   0.701  -0.378  66.754
 Approx polarizability: 108.225   2.183 107.696  -0.481   0.127 101.471

                      1                      2                      3
                      A                      A                      A
 Frequencies --     79.2545                91.9552               174.0644
 Red. masses --      3.0745                 2.3729                 3.0895
 Frc consts  --      0.0114                 0.0118                 0.0552
 IR Inten    --      2.5283                 0.6561                 1.9950

                      4                      5                      6
                      A                      A                      A
 Frequencies --    218.0459               269.4796               350.3842
 Red. masses --      2.8848                 2.2356                 2.6491
 Frc consts  --      0.0808                 0.0957                 0.1916
 IR Inten    --      0.3178                 1.6520                 1.0210

                      7                      8                      9
                      A                      A                      A
 Frequencies --    421.6878               507.5149               523.2454
 Red. masses --      3.1141                 3.9306                 3.8747
 Frc consts  --      0.3263                 0.5965                 0.6250
 IR Inten    --      6.1198                 0.2540                 1.3592

                     10                     11                     12
                      A                      A                      A
 Frequencies --    588.1376               759.1164               783.8793
 Red. masses --      3.6316                 1.0632                 1.1423
 Frc consts  --      0.7401                 0.3610                 0.4135
 IR Inten    --      0.9121                 0.8179                 0.1982

                     13                     14                     15
                      A                      A                      A
 Frequencies --    856.2229               867.7150               872.2685
 Red. masses --      2.4425                 2.7183                 1.7132
 Frc consts  --      1.0550                 1.2059                 0.7680
 IR Inten    --     16.3019                 0.9180                12.2875

                     16                     17                     18
                      A                      A                      A
 Frequencies --    897.6932               909.5533               965.9366
 Red. masses --      1.8041                 1.7917                 3.2229
 Frc consts  --      0.8566                 0.8733                 1.7717
 IR Inten    --      9.8563                 8.2860                21.0967

                     19                     20                     21
                      A                      A                      A
 Frequencies --    969.6414               988.4392              1011.1282
 Red. masses --      3.0370                 2.9826                 8.1223
 Frc consts  --      1.6824                 1.7169                 4.8926
 IR Inten    --      6.2943                10.2645                70.1000

                     22                     23                     24
                      A                      A                      A
 Frequencies --   1024.5014              1046.3527              1065.0368
 Red. masses --      7.7424                 1.5236                 1.4845
 Frc consts  --      4.7880                 0.9828                 0.9921
 IR Inten    --    110.4371                24.3074                 1.9755

                     25                     26                     27
                      A                      A                      A
 Frequencies --   1129.0462              1144.8462              1165.3084
 Red. masses --      2.3479                 1.8689                 1.2522
 Frc consts  --      1.7634                 1.4432                 1.0019
 IR Inten    --     29.9599                 2.2499                10.8423

                     28                     29                     30
                      A                      A                      A
 Frequencies --   1170.2306              1187.5243              1206.8367
 Red. masses --      1.4812                 1.3150                 1.7417
 Frc consts  --      1.1951                 1.0926                 1.4946
 IR Inten    --     12.6412                 2.6242                10.1163

                     31                     32                     33
                      A                      A                      A
 Frequencies --   1220.3827              1237.5793              1270.0591
 Red. masses --      1.5717                 2.0289                 1.8851
 Frc consts  --      1.3791                 1.8308                 1.7916
 IR Inten    --      7.6716                33.3698                25.0021

                     34                     35                     36
                      A                      A                      A
 Frequencies --   1343.9965              1352.1031              1393.7994
 Red. masses --      1.7895                 1.4316                 2.4412
 Frc consts  --      1.9044                 1.5420                 2.7942
 IR Inten    --      7.0313                 1.6319                15.2770

                     37                     38                     39
                      A                      A                      A
 Frequencies --   1447.3561              1484.4061              1491.0895
 Red. masses --      1.0903                 1.1766                 1.2776
 Frc consts  --      1.3456                 1.5275                 1.6736
 IR Inten    --      1.7526                 7.7323                 8.9724

                     40                     41                     42
                      A                      A                      A
 Frequencies --   1513.8628              1533.0672              3022.2753
 Red. masses --      1.3123                 1.1175                 1.0547
 Frc consts  --      1.7720                 1.5475                 5.6760
 IR Inten    --      6.5702                 0.4801                52.7781

                     43                     44                     45
                      A                      A                      A
 Frequencies --   3027.1324              3068.9955              3076.6730
 Red. masses --      1.0553                 1.1115                 1.1040
 Frc consts  --      5.6977                 6.1684                 6.1571
 IR Inten    --     83.6151                29.9143                11.5083

                     46                     47                     48
                      A                      A                      A
 Frequencies --   3079.7949              3124.2270              3133.7785
 Red. masses --      1.0663                 1.0540                 1.1049
 Frc consts  --      5.9591                 6.0613                 6.3932
 IR Inten    --     37.5120                10.1931                21.9102

                     49                     50                     51
                      A                      A                      A
 Frequencies --   3134.2800              3210.2419              3228.7573
 Red. masses --      1.0573                 1.1171                 1.1159
 Frc consts  --      6.1197                 6.7827                 6.8542
 IR Inten    --      4.0278                 1.9861                 6.4331

 - Thermochemistry -
 -------------------
 Temperature   298.150 Kelvin.  Pressure   1.00000 Atm.
 Atom     1 has atomic number  6 and mass  12.00000

 Molecular mass:   126.06808 amu.
 Principal axes and moments of inertia in atomic units:
                           1         2         3
     Eigenvalues --   659.737421193.747631425.67555
           X            0.99933   0.03191   0.01768
           Y           -0.03159   0.99934  -0.01791
           Z           -0.01824   0.01734   0.99968
 This molecule is an asymmetric top.
 Rotational symmetry number  1.
 Warning -- assumption of classical behavior for rotation
           may cause significant error
 Rotational temperatures (Kelvin)      0.13129     0.07256     0.06075
 Rotational constants (GHZ):           2.73554     1.51183     1.26588
 Zero-point vibrational energy     416533.1 (Joules/Mol)
                                   99.55381 (Kcal/Mol)
 Warning -- explicit consideration of  10 degrees of freedom as
           vibrations may cause significant error
 Vibrational temperatures:    114.03   132.30   250.44   313.72   387.72
          (Kelvin)            504.12   606.71   730.20   752.83   846.20
                             1092.20  1127.83  1231.91  1248.45  1255.00
                             1291.58  1308.64  1389.77  1395.10  1422.14
                             1454.79  1474.03  1505.47  1532.35  1624.44
                             1647.18  1676.62  1683.70  1708.58  1736.37
                             1755.86  1780.60  1827.33  1933.71  1945.37
                             2005.36  2082.42  2135.73  2145.34  2178.11
                             2205.74  4348.37  4355.36  4415.59  4426.64
                             4431.13  4495.06  4508.80  4509.52  4618.82
                             4645.46

 Zero-point correction=                           0.158649 (Hartree/Particle)
 Thermal correction to Energy=                    0.166769
 Thermal correction to Enthalpy=                  0.167713
 Thermal correction to Gibbs Free Energy=         0.125644
 Sum of electronic and zero-point Energies=           -422.969965
 Sum of electronic and thermal Energies=              -422.961845
 Sum of electronic and thermal Enthalpies=            -422.960901
 Sum of electronic and thermal Free Energies=         -423.002970

                     E (Thermal)             CV                S
                      KCal/Mol        Cal/Mol-Kelvin    Cal/Mol-Kelvin
 Total                  104.649             31.044             88.542
 Electronic               0.000              0.000              0.000
 Translational            0.889              2.981             40.409
 Rotational               0.889              2.981             28.509
 Vibrational            102.872             25.082             19.625
 Vibration     1          0.600              1.963              3.909
 Vibration     2          0.602              1.955              3.618
 Vibration     3          0.627              1.874              2.391
 Vibration     4          0.646              1.814              1.975
 Vibration     5          0.674              1.729              1.600
 Vibration     6          0.727              1.574              1.164
 Vibration     7          0.784              1.423              0.886
 Vibration     8          0.863              1.233              0.640
 Vibration     9          0.878              1.199              0.602
 Vibration    10          0.945              1.057              0.471

 Optimization completed.
    -- Stationary point found.
 Normal termination of Gaussian 09 at Mon Jan 27 12:15:37 2020.
