 Gaussian 09, Revision D.01,
 Gaussian 09:  ES64L-G09RevD.01 24-Apr-2013

 -----------------------------
 # b3lyp 6-31G(2df,p) opt Freq
 -----------------------------

 -----
 titel
 -----
 Symbolic Z-matrix:
 Charge =  0 Multiplicity = 1

 SCF Done:  E(RB3LYP) =  -423.199815662     A.U. after   14 cycles
 Optimization completed.
    -- Stationary point found.
 Normal termination of Gaussian 09 at Mon Jan 27 13:58:16 2020.

 ----------------------------------------------------------------------
 #N Geom=AllCheck Guess=TCheck SCRF=Check GenChk RB3LYP/6-31G(2df,p) Fr
 eq
 ----------------------------------------------------------------------

 Structure from the checkpoint file:  "/scratch/puck/g09_938a4e53-fcd6-47f2-94b6-64c8721e21b9/Gau-3794.chk"
 -----
 titel
 -----
 Charge =  0 Multiplicity = 1

                         Standard orientation:
 ---------------------------------------------------------------------
 Center     Atomic      Atomic             Coordinates (Angstroms)
 Number     Number       Type             X           Y           Z
 ---------------------------------------------------------------------
      1          8           0       -3.670116   -0.087065    0.113531
      2          6           0       -2.533000   -0.373103   -0.165113
      3          6           0       -1.426601    0.643944   -0.358978
      4          6           0       -0.140857    0.276527    0.400174
      5          8           0        0.291438   -0.971426   -0.121220
      6          6           0        1.611351   -1.317227    0.271823
      7          6           0        2.629227   -0.339471   -0.317628
      8          6           0        2.164583    1.074189   -0.087155
      9          6           0        0.911581    1.348445    0.267298
     10          1           0       -2.219375   -1.428764   -0.304648
     11          1           0       -1.180102    0.681586   -1.428585
     12          1           0       -1.797490    1.625431   -0.051807
     13          1           0       -0.392251    0.156446    1.471849
     14          1           0        1.690847   -1.321484    1.370800
     15          1           0        1.776580   -2.337909   -0.083172
     16          1           0        3.610466   -0.500907    0.146385
     17          1           0        2.761845   -0.528380   -1.391570
     18          1           0        2.889203    1.875618   -0.203728
     19          1           0        0.592000    2.366469    0.473474
 ---------------------------------------------------------------------

 SCF Done:  E(RB3LYP) =  -423.199815662     A.U. after    1 cycles

 The electronic state is 1-A.
 Alpha  occ. eigenvalues --  -19.14827 -19.13429 -10.26536 -10.24958 -10.23559
 Alpha  occ. eigenvalues --  -10.19419 -10.19415 -10.19322 -10.18905  -1.04507
 Alpha  occ. eigenvalues --   -1.03971  -0.80940  -0.80051  -0.72662  -0.64515
 Alpha  occ. eigenvalues --   -0.63832  -0.57093  -0.53279  -0.51025  -0.49703
 Alpha  occ. eigenvalues --   -0.47129  -0.45603  -0.43314  -0.42113  -0.40507
 Alpha  occ. eigenvalues --   -0.40368  -0.39095  -0.37887  -0.36708  -0.35087
 Alpha  occ. eigenvalues --   -0.31427  -0.26709  -0.25663  -0.24123
 Alpha virt. eigenvalues --   -0.01811   0.01088   0.08560   0.11333   0.11781
 Alpha virt. eigenvalues --    0.12572   0.13799   0.14366   0.15191   0.15990
 Alpha virt. eigenvalues --    0.16795   0.18338   0.19814   0.20529   0.22621

 Mulliken charges:
               1
     1  O   -0.243647
     2  C    0.151558
     3  C   -0.291782
     4  C    0.071980
     5  O   -0.268152
     6  C   -0.077959
     7  C   -0.256762
     8  C   -0.072933
     9  C   -0.066065
    10  H    0.097366
    11  H    0.131399
    12  H    0.118624
    13  H    0.084273
    14  H    0.095261
    15  H    0.109903
    16  H    0.107557
    17  H    0.118535
    18  H    0.094941
    19  H    0.095905
 Sum of Mulliken charges =   0.00000

 Dipole moment (field-independent basis, Debye):
    X=              3.7066    Y=              0.3637    Z=             -0.0516  Tot=              3.7248
 Quadrupole moment (field-independent basis, Debye-Ang):
   XX=            -63.5283   YY=            -51.1426   ZZ=            -52.5694
   XY=             -1.1481   XZ=              1.2448   YZ=             -0.0833

  Exact polarizability: 103.809  -4.229  75.453  -6.073   1.523  57.298
 Approx polarizability: 144.537  -9.719 106.631 -12.943   4.929  91.279

                      1                      2                      3
                      A                      A                      A
 Frequencies --     43.9604                70.0681               101.6908
 Red. masses --      3.8517                 3.5602                 3.5287
 Frc consts  --      0.0044                 0.0103                 0.0215
 IR Inten    --      6.3366                 1.3407                 2.5645

                      4                      5                      6
                      A                      A                      A
 Frequencies --    180.4049               277.9939               299.7876
 Red. masses --      2.4266                 2.0565                 3.4367
 Frc consts  --      0.0465                 0.0936                 0.1820
 IR Inten    --      0.2192                 2.4940                 1.9655

                      7                      8                      9
                      A                      A                      A
 Frequencies --    385.8566               413.3551               495.6775
 Red. masses --      3.1994                 3.8467                 3.4962
 Frc consts  --      0.2807                 0.3872                 0.5061
 IR Inten    --      2.6762                10.6523                 0.0893

                     10                     11                     12
                      A                      A                      A
 Frequencies --    530.8714               578.6075               680.4027
 Red. masses --      2.5452                 2.7913                 1.3844
 Frc consts  --      0.4226                 0.5506                 0.3776
 IR Inten    --      9.1435                 1.3148                19.3516

                     13                     14                     15
                      A                      A                      A
 Frequencies --    782.0444               808.1271               848.6936
 Red. masses --      1.9788                 2.2137                 2.1289
 Frc consts  --      0.7131                 0.8518                 0.9035
 IR Inten    --      7.1781                 3.9115                15.9722

                     16                     17                     18
                      A                      A                      A
 Frequencies --    890.9177               929.5639               973.9975
 Red. masses --      2.6772                 2.7692                 2.4632
 Frc consts  --      1.2520                 1.4098                 1.3768
 IR Inten    --      3.2361                 5.9180                 4.4774

                     19                     20                     21
                      A                      A                      A
 Frequencies --    999.3224              1020.1140              1043.4335
 Red. masses --      1.2529                 1.9822                 2.4847
 Frc consts  --      0.7372                 1.2153                 1.5939
 IR Inten    --      0.6814                 4.5368                19.6880

                     22                     23                     24
                      A                      A                      A
 Frequencies --   1078.9872              1096.5816              1116.9941
 Red. masses --      1.9219                 3.1859                 2.4371
 Frc consts  --      1.3183                 2.2571                 1.7916
 IR Inten    --      2.9115                57.9944                42.8912

                     25                     26                     27
                      A                      A                      A
 Frequencies --   1122.6805              1207.7005              1223.6948
 Red. masses --      2.1580                 1.3197                 1.2470
 Frc consts  --      1.6025                 1.1341                 1.1002
 IR Inten    --     37.9173                19.5270                 7.6737

                     28                     29                     30
                      A                      A                      A
 Frequencies --   1240.0857              1276.6099              1299.3563
 Red. masses --      1.2963                 1.2785                 1.2891
 Frc consts  --      1.1745                 1.2276                 1.2823
 IR Inten    --      5.0457                 2.8197                18.3389

                     31                     32                     33
                      A                      A                      A
 Frequencies --   1348.4505              1358.5497              1368.3432
 Red. masses --      1.3527                 1.3068                 1.5043
 Frc consts  --      1.4492                 1.4211                 1.6595
 IR Inten    --     13.4044                19.3959                 1.4030

                     34                     35                     36
                      A                      A                      A
 Frequencies --   1399.2832              1420.1636              1428.1752
 Red. masses --      1.5235                 1.2974                 1.3281
 Frc consts  --      1.7576                 1.5416                 1.5960
 IR Inten    --     11.3943                 8.4161                 4.1631

                     37                     38                     39
                      A                      A                      A
 Frequencies --   1446.5777              1469.4710              1500.9276
 Red. masses --      1.0968                 1.0924                 1.0927
 Frc consts  --      1.3523                 1.3898                 1.4504
 IR Inten    --      5.0567                 3.1477                 1.5506

                     40                     41                     42
                      A                      A                      A
 Frequencies --   1722.7870              1829.2850              2911.5075
 Red. masses --      6.8911                 9.8509                 1.0801
 Frc consts  --     12.0505                19.4217                 5.3944
 IR Inten    --      3.0035               195.6787                51.0641

                     43                     44                     45
                      A                      A                      A
 Frequencies --   2920.8960              2979.8927              3016.6435
 Red. masses --      1.0838                 1.0707                 1.0614
 Frc consts  --      5.4482                 5.6016                 5.6911
 IR Inten    --     63.5521                50.0271                27.7124

                     46                     47                     48
                      A                      A                      A
 Frequencies --   3031.0894              3051.7125              3092.4328
 Red. masses --      1.0630                 1.0984                 1.0943
 Frc consts  --      5.7543                 6.0267                 6.1656
 IR Inten    --      6.4094                29.7385                36.5367

                     49                     50                     51
                      A                      A                      A
 Frequencies --   3109.1715              3152.9789              3175.6418
 Red. masses --      1.0984                 1.0837                 1.0978
 Frc consts  --      6.2558                 6.3477                 6.5231
 IR Inten    --      9.8271                 6.5928                22.2006

 - Thermochemistry -
 -------------------
 Temperature   298.150 Kelvin.  Pressure   1.00000 Atm.
 Atom     1 has atomic number  8 and mass  15.99491

 Molecular mass:   126.06808 amu.
 Principal axes and moments of inertia in atomic units:
                           1         2         3
     Eigenvalues --   423.477741998.073072309.02096
           X            0.99997  -0.00768   0.00084
           Y            0.00769   0.99995  -0.00697
           Z           -0.00078   0.00697   0.99998
 This molecule is an asymmetric top.
 Rotational symmetry number  1.
 Rotational temperatures (Kelvin)      0.20453     0.04335     0.03751
 Rotational constants (GHZ):           4.26171     0.90324     0.78160
 Zero-point vibrational energy     417207.0 (Joules/Mol)
                                   99.71486 (Kcal/Mol)
 Warning -- explicit consideration of  11 degrees of freedom as
           vibrations may cause significant error
 Vibrational temperatures:     63.25   100.81   146.31   259.56   399.97
          (Kelvin)            431.33   555.16   594.73   713.17   763.80
                              832.49   978.95  1125.19  1162.71  1221.08
                             1281.83  1337.43  1401.36  1437.80  1467.71
                             1501.27  1552.42  1577.73  1607.10  1615.28
                             1737.61  1760.62  1784.20  1836.75  1869.48
                             1940.12  1954.65  1968.74  2013.25  2043.30
                             2054.82  2081.30  2114.24  2159.50  2478.70
                             2631.93  4189.00  4202.51  4287.40  4340.27
                             4361.06  4390.73  4449.32  4473.40  4536.43
                             4569.03

 Zero-point correction=                           0.158906 (Hartree/Particle)
 Thermal correction to Energy=                    0.167621
 Thermal correction to Enthalpy=                  0.168566
 Thermal correction to Gibbs Free Energy=         0.124279
 Sum of electronic and zero-point Energies=           -423.040910
 Sum of electronic and thermal Energies=              -423.032194
 Sum of electronic and thermal Enthalpies=            -423.031250
 Sum of electronic and thermal Free Energies=         -423.075536

                     E (Thermal)             CV                S
                      KCal/Mol        Cal/Mol-Kelvin    Cal/Mol-Kelvin
 Total                  105.184             31.737             93.208
 Electronic               0.000              0.000              0.000
 Translational            0.889              2.981             40.409
 Rotational               0.889              2.981             29.059
 Vibrational            103.407             25.775             23.741
 Vibration     1          0.595              1.980              5.072
 Vibration     2          0.598              1.968              4.151
 Vibration     3          0.604              1.948              3.422
 Vibration     4          0.629              1.866              2.324
 Vibration     5          0.679              1.714              1.546
 Vibration     6          0.692              1.674              1.418
 Vibration     7          0.755              1.500              1.016
 Vibration     8          0.777              1.441              0.915
 Vibration     9          0.851              1.260              0.669
 Vibration    10          0.886              1.182              0.585
 Vibration    11          0.935              1.078              0.488

 Optimization completed.
    -- Stationary point found.
 Normal termination of Gaussian 09 at Mon Jan 27 15:51:43 2020.
