 Gaussian 09, Revision D.01,
 Gaussian 09:  ES64L-G09RevD.01 24-Apr-2013

 -----------------------------
 # b3lyp 6-31G(2df,p) opt Freq
 -----------------------------

 -----
 titel
 -----
 Symbolic Z-matrix:
 Charge =  0 Multiplicity = 1

 SCF Done:  E(RB3LYP) =  -423.129713371     A.U. after   13 cycles
 Optimization completed.
    -- Stationary point found.
 Normal termination of Gaussian 09 at Mon Jan 27 16:15:20 2020.

 ----------------------------------------------------------------------
 #N Geom=AllCheck Guess=TCheck SCRF=Check GenChk RB3LYP/6-31G(2df,p) Fr
 eq
 ----------------------------------------------------------------------

 Structure from the checkpoint file:  "/scratch/puck/g09_520c0f81-58f2-4f43-8c98-3ff42df895b1/Gau-47132.chk"
 -----
 titel
 -----
 Charge =  0 Multiplicity = 1

                         Standard orientation:
 ---------------------------------------------------------------------
 Center     Atomic      Atomic             Coordinates (Angstroms)
 Number     Number       Type             X           Y           Z
 ---------------------------------------------------------------------
      1          6           0        2.188709    1.169092   -0.217673
      2          6           0        1.336314   -0.059704    0.009102
      3          6           0        1.944435   -1.369818   -0.443282
      4          8           0        0.682447   -0.115413    1.298879
      5          6           0       -0.120746    0.076207    0.152793
      6          6           0       -1.021694    1.308390   -0.137706
      7          6           0       -2.082708    0.308050   -0.625937
      8          8           0       -2.394800   -0.538731    0.479022
      9          6           0       -1.231027   -0.854577   -0.304150
     10          1           0        2.386383    1.313924   -1.285621
     11          1           0        1.700345    2.064161    0.172847
     12          1           0        3.154193    1.058729    0.287984
     13          1           0        2.902600   -1.535291    0.061336
     14          1           0        1.289302   -2.210727   -0.206716
     15          1           0        2.133033   -1.361644   -1.522357
     16          1           0       -1.320243    1.900444    0.729754
     17          1           0       -0.618475    1.958267   -0.918899
     18          1           0       -2.827487    0.425826   -1.403233
     19          1           0       -1.180527   -1.846381   -0.737183
 ---------------------------------------------------------------------

 SCF Done:  E(RB3LYP) =  -423.129713371     A.U. after    1 cycles

 The electronic state is 1-A.
 Alpha  occ. eigenvalues --  -19.15396 -19.14526 -10.24522 -10.24342 -10.24338
 Alpha  occ. eigenvalues --  -10.23913 -10.19368 -10.18505 -10.18454  -1.08514
 Alpha  occ. eigenvalues --   -1.06466  -0.79562  -0.77157  -0.70482  -0.66512
 Alpha  occ. eigenvalues --   -0.62189  -0.58844  -0.54532  -0.51548  -0.47851
 Alpha  occ. eigenvalues --   -0.45442  -0.44522  -0.43702  -0.41942  -0.39817
 Alpha  occ. eigenvalues --   -0.39454  -0.38963  -0.37938  -0.35562  -0.34428
 Alpha  occ. eigenvalues --   -0.30285  -0.28311  -0.27489  -0.24777
 Alpha virt. eigenvalues --    0.07370   0.08849   0.09264   0.11017   0.11444
 Alpha virt. eigenvalues --    0.12727   0.13453   0.15715   0.16232   0.16572
 Alpha virt. eigenvalues --    0.17259   0.17961   0.18497   0.19240   0.19813

 Mulliken charges:
               1
     1  C   -0.455357
     2  C    0.268921
     3  C   -0.453309
     4  O   -0.319147
     5  C    0.404593
     6  C   -0.358630
     7  C    0.027717
     8  O   -0.238497
     9  C   -0.084803
    10  H    0.119321
    11  H    0.131783
    12  H    0.127661
    13  H    0.128034
    14  H    0.129010
    15  H    0.119942
    16  H    0.125351
    17  H    0.111471
    18  H    0.109477
    19  H    0.106462
 Sum of Mulliken charges =   0.00000

 Dipole moment (field-independent basis, Debye):
    X=              1.2515    Y=              0.6409    Z=             -3.0723  Tot=              3.3788
 Quadrupole moment (field-independent basis, Debye-Ang):
   XX=            -53.4971   YY=            -50.4724   ZZ=            -55.6333
   XY=             -1.9882   XZ=              2.2342   YZ=              1.0508

  Exact polarizability:  90.875  -2.485  74.754   0.921   0.169  61.078
 Approx polarizability: 121.083  -3.808 106.917  -0.837  -3.270 102.094

                      1                      2                      3
                      A                      A                      A
 Frequencies --    118.6586               151.6744               163.1389
 Red. masses --      3.1911                 1.9228                 1.7468
 Frc consts  --      0.0265                 0.0261                 0.0274
 IR Inten    --      0.1705                 0.2766                 0.8798

                      4                      5                      6
                      A                      A                      A
 Frequencies --    189.8297               208.2318               295.7413
 Red. masses --      1.5762                 1.3190                 2.6611
 Frc consts  --      0.0335                 0.0337                 0.1371
 IR Inten    --      0.1554                 0.1539                 0.9876

                      7                      8                      9
                      A                      A                      A
 Frequencies --    362.2542               405.1509               443.8063
 Red. masses --      2.2953                 2.9569                 3.2001
 Frc consts  --      0.1775                 0.2860                 0.3714
 IR Inten    --      2.4305                 0.7658                 0.3727

                     10                     11                     12
                      A                      A                      A
 Frequencies --    467.4943               529.1172               612.9202
 Red. masses --      3.6339                 3.0267                 5.8575
 Frc consts  --      0.4679                 0.4993                 1.2965
 IR Inten    --      6.9544                 0.4707                27.2459

                     13                     14                     15
                      A                      A                      A
 Frequencies --    706.2864               790.1751               835.3893
 Red. masses --      4.0976                 5.4973                 2.3859
 Frc consts  --      1.2043                 2.0223                 0.9810
 IR Inten    --      5.0201                 4.3323                 1.6643

                     16                     17                     18
                      A                      A                      A
 Frequencies --    854.9047               892.9356               926.7885
 Red. masses --      2.0133                 2.7149                 3.4234
 Frc consts  --      0.8670                 1.2754                 1.7325
 IR Inten    --     43.2262                 7.9329                 5.6822

                     19                     20                     21
                      A                      A                      A
 Frequencies --    939.1607               947.0615               975.9291
 Red. masses --      1.9538                 1.4378                 2.1431
 Frc consts  --      1.0153                 0.7598                 1.2026
 IR Inten    --     14.2697                 0.4445                 8.4056

                     22                     23                     24
                      A                      A                      A
 Frequencies --    994.1503              1029.2474              1055.6033
 Red. masses --      1.4564                 1.6727                 2.0568
 Frc consts  --      0.8481                 1.0440                 1.3504
 IR Inten    --      6.1971                 5.7369                 4.1912

                     25                     26                     27
                      A                      A                      A
 Frequencies --   1104.4081              1127.4707              1143.2171
 Red. masses --      2.3892                 2.0549                 1.3990
 Frc consts  --      1.7169                 1.5391                 1.0772
 IR Inten    --      2.3155                17.2911                16.6968

                     28                     29                     30
                      A                      A                      A
 Frequencies --   1179.2152              1217.6794              1240.5727
 Red. masses --      1.8786                 1.5337                 1.7624
 Frc consts  --      1.5391                 1.3398                 1.5981
 IR Inten    --     20.1151                18.0137                 3.8439

                     31                     32                     33
                      A                      A                      A
 Frequencies --   1245.6037              1272.2702              1367.8959
 Red. masses --      2.6041                 1.7443                 3.6226
 Frc consts  --      2.3805                 1.6635                 3.9937
 IR Inten    --     15.0241                 7.7373                14.6569

                     34                     35                     36
                      A                      A                      A
 Frequencies --   1407.0092              1415.8641              1456.1699
 Red. masses --      1.3599                 1.2307                 1.2705
 Frc consts  --      1.5861                 1.4536                 1.5872
 IR Inten    --     12.4160                 1.2840                 5.2755

                     37                     38                     39
                      A                      A                      A
 Frequencies --   1472.1336              1473.2053              1484.9302
 Red. masses --      1.3156                 1.0621                 1.0467
 Frc consts  --      1.6799                 1.3582                 1.3598
 IR Inten    --      7.5307                 0.4529                 2.5885

                     40                     41                     42
                      A                      A                      A
 Frequencies --   1498.7855              1530.8101              3032.6149
 Red. masses --      1.0639                 2.1978                 1.0370
 Frc consts  --      1.4080                 3.0345                 5.6190
 IR Inten    --     11.5679                 7.1491                11.4387

                     43                     44                     45
                      A                      A                      A
 Frequencies --   3037.8022              3066.1012              3093.3538
 Red. masses --      1.0371                 1.0579                 1.1007
 Frc consts  --      5.6388                 5.8594                 6.2057
 IR Inten    --     27.0543                17.5122                 0.2903

                     46                     47                     48
                      A                      A                      A
 Frequencies --   3098.4833              3127.2429              3129.9368
 Red. masses --      1.1003                 1.1074                 1.1004
 Frc consts  --      6.2238                 6.3808                 6.3512
 IR Inten    --     34.4024                14.0341                12.7279

                     49                     50                     51
                      A                      A                      A
 Frequencies --   3131.3995              3187.9464              3203.2669
 Red. masses --      1.1004                 1.0885                 1.1005
 Frc consts  --      6.3573                 6.5179                 6.6530
 IR Inten    --     18.3718                12.4046                17.8016

 - Thermochemistry -
 -------------------
 Temperature   298.150 Kelvin.  Pressure   1.00000 Atm.
 Atom     1 has atomic number  6 and mass  12.00000

 Molecular mass:   126.06808 amu.
 Principal axes and moments of inertia in atomic units:
                           1         2         3
     Eigenvalues --   533.982941424.032311617.00238
           X            0.99993  -0.01125  -0.00372
           Y            0.01136   0.99945   0.03123
           Z            0.00337  -0.03127   0.99951
 This molecule is an asymmetric top.
 Rotational symmetry number  1.
 Warning -- assumption of classical behavior for rotation
           may cause significant error
 Rotational temperatures (Kelvin)      0.16220     0.06082     0.05356
 Rotational constants (GHZ):           3.37977     1.26735     1.11610
 Zero-point vibrational energy     410564.6 (Joules/Mol)
                                   98.12729 (Kcal/Mol)
 Warning -- explicit consideration of  12 degrees of freedom as
           vibrations may cause significant error
 Vibrational temperatures:    170.72   218.23   234.72   273.12   299.60
          (Kelvin)            425.51   521.20   582.92   638.54   672.62
                              761.28   881.85  1016.19  1136.88  1201.94
                             1230.02  1284.73  1333.44  1351.24  1362.61
                             1404.14  1430.36  1480.86  1518.78  1588.99
                             1622.18  1644.83  1696.63  1751.97  1784.91
                             1792.14  1830.51  1968.09  2024.37  2037.11
                             2095.10  2118.07  2119.61  2136.48  2156.42
                             2202.49  4363.25  4370.71  4411.43  4450.64
                             4458.02  4499.40  4503.28  4505.38  4586.74
                             4608.78

 Zero-point correction=                           0.156376 (Hartree/Particle)
 Thermal correction to Energy=                    0.165104
 Thermal correction to Enthalpy=                  0.166048
 Thermal correction to Gibbs Free Energy=         0.123352
 Sum of electronic and zero-point Energies=           -422.973338
 Sum of electronic and thermal Energies=              -422.964609
 Sum of electronic and thermal Enthalpies=            -422.963665
 Sum of electronic and thermal Free Energies=         -423.006361

                     E (Thermal)             CV                S
                      KCal/Mol        Cal/Mol-Kelvin    Cal/Mol-Kelvin
 Total                  103.604             33.409             89.861
 Electronic               0.000              0.000              0.000
 Translational            0.889              2.981             40.409
 Rotational               0.889              2.981             28.599
 Vibrational            101.827             27.447             20.854
 Vibration     1          0.609              1.934              3.122
 Vibration     2          0.619              1.901              2.651
 Vibration     3          0.623              1.888              2.513
 Vibration     4          0.633              1.854              2.229
 Vibration     5          0.642              1.828              2.059
 Vibration     6          0.690              1.682              1.441
 Vibration     7          0.736              1.550              1.112
 Vibration     8          0.770              1.459              0.944
 Vibration     9          0.803              1.375              0.815
 Vibration    10          0.825              1.322              0.745
 Vibration    11          0.884              1.186              0.589
 Vibration    12          0.972              1.005              0.428

 Normal termination of Gaussian 09 at Mon Jan 27 16:57:16 2020.
