 Gaussian 09, Revision D.01,
 Gaussian 09:  ES64L-G09RevD.01 24-Apr-2013

 -----------------------------
 # b3lyp 6-31G(2df,p) opt Freq
 -----------------------------

 -----
 titel
 -----
 Symbolic Z-matrix:
 Charge =  0 Multiplicity = 1

 SCF Done:  E(RB3LYP) =  -423.174266003     A.U. after   14 cycles
 Optimization completed.
    -- Stationary point found.
 Normal termination of Gaussian 09 at Mon Jan 27 16:18:32 2020.

 ----------------------------------------------------------------------
 #N Geom=AllCheck Guess=TCheck SCRF=Check GenChk RB3LYP/6-31G(2df,p) Fr
 eq
 ----------------------------------------------------------------------

 Structure from the checkpoint file:  "/scratch/puck/g09_fb40b728-a35d-4023-9a5c-ca776ea443c0/Gau-69621.chk"
 -----
 titel
 -----
 Charge =  0 Multiplicity = 1

                         Standard orientation:
 ---------------------------------------------------------------------
 Center     Atomic      Atomic             Coordinates (Angstroms)
 Number     Number       Type             X           Y           Z
 ---------------------------------------------------------------------
      1          6           0       -0.283704   -1.862692   -0.674973
      2          6           0       -0.680710   -0.587892    0.059405
      3          8           0       -1.274159   -0.879174    1.312791
      4          6           0       -1.596939    0.365624   -0.773786
      5          6           0       -0.515717    1.450579   -0.744840
      6          6           0       -0.167662    1.801625    0.650163
      7          6           0        0.410911    0.511085    0.083177
      8          6           0        1.861488    0.357725   -0.032612
      9          8           0        2.468241   -0.686028    0.063517
     10          1           0       -1.166803   -2.497535   -0.796443
     11          1           0        0.129672   -1.640067   -1.662872
     12          1           0        0.483773   -2.409364   -0.120819
     13          1           0       -0.664192   -1.440177    1.805220
     14          1           0       -1.803746   -0.025366   -1.771565
     15          1           0       -2.537320    0.631757   -0.284545
     16          1           0       -0.212881    2.060516   -1.586982
     17          1           0        0.552223    2.603570    0.782435
     18          1           0       -0.900738    1.704862    1.445131
     19          1           0        2.401361    1.317097   -0.219223
 ---------------------------------------------------------------------

 SCF Done:  E(RB3LYP) =  -423.174266003     A.U. after    1 cycles

 The electronic state is 1-A.
 Alpha  occ. eigenvalues --  -19.14019 -19.13007 -10.26694 -10.24888 -10.21599
 Alpha  occ. eigenvalues --  -10.20560 -10.20497 -10.19173 -10.17464  -1.03753
 Alpha  occ. eigenvalues --   -1.02566  -0.90704  -0.76193  -0.71127  -0.66404
 Alpha  occ. eigenvalues --   -0.61648  -0.59198  -0.54040  -0.50547  -0.48612
 Alpha  occ. eigenvalues --   -0.47296  -0.44149  -0.43198  -0.41035  -0.40479
 Alpha  occ. eigenvalues --   -0.39065  -0.38757  -0.37190  -0.35605  -0.31718
 Alpha  occ. eigenvalues --   -0.31590  -0.28192  -0.26506  -0.24451
 Alpha virt. eigenvalues --   -0.01965   0.07248   0.09762   0.11011   0.12000
 Alpha virt. eigenvalues --    0.12141   0.13408   0.14047   0.15661   0.16877
 Alpha virt. eigenvalues --    0.17666   0.18329   0.19036   0.20830   0.22463

 Mulliken charges:
               1
     1  C   -0.452320
     2  C    0.300241
     3  O   -0.466125
     4  C   -0.259217
     5  C   -0.103110
     6  C   -0.329986
     7  C    0.245578
     8  C    0.042002
     9  O   -0.284330
    10  H    0.117556
    11  H    0.118568
    12  H    0.135102
    13  H    0.281496
    14  H    0.110467
    15  H    0.113695
    16  H    0.103321
    17  H    0.123067
    18  H    0.139852
    19  H    0.064143
 Sum of Mulliken charges =   0.00000

 Dipole moment (field-independent basis, Debye):
    X=             -1.0852    Y=              1.5056    Z=             -0.5607  Tot=              1.9388
 Quadrupole moment (field-independent basis, Debye-Ang):
   XX=            -61.7200   YY=            -50.3645   ZZ=            -50.7901
   XY=              3.6133   XZ=              1.8601   YZ=             -1.1930

  Exact polarizability:  82.783  -3.044  82.904   1.808  -0.090  65.451
 Approx polarizability: 123.961 -15.122 123.667   3.188  -3.899 101.300

                      1                      2                      3
                      A                      A                      A
 Frequencies --     82.9100               168.7324               193.3349
 Red. masses --      4.4541                 3.6625                 3.9622
 Frc consts  --      0.0180                 0.0614                 0.0873
 IR Inten    --      5.6495                 2.8888                 8.5536

                      4                      5                      6
                      A                      A                      A
 Frequencies --    231.2963               259.2401               310.2251
 Red. masses --      2.5236                 1.0547                 1.1502
 Frc consts  --      0.0795                 0.0418                 0.0652
 IR Inten    --      0.9322                 0.2884                71.0031

                      7                      8                      9
                      A                      A                      A
 Frequencies --    334.8962               361.9163               411.9037
 Red. masses --      2.4255                 2.8667                 2.4214
 Frc consts  --      0.1603                 0.2212                 0.2421
 IR Inten    --      2.6940                19.9586                 1.1132

                     10                     11                     12
                      A                      A                      A
 Frequencies --    441.7139               465.6430               548.2323
 Red. masses --      2.1517                 3.9260                 4.2419
 Frc consts  --      0.2474                 0.5015                 0.7512
 IR Inten    --      4.4838                11.1366                22.4784

                     13                     14                     15
                      A                      A                      A
 Frequencies --    632.5562               702.0380               795.6826
 Red. masses --      3.9976                 3.6458                 5.1334
 Frc consts  --      0.9424                 1.0587                 1.9148
 IR Inten    --      1.0039                15.5846                 4.9821

                     16                     17                     18
                      A                      A                      A
 Frequencies --    854.4456               874.4344               897.1004
 Red. masses --      2.4480                 1.7381                 1.6347
 Frc consts  --      1.0530                 0.7830                 0.7751
 IR Inten    --      3.4565                16.5956                 4.6355

                     19                     20                     21
                      A                      A                      A
 Frequencies --    947.4175               960.4889               974.7591
 Red. masses --      1.6861                 1.6035                 1.7469
 Frc consts  --      0.8917                 0.8715                 0.9779
 IR Inten    --      7.7023                33.8866                32.9340

                     22                     23                     24
                      A                      A                      A
 Frequencies --   1025.8382              1036.7550              1052.3801
 Red. masses --      1.4003                 2.0908                 1.4386
 Frc consts  --      0.8682                 1.3241                 0.9387
 IR Inten    --      2.0754                14.5257                 1.4327

                     25                     26                     27
                      A                      A                      A
 Frequencies --   1083.3126              1109.7793              1138.6479
 Red. masses --      1.3930                 1.5696                 1.7485
 Frc consts  --      0.9632                 1.1390                 1.3356
 IR Inten    --      5.3686                32.8331                 9.4702

                     28                     29                     30
                      A                      A                      A
 Frequencies --   1179.8131              1214.3888              1246.4613
 Red. masses --      2.2117                 2.0188                 2.0028
 Frc consts  --      1.8139                 1.7541                 1.8334
 IR Inten    --     35.8939                17.7800                41.3224

                     31                     32                     33
                      A                      A                      A
 Frequencies --   1277.6188              1320.7575              1359.5826
 Red. masses --      1.9393                 2.3243                 2.5213
 Frc consts  --      1.8651                 2.3888                 2.7459
 IR Inten    --     10.3301                46.7553                18.9675

                     34                     35                     36
                      A                      A                      A
 Frequencies --   1376.8150              1412.9727              1437.3691
 Red. masses --      1.8327                 1.2697                 1.3570
 Frc consts  --      2.0468                 1.4936                 1.6519
 IR Inten    --     36.6847                11.1020                11.0404

                     37                     38                     39
                      A                      A                      A
 Frequencies --   1473.5848              1484.8094              1492.4180
 Red. masses --      1.1396                 1.0642                 1.1581
 Frc consts  --      1.4580                 1.3824                 1.5197
 IR Inten    --      4.1447                 4.3199                 1.0986

                     40                     41                     42
                      A                      A                      A
 Frequencies --   1494.3910              1790.9969              2840.5277
 Red. masses --      1.1127                10.3175                 1.0808
 Frc consts  --      1.4640                19.4991                 5.1382
 IR Inten    --      3.6292               256.4909               126.6175

                     43                     44                     45
                      A                      A                      A
 Frequencies --   3041.1398              3066.6467              3115.7331
 Red. masses --      1.0351                 1.0587                 1.1021
 Frc consts  --      5.6402                 5.8662                 6.3036
 IR Inten    --     12.8366                29.6262                17.5528

                     46                     47                     48
                      A                      A                      A
 Frequencies --   3122.8385              3124.2797              3126.9629
 Red. masses --      1.1024                 1.0552                 1.1051
 Frc consts  --      6.3344                 6.0687                 6.3663
 IR Inten    --      9.1091                 8.5032                21.0631

                     49                     50                     51
                      A                      A                      A
 Frequencies --   3190.8365              3213.4443              3798.5344
 Red. masses --      1.0942                 1.1154                 1.0658
 Frc consts  --      6.5637                 6.7862                 9.0604
 IR Inten    --     11.0164                 4.0920                19.0920

 - Thermochemistry -
 -------------------
 Temperature   298.150 Kelvin.  Pressure   1.00000 Atm.
 Atom     1 has atomic number  6 and mass  12.00000

 Molecular mass:   126.06808 amu.
 Principal axes and moments of inertia in atomic units:
                           1         2         3
     Eigenvalues --   844.253011049.468071413.43928
           X            0.99807   0.06007   0.01552
           Y           -0.06054   0.99766   0.03166
           Z           -0.01358  -0.03254   0.99938
 This molecule is an asymmetric top.
 Rotational symmetry number  1.
 Warning -- assumption of classical behavior for rotation
           may cause significant error
 Rotational temperatures (Kelvin)      0.10259     0.08253     0.06128
 Rotational constants (GHZ):           2.13768     1.71967     1.27684
 Zero-point vibrational energy     413301.4 (Joules/Mol)
                                   98.78141 (Kcal/Mol)
 Warning -- explicit consideration of  12 degrees of freedom as
           vibrations may cause significant error
 Vibrational temperatures:    119.29   242.77   278.17   332.78   372.99
          (Kelvin)            446.34   481.84   520.72   592.64   635.53
                              669.96   788.78   910.11  1010.07  1144.81
                             1229.36  1258.11  1290.73  1363.12  1381.93
                             1402.46  1475.95  1491.66  1514.14  1558.64
                             1596.72  1638.26  1697.49  1747.23  1793.38
                             1838.21  1900.27  1956.13  1980.93  2032.95
                             2068.05  2120.16  2136.31  2147.25  2150.09
                             2576.84  4086.88  4375.52  4412.22  4482.84
                             4493.06  4495.14  4499.00  4590.90  4623.42
                             5465.24

 Zero-point correction=                           0.157418 (Hartree/Particle)
 Thermal correction to Energy=                    0.166264
 Thermal correction to Enthalpy=                  0.167209
 Thermal correction to Gibbs Free Energy=         0.124351
 Sum of electronic and zero-point Energies=           -423.016848
 Sum of electronic and thermal Energies=              -423.008002
 Sum of electronic and thermal Enthalpies=            -423.007057
 Sum of electronic and thermal Free Energies=         -423.049915

                     E (Thermal)             CV                S
                      KCal/Mol        Cal/Mol-Kelvin    Cal/Mol-Kelvin
 Total                  104.332             34.102             90.201
 Electronic               0.000              0.000              0.000
 Translational            0.889              2.981             40.409
 Rotational               0.889              2.981             28.617
 Vibrational            102.555             28.141             21.176
 Vibration     1          0.600              1.961              3.821
 Vibration     2          0.625              1.881              2.450
 Vibration     3          0.635              1.849              2.196
 Vibration     4          0.653              1.793              1.869
 Vibration     5          0.668              1.747              1.667
 Vibration     6          0.699              1.654              1.361
 Vibration     7          0.716              1.606              1.236
 Vibration     8          0.736              1.551              1.114
 Vibration     9          0.776              1.444              0.920
 Vibration    10          0.801              1.379              0.821
 Vibration    11          0.823              1.326              0.750
 Vibration    12          0.903              1.144              0.548

 Normal termination of Gaussian 09 at Mon Jan 27 17:14:54 2020.
