 Gaussian 09, Revision D.01,
 Gaussian 09:  ES64L-G09RevD.01 24-Apr-2013

 -----------------------------
 # b3lyp 6-31G(2df,p) opt Freq
 -----------------------------

 -----
 titel
 -----
 Symbolic Z-matrix:
 Charge =  0 Multiplicity = 1

 SCF Done:  E(RB3LYP) =  -423.197150293     A.U. after   13 cycles
 Optimization completed.
    -- Stationary point found.
 Normal termination of Gaussian 09 at Mon Jan 27 18:09:37 2020.

 ----------------------------------------------------------------------
 #N Geom=AllCheck Guess=TCheck SCRF=Check GenChk RB3LYP/6-31G(2df,p) Fr
 eq
 ----------------------------------------------------------------------

 Structure from the checkpoint file:  "/scratch/puck/g09_2e97c4ee-0b7a-47ad-a880-738c7a0fc531/Gau-81462.chk"
 -----
 titel
 -----
 Charge =  0 Multiplicity = 1

                         Standard orientation:
 ---------------------------------------------------------------------
 Center     Atomic      Atomic             Coordinates (Angstroms)
 Number     Number       Type             X           Y           Z
 ---------------------------------------------------------------------
      1          6           0        2.484097    0.000000   -0.215304
      2          6           0        0.979216    0.000003   -0.090569
      3          6           0        0.229721    1.258569   -0.609568
      4          6           0       -1.160841    1.021104    0.000470
      5          8           0       -1.865625   -0.000006   -0.744327
      6          6           0       -1.160835   -1.021108    0.000475
      7          6           0        0.229728   -1.258568   -0.609562
      8          6           0       -0.807709    0.000002    1.129328
      9          8           0        0.585909    0.000006    1.303987
     10          1           0        2.910555    0.887409    0.261814
     11          1           0        2.910552   -0.887285    0.262049
     12          1           0        2.779028   -0.000140   -1.268831
     13          1           0        0.699982    2.158264   -0.199792
     14          1           0        0.182501    1.335761   -1.698018
     15          1           0       -1.772256    1.906988    0.178375
     16          1           0       -1.772245   -1.906995    0.178385
     17          1           0        0.699992   -2.158261   -0.199787
     18          1           0        0.182508   -1.335760   -1.698012
     19          1           0       -1.343154    0.000003    2.074926
 ---------------------------------------------------------------------

 SCF Done:  E(RB3LYP) =  -423.197150293     A.U. after    1 cycles

 The electronic state is 1-A.
 Alpha  occ. eigenvalues --  -19.14213 -19.13151 -10.24032 -10.23145 -10.23134
 Alpha  occ. eigenvalues --  -10.23120 -10.18183 -10.18182 -10.17968  -1.06849
 Alpha  occ. eigenvalues --   -1.02104  -0.79242  -0.75151  -0.74312  -0.67831
 Alpha  occ. eigenvalues --   -0.61452  -0.57302  -0.54829  -0.51738  -0.48316
 Alpha  occ. eigenvalues --   -0.45184  -0.43664  -0.43071  -0.41776  -0.40754
 Alpha  occ. eigenvalues --   -0.38241  -0.37458  -0.37038  -0.35105  -0.34053
 Alpha  occ. eigenvalues --   -0.30315  -0.30300  -0.25858  -0.24197
 Alpha virt. eigenvalues --    0.07775   0.09401   0.11351   0.13166   0.13537
 Alpha virt. eigenvalues --    0.14610   0.14805   0.16191   0.16764   0.17941
 Alpha virt. eigenvalues --    0.18095   0.18382   0.19283   0.19356   0.21484

 Mulliken charges:
               1
     1  C   -0.476233
     2  C    0.354445
     3  C   -0.249446
     4  C    0.056896
     5  O   -0.305677
     6  C    0.056895
     7  C   -0.249444
     8  C    0.056778
     9  O   -0.285408
    10  H    0.125146
    11  H    0.125151
    12  H    0.121137
    13  H    0.101509
    14  H    0.108522
    15  H    0.079885
    16  H    0.079885
    17  H    0.101509
    18  H    0.108522
    19  H    0.089929
 Sum of Mulliken charges =   0.00000

 Dipole moment (field-independent basis, Debye):
    X=              0.7916    Y=              0.0000    Z=             -0.1064  Tot=              0.7987
 Quadrupole moment (field-independent basis, Debye-Ang):
   XX=            -55.1370   YY=            -49.8699   ZZ=            -54.8450
   XY=             -0.0001   XZ=             -5.1577   YZ=              0.0000

  Exact polarizability:  78.977   0.000  74.322  -3.578   0.000  65.491
 Approx polarizability: 108.865   0.000 108.453   0.145   0.000 104.213

                      1                      2                      3
                      A                      A                      A
 Frequencies --    194.6603               250.4431               284.0352
 Red. masses --      1.0312                 2.9225                 2.5100
 Frc consts  --      0.0230                 0.1080                 0.1193
 IR Inten    --      0.0684                 0.4576                 0.0330

                      4                      5                      6
                      A                      A                      A
 Frequencies --    389.4717               392.8572               464.5874
 Red. masses --      2.8033                 1.9382                 2.2280
 Frc consts  --      0.2505                 0.1762                 0.2833
 IR Inten    --      6.3744                 2.2621                 5.2650

                      7                      8                      9
                      A                      A                      A
 Frequencies --    554.9694               608.0966               645.6526
 Red. masses --      4.6483                 3.6863                 5.1400
 Frc consts  --      0.8435                 0.8031                 1.2624
 IR Inten    --     10.7779                 1.7649                 0.4682

                     10                     11                     12
                      A                      A                      A
 Frequencies --    673.8253               777.2554               833.1431
 Red. masses --      5.4779                 4.0411                 2.8150
 Frc consts  --      1.4654                 1.4384                 1.1513
 IR Inten    --      0.9416                 0.3952                22.2210

                     13                     14                     15
                      A                      A                      A
 Frequencies --    850.7816               853.5247               876.9261
 Red. masses --      1.9728                 2.5574                 2.3469
 Frc consts  --      0.8413                 1.0977                 1.0633
 IR Inten    --      0.1364                14.0890                 8.9429

                     16                     17                     18
                      A                      A                      A
 Frequencies --    885.8904               903.0146               966.9968
 Red. masses --      2.0470                 3.0255                 2.5948
 Frc consts  --      0.9465                 1.4535                 1.4296
 IR Inten    --      4.9766                 0.3240                 5.0802

                     19                     20                     21
                      A                      A                      A
 Frequencies --    984.9400               990.5010              1012.5538
 Red. masses --      1.8340                 2.3003                 1.7634
 Frc consts  --      1.0482                 1.3297                 1.0652
 IR Inten    --      8.1878                37.2081                 6.5083

                     22                     23                     24
                      A                      A                      A
 Frequencies --   1058.5288              1082.5216              1097.6050
 Red. masses --      2.6943                 3.3533                 2.0794
 Frc consts  --      1.7787                 2.3152                 1.4760
 IR Inten    --      1.9484                89.0906                22.5241

                     25                     26                     27
                      A                      A                      A
 Frequencies --   1103.2657              1129.0798              1195.7619
 Red. masses --      1.5094                 1.7678                 2.0963
 Frc consts  --      1.0824                 1.3278                 1.7660
 IR Inten    --      4.1916                13.9396                 0.0620

                     28                     29                     30
                      A                      A                      A
 Frequencies --   1199.6206              1219.4339              1258.4018
 Red. masses --      1.4880                 1.4099                 1.6230
 Frc consts  --      1.2617                 1.2352                 1.5143
 IR Inten    --      3.1072                 1.9988                 6.0876

                     31                     32                     33
                      A                      A                      A
 Frequencies --   1278.2771              1294.6671              1305.5772
 Red. masses --      1.5739                 1.7962                 1.4058
 Frc consts  --      1.5152                 1.7739                 1.4118
 IR Inten    --      0.0705                 1.5477                 6.3756

                     34                     35                     36
                      A                      A                      A
 Frequencies --   1324.2979              1352.1310              1361.2492
 Red. masses --      1.7951                 1.8392                 1.5866
 Frc consts  --      1.8548                 1.9811                 1.7322
 IR Inten    --     33.7857                15.5928                 1.2586

                     37                     38                     39
                      A                      A                      A
 Frequencies --   1417.4281              1456.9865              1473.6165
 Red. masses --      1.4245                 1.1018                 1.1183
 Frc consts  --      1.6862                 1.3780                 1.4308
 IR Inten    --     11.4171                 2.8589                 2.4684

                     40                     41                     42
                      A                      A                      A
 Frequencies --   1484.0571              1494.2505              3040.7914
 Red. masses --      1.0513                 1.0500                 1.0356
 Frc consts  --      1.3641                 1.3813                 5.6419
 IR Inten    --      3.0727                 3.0179                14.2640

                     43                     44                     45
                      A                      A                      A
 Frequencies --   3053.9929              3056.6312              3101.8309
 Red. masses --      1.0608                 1.0621                 1.0878
 Frc consts  --      5.8292                 5.8466                 6.1664
 IR Inten    --     25.2561                18.4534                69.5108

                     46                     47                     48
                      A                      A                      A
 Frequencies --   3104.3458              3113.8610              3115.8269
 Red. masses --      1.0920                 1.1023                 1.1015
 Frc consts  --      6.2003                 6.2973                 6.3008
 IR Inten    --     20.0021                11.7273                 4.6638

                     49                     50                     51
                      A                      A                      A
 Frequencies --   3118.7213              3122.7699              3161.6216
 Red. masses --      1.1036                 1.1029                 1.0926
 Frc consts  --      6.3243                 6.3370                 6.4345
 IR Inten    --     12.0897                33.4467                27.8031

 - Thermochemistry -
 -------------------
 Temperature   298.150 Kelvin.  Pressure   1.00000 Atm.
 Atom     1 has atomic number  6 and mass  12.00000

 Molecular mass:   126.06808 amu.
 Principal axes and moments of inertia in atomic units:
                           1         2         3
     Eigenvalues --   562.906021053.249291097.01307
           X            0.99910   0.00000  -0.04249
           Y            0.00000   1.00000   0.00000
           Z            0.04249   0.00000   0.99910
 This molecule is an asymmetric top.
 Rotational symmetry number  1.
 Warning -- assumption of classical behavior for rotation
           may cause significant error
 Rotational temperatures (Kelvin)      0.15387     0.08223     0.07895
 Rotational constants (GHZ):           3.20611     1.71350     1.64514
 Zero-point vibrational energy     424502.5 (Joules/Mol)
                                  101.45853 (Kcal/Mol)
 Warning -- explicit consideration of   8 degrees of freedom as
           vibrations may cause significant error
 Vibrational temperatures:    280.07   360.33   408.66   560.36   565.23
          (Kelvin)            668.44   798.48   874.91   928.95   969.48
                             1118.30  1198.71  1224.08  1228.03  1261.70
                             1274.60  1299.23  1391.29  1417.11  1425.11
                             1456.84  1522.98  1557.51  1579.21  1587.35
                             1624.49  1720.43  1725.98  1754.49  1810.56
                             1839.15  1862.73  1878.43  1905.37  1945.41
                             1958.53  2039.36  2096.28  2120.20  2135.22
                             2149.89  4375.02  4394.01  4397.81  4462.84
                             4466.46  4480.15  4482.97  4487.14  4492.96
                             4548.86

 Zero-point correction=                           0.161684 (Hartree/Particle)
 Thermal correction to Energy=                    0.168392
 Thermal correction to Enthalpy=                  0.169336
 Thermal correction to Gibbs Free Energy=         0.131089
 Sum of electronic and zero-point Energies=           -423.035466
 Sum of electronic and thermal Energies=              -423.028759
 Sum of electronic and thermal Enthalpies=            -423.027815
 Sum of electronic and thermal Free Energies=         -423.066062

                     E (Thermal)             CV                S
                      KCal/Mol        Cal/Mol-Kelvin    Cal/Mol-Kelvin
 Total                  105.667             28.539             80.498
 Electronic               0.000              0.000              0.000
 Translational            0.889              2.981             40.409
 Rotational               0.889              2.981             27.966
 Vibrational            103.890             22.577             12.123
 Vibration     1          0.635              1.847              2.183
 Vibration     2          0.663              1.762              1.727
 Vibration     3          0.682              1.703              1.509
 Vibration     4          0.757              1.493              1.002
 Vibration     5          0.760              1.485              0.989
 Vibration     6          0.822              1.329              0.753
 Vibration     7          0.910              1.129              0.534
 Vibration     8          0.967              1.015              0.436

 Optimization completed.
    -- Stationary point found.
 Normal termination of Gaussian 09 at Mon Jan 27 19:04:56 2020.
