 Gaussian 09, Revision D.01,
 Gaussian 09:  ES64L-G09RevD.01 24-Apr-2013

 -----------------------------
 # b3lyp 6-31G(2df,p) opt Freq
 -----------------------------

 -----
 titel
 -----
 Symbolic Z-matrix:
 Charge =  0 Multiplicity = 1

 SCF Done:  E(RB3LYP) =  -423.101121013     A.U. after   13 cycles
 Optimization completed.
    -- Stationary point found.
 Normal termination of Gaussian 09 at Tue Jan 28 09:16:31 2020.

 ----------------------------------------------------------------------
 #N Geom=AllCheck Guess=TCheck SCRF=Check GenChk RB3LYP/6-31G(2df,p) Fr
 eq
 ----------------------------------------------------------------------

 Structure from the checkpoint file:  "/scratch/puck/g09_98753a50-3528-4e23-be99-cc238d558294/Gau-17489.chk"
 -----
 titel
 -----
 Charge =  0 Multiplicity = 1

                         Standard orientation:
 ---------------------------------------------------------------------
 Center     Atomic      Atomic             Coordinates (Angstroms)
 Number     Number       Type             X           Y           Z
 ---------------------------------------------------------------------
      1          6           0        1.453327    1.975649   -0.319064
      2          6           0        0.954309    0.625296    0.107171
      3          6           0        0.187809    0.338895    1.371530
      4          6           0       -0.444583    0.009300    0.033842
      5          6           0       -1.738870    0.577627   -0.458223
      6          8           0       -2.864139   -0.188674   -0.043063
      7          6           0        0.191588   -1.290875   -0.558557
      8          8           0        1.171285   -1.818200    0.347458
      9          6           0        1.525856   -0.709294   -0.489333
     10          1           0        0.781021    2.771891    0.014619
     11          1           0        2.443673    2.180160    0.105973
     12          1           0        1.540153    2.048621   -1.409552
     13          1           0        0.499802   -0.451744    2.042386
     14          1           0       -0.220787    1.223151    1.854116
     15          1           0       -1.826848    1.629012   -0.140237
     16          1           0       -1.776398    0.569244   -1.554110
     17          1           0       -2.802547   -0.287461    0.913147
     18          1           0       -0.269825   -1.974267   -1.261068
     19          1           0        2.397973   -0.813199   -1.124628
 ---------------------------------------------------------------------

 SCF Done:  E(RB3LYP) =  -423.101121013     A.U. after    1 cycles

 The electronic state is 1-A.
 Alpha  occ. eigenvalues --  -19.15471 -19.13328 -10.23841 -10.23778 -10.23223
 Alpha  occ. eigenvalues --  -10.20565 -10.19840 -10.18967 -10.18886  -1.08002
 Alpha  occ. eigenvalues --   -1.01406  -0.87851  -0.73308  -0.69859  -0.69296
 Alpha  occ. eigenvalues --   -0.62711  -0.56879  -0.53648  -0.51180  -0.49437
 Alpha  occ. eigenvalues --   -0.47303  -0.44453  -0.43600  -0.42483  -0.40361
 Alpha  occ. eigenvalues --   -0.39085  -0.38801  -0.35116  -0.34835  -0.33298
 Alpha  occ. eigenvalues --   -0.29027  -0.27148  -0.26226  -0.22860
 Alpha virt. eigenvalues --    0.06043   0.08153   0.08919   0.10333   0.11401
 Alpha virt. eigenvalues --    0.13096   0.13326   0.14744   0.15575   0.16734
 Alpha virt. eigenvalues --    0.17226   0.18106   0.18503   0.19952   0.21508

 Mulliken charges:
               1
     1  C   -0.495140
     2  C    0.233401
     3  C   -0.388035
     4  C    0.231664
     5  C   -0.168293
     6  O   -0.414412
     7  C   -0.032465
     8  O   -0.239823
     9  C   -0.033703
    10  H    0.123419
    11  H    0.125872
    12  H    0.120143
    13  H    0.136061
    14  H    0.107099
    15  H    0.086344
    16  H    0.107761
    17  H    0.282852
    18  H    0.111943
    19  H    0.105313
 Sum of Mulliken charges =   0.00000

 Dipole moment (field-independent basis, Debye):
    X=              0.7972    Y=              1.8176    Z=             -0.2776  Tot=              2.0041
 Quadrupole moment (field-independent basis, Debye-Ang):
   XX=            -57.7457   YY=            -54.8005   ZZ=            -50.2091
   XY=              1.2864   XZ=             -4.8793   YZ=              1.9443

  Exact polarizability:  81.282   3.001  74.955  -2.014   1.716  68.536
 Approx polarizability: 117.913   5.418 108.782  -0.541  -0.062 106.151

                      1                      2                      3
                      A                      A                      A
 Frequencies --     79.6503               116.7246               196.8761
 Red. masses --      3.3628                 3.8481                 1.0887
 Frc consts  --      0.0126                 0.0309                 0.0249
 IR Inten    --      2.5754                 1.8067                 0.4206

                      4                      5                      6
                      A                      A                      A
 Frequencies --    217.1831               258.1971               284.0181
 Red. masses --      2.3434                 2.7895                 2.0972
 Frc consts  --      0.0651                 0.1096                 0.0997
 IR Inten    --      6.0588                 1.5688                26.4295

                      7                      8                      9
                      A                      A                      A
 Frequencies --    335.3871               383.5837               435.4684
 Red. masses --      1.5719                 2.6430                 2.7746
 Frc consts  --      0.1042                 0.2291                 0.3100
 IR Inten    --     44.0416                40.6013                 7.2007

                     10                     11                     12
                      A                      A                      A
 Frequencies --    505.8770               544.6319               593.6305
 Red. masses --      3.5790                 3.6790                 3.2304
 Frc consts  --      0.5396                 0.6430                 0.6707
 IR Inten    --      2.5214                 7.5550                 6.3053

                     13                     14                     15
                      A                      A                      A
 Frequencies --    752.9965               788.0708               814.0556
 Red. masses --      3.6716                 2.5473                 4.7007
 Frc consts  --      1.2266                 0.9321                 1.8353
 IR Inten    --      1.7984                11.5938                 3.2280

                     16                     17                     18
                      A                      A                      A
 Frequencies --    828.5648               863.1042               883.5151
 Red. masses --      4.0508                 2.0892                 2.2701
 Frc consts  --      1.6385                 0.9170                 1.0440
 IR Inten    --     10.1632                14.5188                10.5184

                     19                     20                     21
                      A                      A                      A
 Frequencies --    949.8977               967.2261               971.5458
 Red. masses --      1.7812                 1.3396                 1.6800
 Frc consts  --      0.9470                 0.7384                 0.9343
 IR Inten    --      9.0046                 8.2411                11.8133

                     22                     23                     24
                      A                      A                      A
 Frequencies --    982.3312              1038.2896              1044.8387
 Red. masses --      2.4931                 1.9628                 2.1124
 Frc consts  --      1.4174                 1.2467                 1.3587
 IR Inten    --     22.5822                49.3341                52.7907

                     25                     26                     27
                      A                      A                      A
 Frequencies --   1086.5705              1104.0473              1128.8403
 Red. masses --      1.4077                 1.4942                 1.8506
 Frc consts  --      0.9792                 1.0731                 1.3894
 IR Inten    --      9.8332                 1.3707                 0.5756

                     28                     29                     30
                      A                      A                      A
 Frequencies --   1189.0554              1195.5214              1231.9646
 Red. masses --      1.6647                 1.3836                 1.4709
 Frc consts  --      1.3867                 1.1651                 1.3153
 IR Inten    --     18.4476                 5.8158                18.5332

                     31                     32                     33
                      A                      A                      A
 Frequencies --   1281.1159              1322.0221              1350.0083
 Red. masses --      2.0583                 2.7858                 1.8784
 Frc consts  --      1.9904                 2.8686                 2.0171
 IR Inten    --      8.1484                 2.0090                 4.7987

                     34                     35                     36
                      A                      A                      A
 Frequencies --   1368.8746              1400.9768              1417.6668
 Red. masses --      1.9966                 1.6630                 1.3090
 Frc consts  --      2.2043                 1.9231                 1.5500
 IR Inten    --      5.5696                 6.4076                31.3924

                     37                     38                     39
                      A                      A                      A
 Frequencies --   1430.0992              1480.1929              1485.6352
 Red. masses --      1.3509                 1.6684                 1.0794
 Frc consts  --      1.6278                 2.1537                 1.4036
 IR Inten    --     52.2017                12.0857                 3.6321

                     40                     41                     42
                      A                      A                      A
 Frequencies --   1500.3405              1503.0116              2972.3140
 Red. masses --      1.1240                 1.0846                 1.0698
 Frc consts  --      1.4907                 1.4436                 5.5684
 IR Inten    --      0.8793                 3.4321                50.2662

                     43                     44                     45
                      A                      A                      A
 Frequencies --   3019.9817              3052.1425              3075.2222
 Red. masses --      1.0366                 1.0918                 1.1006
 Frc consts  --      5.5700                 5.9923                 6.1327
 IR Inten    --     40.0111                29.4371                23.7696

                     46                     47                     48
                      A                      A                      A
 Frequencies --   3100.4301              3125.8743              3179.7473
 Red. masses --      1.0992                 1.0559                 1.0881
 Frc consts  --      6.2256                 6.0788                 6.4817
 IR Inten    --     16.7304                17.0019                14.8139

                     49                     50                     51
                      A                      A                      A
 Frequencies --   3197.7224              3222.8157              3806.9693
 Red. masses --      1.1012                 1.1132                 1.0660
 Frc consts  --      6.6342                 6.8123                 9.1025
 IR Inten    --     15.2762                 2.5712                14.9576

 - Thermochemistry -
 -------------------
 Temperature   298.150 Kelvin.  Pressure   1.00000 Atm.
 Atom     1 has atomic number  6 and mass  12.00000

 Molecular mass:   126.06808 amu.
 Principal axes and moments of inertia in atomic units:
                           1         2         3
     Eigenvalues --   759.868091205.858551602.55285
           X            0.99892   0.04457  -0.01329
           Y           -0.04449   0.99899   0.00579
           Z            0.01353  -0.00520   0.99989
 This molecule is an asymmetric top.
 Rotational symmetry number  1.
 Warning -- assumption of classical behavior for rotation
           may cause significant error
 Rotational temperatures (Kelvin)      0.11399     0.07183     0.05405
 Rotational constants (GHZ):           2.37507     1.49664     1.12617
 Zero-point vibrational energy     413099.4 (Joules/Mol)
                                   98.73313 (Kcal/Mol)
 Warning -- explicit consideration of  12 degrees of freedom as
           vibrations may cause significant error
 Vibrational temperatures:    114.60   167.94   283.26   312.48   371.49
          (Kelvin)            408.64   482.55   551.89   626.54   727.84
                              783.60   854.10  1083.39  1133.86  1171.24
                             1192.12  1241.81  1271.18  1366.69  1391.62
                             1397.84  1413.35  1493.87  1503.29  1563.33
                             1588.48  1624.15  1710.78  1720.09  1772.52
                             1843.24  1902.09  1942.36  1969.50  2015.69
                             2039.70  2057.59  2129.66  2137.49  2158.65
                             2162.50  4276.49  4345.07  4391.35  4424.55
                             4460.82  4497.43  4574.94  4600.80  4636.91
                             5477.37

 Zero-point correction=                           0.157341 (Hartree/Particle)
 Thermal correction to Energy=                    0.166096
 Thermal correction to Enthalpy=                  0.167040
 Thermal correction to Gibbs Free Energy=         0.124008
 Sum of electronic and zero-point Energies=           -422.943780
 Sum of electronic and thermal Energies=              -422.935025
 Sum of electronic and thermal Enthalpies=            -422.934081
 Sum of electronic and thermal Free Energies=         -422.977113

                     E (Thermal)             CV                S
                      KCal/Mol        Cal/Mol-Kelvin    Cal/Mol-Kelvin
 Total                  104.227             33.519             90.569
 Electronic               0.000              0.000              0.000
 Translational            0.889              2.981             40.409
 Rotational               0.889              2.981             28.775
 Vibrational            102.449             27.558             21.385
 Vibration     1          0.600              1.963              3.899
 Vibration     2          0.608              1.935              3.154
 Vibration     3          0.636              1.844              2.162
 Vibration     4          0.646              1.815              1.982
 Vibration     5          0.667              1.749              1.674
 Vibration     6          0.682              1.703              1.509
 Vibration     7          0.717              1.605              1.234
 Vibration     8          0.753              1.505              1.025
 Vibration     9          0.796              1.393              0.841
 Vibration    10          0.861              1.237              0.644
 Vibration    11          0.900              1.151              0.555
 Vibration    12          0.951              1.045              0.461

 Optimization completed.
    -- Stationary point found.
 Normal termination of Gaussian 09 at Tue Jan 28 10:02:45 2020.
