 Gaussian 09, Revision D.01,
 Gaussian 09:  ES64L-G09RevD.01 24-Apr-2013

 -----------------------------
 # b3lyp 6-31G(2df,p) opt Freq
 -----------------------------

 -----
 titel
 -----
 Symbolic Z-matrix:
 Charge =  0 Multiplicity = 1

 SCF Done:  E(RB3LYP) =  -423.144215334     A.U. after   14 cycles
 Optimization completed.
    -- Stationary point found.
 Normal termination of Gaussian 09 at Mon Jan 27 13:59:33 2020.

 ----------------------------------------------------------------------
 #N Geom=AllCheck Guess=TCheck SCRF=Check GenChk RB3LYP/6-31G(2df,p) Fr
 eq
 ----------------------------------------------------------------------

 Structure from the checkpoint file:  "/scratch/puck/g09_c9f54394-ee4d-4588-bb92-0f89cee65fab/Gau-3835.chk"
 -----
 titel
 -----
 Charge =  0 Multiplicity = 1

                         Standard orientation:
 ---------------------------------------------------------------------
 Center     Atomic      Atomic             Coordinates (Angstroms)
 Number     Number       Type             X           Y           Z
 ---------------------------------------------------------------------
      1          8           0       -3.928003    0.340235   -0.084825
      2          6           0       -2.979654   -0.357131    0.166220
      3          6           0       -1.605967   -0.208880   -0.445237
      4          6           0       -0.519701    0.007512    0.631802
      5          6           0        0.863517    0.067192    0.050550
      6          6           0        1.489401    1.317117   -0.546313
      7          6           0        2.176706    0.602978    0.576432
      8          8           0        2.925932   -0.509295    0.082320
      9          6           0        1.702628   -1.135782   -0.387420
     10          1           0       -3.061565   -1.187361    0.908253
     11          1           0       -1.385138   -1.136082   -0.993755
     12          1           0       -1.623061    0.616051   -1.162335
     13          1           0       -0.729897    0.938600    1.171499
     14          1           0       -0.575349   -0.801082    1.373260
     15          1           0        1.936836    1.306983   -1.536739
     16          1           0        0.986929    2.241481   -0.275486
     17          1           0        2.473645    1.038547    1.523930
     18          1           0        1.741044   -1.378796   -1.456089
     19          1           0        1.491540   -2.043885    0.191288
 ---------------------------------------------------------------------

 SCF Done:  E(RB3LYP) =  -423.144215334     A.U. after    1 cycles

 The electronic state is 1-A.
 Alpha  occ. eigenvalues --  -19.14320 -19.14202 -10.27531 -10.24407 -10.24051
 Alpha  occ. eigenvalues --  -10.21061 -10.20969 -10.20199 -10.19521  -1.05618
 Alpha  occ. eigenvalues --   -1.04992  -0.85004  -0.79341  -0.71117  -0.67140
 Alpha  occ. eigenvalues --   -0.60617  -0.57935  -0.55026  -0.50108  -0.49987
 Alpha  occ. eigenvalues --   -0.47216  -0.46948  -0.44357  -0.42649  -0.41179
 Alpha  occ. eigenvalues --   -0.40954  -0.39181  -0.37578  -0.36270  -0.34234
 Alpha  occ. eigenvalues --   -0.32227  -0.27767  -0.25527  -0.23770
 Alpha virt. eigenvalues --   -0.02550   0.06589   0.09208   0.10614   0.10745
 Alpha virt. eigenvalues --    0.11496   0.12808   0.13245   0.14197   0.14827
 Alpha virt. eigenvalues --    0.16743   0.16867   0.18051   0.20573   0.21403

 Mulliken charges:
               1
     1  O   -0.233793
     2  C    0.157971
     3  C   -0.267024
     4  C   -0.341496
     5  C    0.304082
     6  C   -0.340821
     7  C    0.037513
     8  O   -0.284142
     9  C   -0.127097
    10  H    0.069998
    11  H    0.120244
    12  H    0.127800
    13  H    0.116735
    14  H    0.107443
    15  H    0.116941
    16  H    0.116537
    17  H    0.107986
    18  H    0.106200
    19  H    0.104922
 Sum of Mulliken charges =   0.00000

 Dipole moment (field-independent basis, Debye):
    X=              0.7451    Y=             -0.6637    Z=              0.4047  Tot=              1.0768
 Quadrupole moment (field-independent basis, Debye-Ang):
   XX=            -75.5909   YY=            -50.4268   ZZ=            -51.0538
   XY=              5.8920   XZ=             -0.9547   YZ=              1.2544

  Exact polarizability:  90.274  -0.297  74.589  -0.224  -2.087  65.807
 Approx polarizability: 120.848  -5.868 113.639   3.538  -3.819  99.740

                      1                      2                      3
                      A                      A                      A
 Frequencies --     46.9036                62.3581                93.4396
 Red. masses --      5.0907                 3.6705                 2.7030
 Frc consts  --      0.0066                 0.0084                 0.0139
 IR Inten    --      6.8947                 5.8889                 0.4953

                      4                      5                      6
                      A                      A                      A
 Frequencies --    126.2596               272.4208               284.7378
 Red. masses --      3.2467                 2.8306                 3.6929
 Frc consts  --      0.0305                 0.1238                 0.1764
 IR Inten    --      0.3990                 0.9645                 1.2004

                      7                      8                      9
                      A                      A                      A
 Frequencies --    329.3953               375.6125               456.5561
 Red. masses --      2.2267                 2.4081                 2.1480
 Frc consts  --      0.1423                 0.2002                 0.2638
 IR Inten    --      0.8741                 3.9249                 2.3462

                     10                     11                     12
                      A                      A                      A
 Frequencies --    519.4562               689.3174               754.8252
 Red. masses --      2.5552                 3.1051                 2.4481
 Frc consts  --      0.4062                 0.8693                 0.8218
 IR Inten    --     16.6759                 2.1379                 8.5476

                     13                     14                     15
                      A                      A                      A
 Frequencies --    771.7086               835.7005               870.7548
 Red. masses --      1.4919                 1.9599                 2.2227
 Frc consts  --      0.5235                 0.8065                 0.9929
 IR Inten    --      4.1788                11.5960                 5.3783

                     16                     17                     18
                      A                      A                      A
 Frequencies --    910.1012               930.1066               976.0033
 Red. masses --      2.0085                 2.0828                 2.1851
 Frc consts  --      0.9802                 1.0616                 1.2264
 IR Inten    --     12.2090                13.8661                 7.4172

                     19                     20                     21
                      A                      A                      A
 Frequencies --    991.6105              1004.6734              1012.0366
 Red. masses --      2.4530                 1.7638                 2.0284
 Frc consts  --      1.4211                 1.0489                 1.2241
 IR Inten    --     22.0927                26.4541                12.8196

                     22                     23                     24
                      A                      A                      A
 Frequencies --   1040.5172              1062.1222              1076.5512
 Red. masses --      1.8510                 1.8586                 1.8678
 Frc consts  --      1.1807                 1.2353                 1.2754
 IR Inten    --      5.4929                 7.1395                13.5442

                     25                     26                     27
                      A                      A                      A
 Frequencies --   1089.4580              1131.0236              1158.6687
 Red. masses --      2.2427                 2.6098                 1.1953
 Frc consts  --      1.5684                 1.9670                 0.9454
 IR Inten    --     16.0429                15.1594                 1.4088

                     28                     29                     30
                      A                      A                      A
 Frequencies --   1182.3319              1247.3403              1269.3360
 Red. masses --      1.6093                 1.3956                 1.3778
 Frc consts  --      1.3254                 1.2794                 1.3079
 IR Inten    --     11.8274                 6.4168                 0.1515

                     31                     32                     33
                      A                      A                      A
 Frequencies --   1286.2656              1300.8306              1341.4550
 Red. masses --      1.6883                 1.5525                 1.4412
 Frc consts  --      1.6457                 1.5478                 1.5280
 IR Inten    --      8.3956                 9.3629                 4.5172

                     34                     35                     36
                      A                      A                      A
 Frequencies --   1371.5751              1413.1281              1429.4551
 Red. masses --      1.4273                 1.8046                 1.1941
 Frc consts  --      1.5820                 2.1232                 1.4376
 IR Inten    --      9.2523                 2.3501                 5.9353

                     37                     38                     39
                      A                      A                      A
 Frequencies --   1463.6178              1482.8598              1488.8891
 Red. masses --      1.0911                 1.6083                 1.0979
 Frc consts  --      1.3771                 2.0837                 1.4340
 IR Inten    --      1.0019                 6.7905                 4.7640

                     40                     41                     42
                      A                      A                      A
 Frequencies --   1515.6590              1837.3000              2845.5061
 Red. masses --      1.1201                10.1034                 1.0814
 Frc consts  --      1.5161                20.0946                 5.1588
 IR Inten    --      0.8205               195.9132               112.5998

                     43                     44                     45
                      A                      A                      A
 Frequencies --   3011.1539              3014.7600              3017.4574
 Red. masses --      1.0589                 1.0602                 1.0639
 Frc consts  --      5.6568                 5.6771                 5.7075
 IR Inten    --     16.8313                50.7984                24.4897

                     46                     47                     48
                      A                      A                      A
 Frequencies --   3060.0905              3063.3643              3107.8224
 Red. masses --      1.0984                 1.1103                 1.0959
 Frc consts  --      6.0601                 6.1390                 6.2365
 IR Inten    --     18.7437                36.7808                12.8965

                     49                     50                     51
                      A                      A                      A
 Frequencies --   3111.1343              3177.5854              3203.3767
 Red. masses --      1.0542                 1.0949                 1.1154
 Frc consts  --      6.0118                 6.5135                 6.7438
 IR Inten    --     12.7271                17.0139                 9.8838

 - Thermochemistry -
 -------------------
 Temperature   298.150 Kelvin.  Pressure   1.00000 Atm.
 Atom     1 has atomic number  8 and mass  15.99491

 Molecular mass:   126.06808 amu.
 Principal axes and moments of inertia in atomic units:
                           1         2         3
     Eigenvalues --   349.626282547.616282679.02370
           X            0.99995   0.00938  -0.00443
           Y           -0.00940   0.99995  -0.00318
           Z            0.00440   0.00322   0.99999
 This molecule is an asymmetric top.
 Rotational symmetry number  1.
 Rotational temperatures (Kelvin)      0.24773     0.03400     0.03233
 Rotational constants (GHZ):           5.16192     0.70840     0.67366
 Zero-point vibrational energy     413397.2 (Joules/Mol)
                                   98.80430 (Kcal/Mol)
 Warning -- explicit consideration of  10 degrees of freedom as
           vibrations may cause significant error
 Vibrational temperatures:     67.48    89.72   134.44   181.66   391.95
          (Kelvin)            409.67   473.93   540.42   656.88   747.38
                              991.77  1086.02  1110.32  1202.39  1252.82
                             1309.43  1338.21  1404.25  1426.70  1445.50
                             1456.09  1497.07  1528.16  1548.92  1567.49
                             1627.29  1667.06  1701.11  1794.64  1826.29
                             1850.65  1871.60  1930.05  1973.39  2033.17
                             2056.66  2105.82  2133.50  2142.18  2180.69
                             2643.46  4094.04  4332.37  4337.56  4341.44
                             4402.78  4407.49  4471.46  4476.22  4571.83
                             4608.94

 Zero-point correction=                           0.157455 (Hartree/Particle)
 Thermal correction to Energy=                    0.166405
 Thermal correction to Enthalpy=                  0.167349
 Thermal correction to Gibbs Free Energy=         0.122292
 Sum of electronic and zero-point Energies=           -422.986761
 Sum of electronic and thermal Energies=              -422.977810
 Sum of electronic and thermal Enthalpies=            -422.976866
 Sum of electronic and thermal Free Energies=         -423.021924

                     E (Thermal)             CV                S
                      KCal/Mol        Cal/Mol-Kelvin    Cal/Mol-Kelvin
 Total                  104.421             32.162             94.831
 Electronic               0.000              0.000              0.000
 Translational            0.889              2.981             40.409
 Rotational               0.889              2.981             29.258
 Vibrational            102.643             26.200             25.165
 Vibration     1          0.595              1.979              4.944
 Vibration     2          0.597              1.972              4.381
 Vibration     3          0.602              1.954              3.587
 Vibration     4          0.611              1.927              3.002
 Vibration     5          0.675              1.724              1.581
 Vibration     6          0.683              1.702              1.505
 Vibration     7          0.712              1.617              1.263
 Vibration     8          0.746              1.522              1.057
 Vibration     9          0.815              1.346              0.776
 Vibration    10          0.874              1.207              0.611

 Optimization completed.
    -- Stationary point found.
 Normal termination of Gaussian 09 at Mon Jan 27 15:40:43 2020.
