 Gaussian 09, Revision D.01,
 Gaussian 09:  ES64L-G09RevD.01 24-Apr-2013

 -----------------------------
 # b3lyp 6-31G(2df,p) opt Freq
 -----------------------------

 -----
 titel
 -----
 Symbolic Z-matrix:
 Charge =  0 Multiplicity = 1

 SCF Done:  E(RB3LYP) =  -423.188590526     A.U. after   14 cycles
 Optimization completed.
    -- Stationary point found.
 Normal termination of Gaussian 09 at Mon Jan 27 18:31:00 2020.

 ----------------------------------------------------------------------
 #N Geom=AllCheck Guess=TCheck SCRF=Check GenChk RB3LYP/6-31G(2df,p) Fr
 eq
 ----------------------------------------------------------------------

 Structure from the checkpoint file:  "/scratch/puck/g09_3d9b9116-e4c5-405d-a164-a29d5baeeee7/Gau-171907.chk"
 -----
 titel
 -----
 Charge =  0 Multiplicity = 1

                         Standard orientation:
 ---------------------------------------------------------------------
 Center     Atomic      Atomic             Coordinates (Angstroms)
 Number     Number       Type             X           Y           Z
 ---------------------------------------------------------------------
      1          6           0        2.413848    0.000771   -0.080003
      2          6           0        0.900463    0.055973   -0.004072
      3          6           0        0.331152   -0.685115    1.225945
      4          8           0       -1.095551   -0.659716    1.188573
      5          6           0       -1.577966    0.046877    0.030797
      6          6           0       -1.029309   -0.688727   -1.203174
      7          8           0        0.396505   -0.651529   -1.165132
      8          6           0       -1.020126    1.448034    0.020224
      9          6           0        0.312704    1.450918    0.006056
     10          1           0        2.760079   -1.036008   -0.091979
     11          1           0        2.761149    0.487751   -0.995442
     12          1           0        2.861085    0.512024    0.777869
     13          1           0        0.668537   -1.729759    1.201653
     14          1           0        0.679793   -0.220959    2.158147
     15          1           0       -2.666671    0.000616    0.076467
     16          1           0       -1.360095   -1.735014   -1.181325
     17          1           0       -1.385372   -0.222313   -2.131601
     18          1           0       -1.653432    2.327463    0.015751
     19          1           0        0.942697    2.333776    0.008296
 ---------------------------------------------------------------------

 SCF Done:  E(RB3LYP) =  -423.188590526     A.U. after    1 cycles

 The electronic state is 1-A.
 Alpha  occ. eigenvalues --  -19.13666 -19.13560 -10.24223 -10.23692 -10.22447
 Alpha  occ. eigenvalues --  -10.22328 -10.18560 -10.18453 -10.17989  -1.05047
 Alpha  occ. eigenvalues --   -1.00471  -0.80701  -0.79259  -0.70577  -0.67177
 Alpha  occ. eigenvalues --   -0.62274  -0.60369  -0.52249  -0.50137  -0.49707
 Alpha  occ. eigenvalues --   -0.47768  -0.44157  -0.42263  -0.41030  -0.40045
 Alpha  occ. eigenvalues --   -0.40000  -0.38439  -0.37823  -0.35620  -0.33964
 Alpha  occ. eigenvalues --   -0.30181  -0.26340  -0.24334  -0.24253
 Alpha virt. eigenvalues --    0.00237   0.09272   0.10212   0.11999   0.12860
 Alpha virt. eigenvalues --    0.13979   0.15386   0.16447   0.16591   0.17429
 Alpha virt. eigenvalues --    0.17849   0.18972   0.19467   0.20805   0.21303

 Mulliken charges:
               1
     1  C   -0.471724
     2  C    0.312407
     3  C   -0.077488
     4  O   -0.278501
     5  C    0.018190
     6  C   -0.068400
     7  O   -0.305750
     8  C   -0.086524
     9  C   -0.091263
    10  H    0.126959
    11  H    0.130319
    12  H    0.118723
    13  H    0.099716
    14  H    0.095020
    15  H    0.080681
    16  H    0.103165
    17  H    0.096251
    18  H    0.101457
    19  H    0.096761
 Sum of Mulliken charges =   0.00000

 Dipole moment (field-independent basis, Debye):
    X=              0.1773    Y=              1.1525    Z=             -0.0840  Tot=              1.1691
 Quadrupole moment (field-independent basis, Debye-Ang):
   XX=            -49.4176   YY=            -52.0078   ZZ=            -56.4377
   XY=             -0.4727   XZ=              4.3430   YZ=              0.0454

  Exact polarizability:  87.831  -0.356  72.872   4.987   0.033  64.096
 Approx polarizability: 130.558   0.290 106.912   3.564   0.089  97.188

                      1                      2                      3
                      A                      A                      A
 Frequencies --    189.8378               201.1709               271.8821
 Red. masses --      2.7900                 1.0232                 2.7549
 Frc consts  --      0.0592                 0.0244                 0.1200
 IR Inten    --      6.0120                 0.0600                 0.6959

                      4                      5                      6
                      A                      A                      A
 Frequencies --    286.8138               352.6607               389.7479
 Red. masses --      2.4602                 2.2929                 2.8471
 Frc consts  --      0.1192                 0.1680                 0.2548
 IR Inten    --      0.5924                 4.0515                 1.0268

                      7                      8                      9
                      A                      A                      A
 Frequencies --    427.0365               450.6080               564.3339
 Red. masses --      3.5202                 3.5514                 4.4435
 Frc consts  --      0.3782                 0.4249                 0.8338
 IR Inten    --      2.1017                 1.0946                 2.5653

                     10                     11                     12
                      A                      A                      A
 Frequencies --    608.8276               669.3226               721.7110
 Red. masses --      4.4234                 4.2870                 1.7404
 Frc consts  --      0.9660                 1.1316                 0.5341
 IR Inten    --      0.6364                 5.2753                13.4224

                     13                     14                     15
                      A                      A                      A
 Frequencies --    743.9037               841.2704               858.0906
 Red. masses --      5.1297                 3.2661                 2.6325
 Frc consts  --      1.6725                 1.3619                 1.1421
 IR Inten    --      2.8125                13.9891                35.4661

                     16                     17                     18
                      A                      A                      A
 Frequencies --    893.4761               932.7211               951.8001
 Red. masses --      2.3685                 2.1928                 1.9309
 Frc consts  --      1.1140                 1.1240                 1.0306
 IR Inten    --     11.7107                20.2529                 9.7987

                     19                     20                     21
                      A                      A                      A
 Frequencies --    960.3435               995.1074              1011.4259
 Red. masses --      1.3848                 3.4015                 1.4834
 Frc consts  --      0.7525                 1.9845                 0.8941
 IR Inten    --      0.0628                 1.9110                 4.0355

                     22                     23                     24
                      A                      A                      A
 Frequencies --   1048.6585              1086.2842              1088.3963
 Red. masses --      2.3745                 3.3154                 4.0220
 Frc consts  --      1.5385                 2.3050                 2.8072
 IR Inten    --      2.0631                57.9052               119.6890

                     25                     26                     27
                      A                      A                      A
 Frequencies --   1134.0553              1156.6699              1204.5364
 Red. masses --      1.4984                 1.9142                 1.6426
 Frc consts  --      1.1354                 1.5088                 1.4041
 IR Inten    --      0.8763                10.8698                 3.7249

                     28                     29                     30
                      A                      A                      A
 Frequencies --   1229.5245              1242.0557              1264.6028
 Red. masses --      1.0952                 3.0538                 1.4034
 Frc consts  --      0.9755                 2.7757                 1.3224
 IR Inten    --      4.1579                10.4946                 2.6315

                     31                     32                     33
                      A                      A                      A
 Frequencies --   1303.1512              1330.1643              1376.6433
 Red. masses --      1.5463                 1.2540                 1.5105
 Frc consts  --      1.5471                 1.3072                 1.6866
 IR Inten    --      2.8859                 1.1421                 5.7400

                     34                     35                     36
                      A                      A                      A
 Frequencies --   1391.6073              1404.0881              1410.2534
 Red. masses --      1.4802                 1.6033                 1.3038
 Frc consts  --      1.6889                 1.8623                 1.5278
 IR Inten    --      2.1095                 6.3965                 7.1709

                     37                     38                     39
                      A                      A                      A
 Frequencies --   1482.4004              1496.3334              1508.2200
 Red. masses --      1.0570                 1.0511                 1.0869
 Frc consts  --      1.3686                 1.3866                 1.4567
 IR Inten    --      3.6270                 2.7857                 0.9735

                     40                     41                     42
                      A                      A                      A
 Frequencies --   1513.0820              1677.2436              3000.9301
 Red. masses --      1.0851                 6.4415                 1.0553
 Frc consts  --      1.4636                10.6765                 5.5993
 IR Inten    --      0.2605                 0.3167                95.9765

                     43                     44                     45
                      A                      A                      A
 Frequencies --   3005.2731              3042.8043              3044.9528
 Red. masses --      1.0560                 1.1075                 1.0367
 Frc consts  --      5.6192                 6.0416                 5.6635
 IR Inten    --     32.8744                22.7757                17.9810

                     46                     47                     48
                      A                      A                      A
 Frequencies --   3047.2561              3110.6886              3118.9906
 Red. masses --      1.1089                 1.0887                 1.1015
 Frc consts  --      6.0665                 6.2068                 6.3135
 IR Inten    --     46.4673                30.9104                16.4771

                     49                     50                     51
                      A                      A                      A
 Frequencies --   3124.0207              3178.1021              3203.8838
 Red. masses --      1.1021                 1.0860                 1.1036
 Frc consts  --      6.3374                 6.4628                 6.6746
 IR Inten    --     15.7598                 6.2501                16.7500

 - Thermochemistry -
 -------------------
 Temperature   298.150 Kelvin.  Pressure   1.00000 Atm.
 Atom     1 has atomic number  6 and mass  12.00000

 Molecular mass:   126.06808 amu.
 Principal axes and moments of inertia in atomic units:
                           1         2         3
     Eigenvalues --   669.543551041.122621044.66233
           X            0.99848  -0.00376   0.05499
           Y            0.00301   0.99990   0.01384
           Z           -0.05503  -0.01365   0.99839
 This molecule is an asymmetric top.
 Rotational symmetry number  1.
 Warning -- assumption of classical behavior for rotation
           may cause significant error
 Rotational temperatures (Kelvin)      0.12936     0.08319     0.08291
 Rotational constants (GHZ):           2.69548     1.73346     1.72758
 Zero-point vibrational energy     421964.6 (Joules/Mol)
                                  100.85195 (Kcal/Mol)
 Warning -- explicit consideration of  10 degrees of freedom as
           vibrations may cause significant error
 Vibrational temperatures:    273.13   289.44   391.18   412.66   507.40
          (Kelvin)            560.76   614.41   648.32   811.95   875.97
                              963.00  1038.38  1070.31  1210.40  1234.60
                             1285.51  1341.98  1369.43  1381.72  1431.74
                             1455.21  1508.78  1562.92  1565.96  1631.65
                             1664.19  1733.06  1769.01  1787.04  1819.48
                             1874.94  1913.81  1980.68  2002.21  2020.17
                             2029.04  2132.84  2152.89  2169.99  2176.98
                             2413.18  4317.66  4323.91  4377.91  4381.00
                             4384.32  4475.58  4487.53  4494.76  4572.57
                             4609.67

 Zero-point correction=                           0.160718 (Hartree/Particle)
 Thermal correction to Energy=                    0.168116
 Thermal correction to Enthalpy=                  0.169061
 Thermal correction to Gibbs Free Energy=         0.129523
 Sum of electronic and zero-point Energies=           -423.027873
 Sum of electronic and thermal Energies=              -423.020474
 Sum of electronic and thermal Enthalpies=            -423.019530
 Sum of electronic and thermal Free Energies=         -423.059068

                     E (Thermal)             CV                S
                      KCal/Mol        Cal/Mol-Kelvin    Cal/Mol-Kelvin
 Total                  105.495             30.351             83.215
 Electronic               0.000              0.000              0.000
 Translational            0.889              2.981             40.409
 Rotational               0.889              2.981             28.078
 Vibrational            103.717             24.390             14.728
 Vibration     1          0.633              1.854              2.229
 Vibration     2          0.638              1.838              2.122
 Vibration     3          0.675              1.725              1.584
 Vibration     4          0.684              1.698              1.493
 Vibration     5          0.729              1.570              1.154
 Vibration     6          0.758              1.492              1.001
 Vibration     7          0.789              1.411              0.868
 Vibration     8          0.809              1.360              0.794
 Vibration     9          0.920              1.108              0.515
 Vibration    10          0.968              1.013              0.435

 Normal termination of Gaussian 09 at Mon Jan 27 19:21:01 2020.
