 Gaussian 09, Revision D.01,
 Gaussian 09:  ES64L-G09RevD.01 24-Apr-2013

 -----------------------------
 # b3lyp 6-31G(2df,p) opt Freq
 -----------------------------

 -----
 titel
 -----
 Symbolic Z-matrix:
 Charge =  0 Multiplicity = 1

 SCF Done:  E(RB3LYP) =  -423.127676689     A.U. after   14 cycles
 Optimization completed.
    -- Stationary point found.
 Normal termination of Gaussian 09 at Mon Jan 27 18:47:12 2020.

 ----------------------------------------------------------------------
 #N Geom=AllCheck Guess=TCheck SCRF=Check GenChk RB3LYP/6-31G(2df,p) Fr
 eq
 ----------------------------------------------------------------------

 Structure from the checkpoint file:  "/scratch/puck/g09_7608956c-9fde-4924-bbc7-75bd895ed9a7/Gau-43346.chk"
 -----
 titel
 -----
 Charge =  0 Multiplicity = 1

                         Standard orientation:
 ---------------------------------------------------------------------
 Center     Atomic      Atomic             Coordinates (Angstroms)
 Number     Number       Type             X           Y           Z
 ---------------------------------------------------------------------
      1          6           0        2.206951   -1.236885   -0.389657
      2          6           0        1.111190   -0.322125    0.106054
      3          6           0        1.487713    1.104153    0.566649
      4          8           0        0.489733    1.712027   -0.287637
      5          6           0        0.075568    0.429407   -0.796863
      6          6           0       -1.058587   -0.182942    0.028521
      7          6           0       -2.387807    0.360258    0.293909
      8          8           0       -2.203065   -0.791975   -0.544462
      9          6           0       -0.066868   -0.944738    0.920798
     10          1           0        2.826494   -1.592822    0.442511
     11          1           0        1.792604   -2.117566   -0.891524
     12          1           0        2.864555   -0.722905   -1.098733
     13          1           0        1.327651    1.334629    1.627700
     14          1           0        2.498238    1.423051    0.280310
     15          1           0        0.009416    0.391699   -1.887954
     16          1           0       -2.867439    0.164535    1.252035
     17          1           0       -2.712001    1.265460   -0.216902
     18          1           0       -0.090571   -0.722795    1.991504
     19          1           0       -0.151260   -2.026472    0.781378
 ---------------------------------------------------------------------

 SCF Done:  E(RB3LYP) =  -423.127676689     A.U. after    1 cycles

 The electronic state is 1-A.
 Alpha  occ. eigenvalues --  -19.15157 -19.13662 -10.23873 -10.23210 -10.23197
 Alpha  occ. eigenvalues --  -10.23166 -10.20399 -10.18966 -10.18589  -1.07222
 Alpha  occ. eigenvalues --   -1.04110  -0.83028  -0.73955  -0.68843  -0.66218
 Alpha  occ. eigenvalues --   -0.65016  -0.58191  -0.52705  -0.50369  -0.49025
 Alpha  occ. eigenvalues --   -0.48020  -0.45298  -0.43712  -0.41242  -0.40952
 Alpha  occ. eigenvalues --   -0.40635  -0.38875  -0.36080  -0.34385  -0.30711
 Alpha  occ. eigenvalues --   -0.30133  -0.28012  -0.27655  -0.24142
 Alpha virt. eigenvalues --    0.05169   0.07925   0.10119   0.11608   0.12327
 Alpha virt. eigenvalues --    0.13792   0.13909   0.14365   0.14848   0.15889
 Alpha virt. eigenvalues --    0.16636   0.17235   0.17915   0.19107   0.20615

 Mulliken charges:
               1
     1  C   -0.498281
     2  C    0.299970
     3  C   -0.119872
     4  O   -0.288891
     5  C   -0.037755
     6  C    0.449091
     7  C   -0.258094
     8  O   -0.270710
     9  C   -0.393971
    10  H    0.122538
    11  H    0.124449
    12  H    0.123015
    13  H    0.099112
    14  H    0.101108
    15  H    0.082639
    16  H    0.115743
    17  H    0.124452
    18  H    0.105606
    19  H    0.119851
 Sum of Mulliken charges =   0.00000

 Dipole moment (field-independent basis, Debye):
    X=              1.4313    Y=             -0.5310    Z=              1.2649  Tot=              1.9826
 Quadrupole moment (field-independent basis, Debye-Ang):
   XX=            -52.3898   YY=            -57.1802   ZZ=            -51.4784
   XY=             -3.6831   XZ=             -2.0024   YZ=              0.0355

  Exact polarizability:  88.225  -2.505  70.015  -0.793  -0.017  67.715
 Approx polarizability: 114.221  -0.597 105.129   2.374   1.382 103.220

                      1                      2                      3
                      A                      A                      A
 Frequencies --     60.4632               195.1273               212.3425
 Red. masses --      3.3005                 4.1884                 1.1617
 Frc consts  --      0.0071                 0.0940                 0.0309
 IR Inten    --      0.8225                 8.6050                 0.0882

                      4                      5                      6
                      A                      A                      A
 Frequencies --    227.7113               293.6943               312.2886
 Red. masses --      2.1217                 3.6954                 2.3114
 Frc consts  --      0.0648                 0.1878                 0.1328
 IR Inten    --      0.5761                 3.8362                 0.8987

                      7                      8                      9
                      A                      A                      A
 Frequencies --    358.9751               379.1656               493.1316
 Red. masses --      2.6461                 2.1207                 3.6611
 Frc consts  --      0.2009                 0.1796                 0.5245
 IR Inten    --      1.3381                 0.2184                 2.2931

                     10                     11                     12
                      A                      A                      A
 Frequencies --    523.1798               650.3000               763.1280
 Red. masses --      3.3062                 3.6809                 3.0244
 Frc consts  --      0.5332                 0.9171                 1.0377
 IR Inten    --      1.2233                 0.3914                11.2588

                     13                     14                     15
                      A                      A                      A
 Frequencies --    820.2615               853.0146               883.8582
 Red. masses --      2.5114                 2.2426                 2.1487
 Frc consts  --      0.9956                 0.9614                 0.9890
 IR Inten    --      6.4075                17.6301                 5.6118

                     16                     17                     18
                      A                      A                      A
 Frequencies --    904.6702               918.2918               941.3255
 Red. masses --      2.2839                 2.2386                 2.0238
 Frc consts  --      1.1013                 1.1122                 1.0565
 IR Inten    --     11.6549                23.8347                 7.5412

                     19                     20                     21
                      A                      A                      A
 Frequencies --    974.2063               997.2764              1017.5254
 Red. masses --      1.7956                 2.7672                 2.5397
 Frc consts  --      1.0041                 1.6215                 1.5492
 IR Inten    --      4.4805                11.4943                23.3765

                     22                     23                     24
                      A                      A                      A
 Frequencies --   1025.7493              1118.4144              1131.4261
 Red. masses --      5.5375                 1.3788                 1.6388
 Frc consts  --      3.4328                 1.0162                 1.2360
 IR Inten    --     76.5929                 2.6052                 5.5505

                     25                     26                     27
                      A                      A                      A
 Frequencies --   1133.0449              1146.2353              1165.8384
 Red. masses --      1.4576                 1.5431                 1.6153
 Frc consts  --      1.1025                 1.1945                 1.2936
 IR Inten    --      3.9335                 1.0653                 4.4229

                     28                     29                     30
                      A                      A                      A
 Frequencies --   1176.9834              1201.2840              1231.9249
 Red. masses --      1.5547                 1.8374                 1.9275
 Frc consts  --      1.2690                 1.5622                 1.7235
 IR Inten    --      4.3097                 1.6874                 1.3104

                     31                     32                     33
                      A                      A                      A
 Frequencies --   1253.1341              1276.0374              1306.7915
 Red. masses --      2.4308                 1.4390                 1.8859
 Frc consts  --      2.2491                 1.3805                 1.8975
 IR Inten    --      1.9757                 5.2999                 4.7995

                     34                     35                     36
                      A                      A                      A
 Frequencies --   1372.2688              1416.5896              1433.8297
 Red. masses --      1.8545                 1.2872                 2.1570
 Frc consts  --      2.0576                 1.5219                 2.6127
 IR Inten    --      1.0880                 1.6460                10.1577

                     37                     38                     39
                      A                      A                      A
 Frequencies --   1471.1107              1493.1268              1494.7155
 Red. masses --      1.1604                 1.0513                 1.0497
 Frc consts  --      1.4796                 1.3809                 1.3817
 IR Inten    --      4.4936                 4.7111                 3.9346

                     40                     41                     42
                      A                      A                      A
 Frequencies --   1522.8504              1533.6055              3005.4772
 Red. masses --      1.0960                 1.5855                 1.0544
 Frc consts  --      1.4975                 2.1971                 5.6113
 IR Inten    --      0.9282                 4.9458                72.5394

                     43                     44                     45
                      A                      A                      A
 Frequencies --   3024.1871              3050.3269              3051.7144
 Red. masses --      1.0366                 1.0994                 1.0693
 Frc consts  --      5.5856                 6.0270                 5.8671
 IR Inten    --     28.6934                21.3502                43.9839

                     46                     47                     48
                      A                      A                      A
 Frequencies --   3076.5398              3084.4562              3087.0905
 Red. masses --      1.0892                 1.0503                 1.0995
 Frc consts  --      6.0744                 5.8873                 6.1734
 IR Inten    --     29.7898                23.2163                20.4362

                     49                     50                     51
                      A                      A                      A
 Frequencies --   3099.6681              3106.6998              3173.3551
 Red. masses --      1.1020                 1.1071                 1.1196
 Frc consts  --      6.2385                 6.2957                 6.6426
 IR Inten    --     20.3668                19.0424                17.6483

 - Thermochemistry -
 -------------------
 Temperature   298.150 Kelvin.  Pressure   1.00000 Atm.
 Atom     1 has atomic number  6 and mass  12.00000

 Molecular mass:   126.06808 amu.
 Principal axes and moments of inertia in atomic units:
                           1         2         3
     Eigenvalues --   603.114951257.975091536.78278
           X            0.99880  -0.04674  -0.01496
           Y            0.04690   0.99885   0.01012
           Z            0.01447  -0.01081   0.99984
 This molecule is an asymmetric top.
 Rotational symmetry number  1.
 Warning -- assumption of classical behavior for rotation
           may cause significant error
 Rotational temperatures (Kelvin)      0.14361     0.06885     0.05636
 Rotational constants (GHZ):           2.99237     1.43464     1.17436
 Zero-point vibrational energy     415369.8 (Joules/Mol)
                                   99.27577 (Kcal/Mol)
 Warning -- explicit consideration of  10 degrees of freedom as
           vibrations may cause significant error
 Vibrational temperatures:     86.99   280.74   305.51   327.63   422.56
          (Kelvin)            449.31   516.48   545.53   709.51   752.74
                              935.64  1097.97  1180.17  1227.30  1271.67
                             1301.62  1321.22  1354.36  1401.66  1434.86
                             1463.99  1475.82  1609.15  1627.87  1630.20
                             1649.17  1677.38  1693.41  1728.38  1772.46
                             1802.98  1835.93  1880.18  1974.39  2038.15
                             2062.96  2116.60  2148.27  2150.56  2191.04
                             2206.51  4324.21  4351.13  4388.73  4390.73
                             4426.45  4437.84  4441.63  4459.73  4469.84
                             4565.74

 Zero-point correction=                           0.158206 (Hartree/Particle)
 Thermal correction to Energy=                    0.166385
 Thermal correction to Enthalpy=                  0.167330
 Thermal correction to Gibbs Free Energy=         0.125418
 Sum of electronic and zero-point Energies=           -422.969471
 Sum of electronic and thermal Energies=              -422.961291
 Sum of electronic and thermal Enthalpies=            -422.960347
 Sum of electronic and thermal Free Energies=         -423.002258

                     E (Thermal)             CV                S
                      KCal/Mol        Cal/Mol-Kelvin    Cal/Mol-Kelvin
 Total                  104.408             31.545             88.210
 Electronic               0.000              0.000              0.000
 Translational            0.889              2.981             40.409
 Rotational               0.889              2.981             28.546
 Vibrational            102.631             25.583             19.255
 Vibration     1          0.597              1.973              4.442
 Vibration     2          0.636              1.847              2.179
 Vibration     3          0.643              1.822              2.023
 Vibration     4          0.651              1.799              1.897
 Vibration     5          0.688              1.685              1.453
 Vibration     6          0.701              1.650              1.350
 Vibration     7          0.734              1.557              1.127
 Vibration     8          0.749              1.515              1.042
 Vibration     9          0.849              1.265              0.676
 Vibration    10          0.878              1.199              0.603

 Optimization completed.
    -- Stationary point found.
 Normal termination of Gaussian 09 at Mon Jan 27 19:49:53 2020.
