 Gaussian 09, Revision D.01,
 Gaussian 09:  ES64L-G09RevD.01 24-Apr-2013

 -----------------------------
 # b3lyp 6-31G(2df,p) opt Freq
 -----------------------------

 -----
 titel
 -----
 Symbolic Z-matrix:
 Charge =  0 Multiplicity = 1

 SCF Done:  E(RB3LYP) =  -423.161180371     A.U. after   14 cycles
 Optimization completed.
    -- Stationary point found.
 Normal termination of Gaussian 09 at Mon Jan 27 14:09:51 2020.

 ----------------------------------------------------------------------
 #N Geom=AllCheck Guess=TCheck SCRF=Check GenChk RB3LYP/6-31G(2df,p) Fr
 eq
 ----------------------------------------------------------------------

 Structure from the checkpoint file:  "/scratch/puck/g09_a2d834d5-f891-4fc6-86ad-9863f8495da2/Gau-57969.chk"
 -----
 titel
 -----
 Charge =  0 Multiplicity = 1

                         Standard orientation:
 ---------------------------------------------------------------------
 Center     Atomic      Atomic             Coordinates (Angstroms)
 Number     Number       Type             X           Y           Z
 ---------------------------------------------------------------------
      1          6           0       -2.516477   -0.588032    0.248728
      2          6           0       -1.470359    0.460481   -0.047780
      3          8           0       -1.614573    1.638539    0.190125
      4          6           0       -0.174980   -0.002617   -0.703972
      5          8           0        0.066197   -1.434581   -0.717316
      6          6           0        1.355960   -1.226051   -0.123218
      7          6           0        1.214819   -0.634731    1.244692
      8          6           0        1.149324    0.265614    0.022185
      9          6           0        2.016698    1.466096   -0.203728
     10          1           0       -2.774364   -1.128983   -0.669001
     11          1           0       -2.112051   -1.340028    0.933499
     12          1           0       -3.403772   -0.118199    0.674653
     13          1           0       -0.155656    0.389056   -1.731138
     14          1           0        2.180052   -1.830200   -0.484235
     15          1           0        0.340213   -0.859962    1.848611
     16          1           0        2.139713   -0.537183    1.805707
     17          1           0        2.158277    1.661220   -1.272627
     18          1           0        1.560641    2.356871    0.241705
     19          1           0        3.004038    1.331186    0.248889
 ---------------------------------------------------------------------

 SCF Done:  E(RB3LYP) =  -423.161180371     A.U. after    1 cycles

 The electronic state is 1-A.
 Alpha  occ. eigenvalues --  -19.14748 -19.13054 -10.27046 -10.24464 -10.24427
 Alpha  occ. eigenvalues --  -10.21128 -10.19497 -10.18681 -10.18652  -1.06209
 Alpha  occ. eigenvalues --   -1.03899  -0.84600  -0.75880  -0.73042  -0.69510
 Alpha  occ. eigenvalues --   -0.60954  -0.57362  -0.52700  -0.50008  -0.47851
 Alpha  occ. eigenvalues --   -0.47160  -0.44473  -0.42800  -0.41504  -0.40813
 Alpha  occ. eigenvalues --   -0.40519  -0.39377  -0.39120  -0.35602  -0.34488
 Alpha  occ. eigenvalues --   -0.32616  -0.28611  -0.24536  -0.23659
 Alpha virt. eigenvalues --   -0.01731   0.07568   0.09134   0.10431   0.11664
 Alpha virt. eigenvalues --    0.12818   0.13286   0.14740   0.15798   0.16200
 Alpha virt. eigenvalues --    0.17631   0.18133   0.18934   0.20391   0.21886

 Mulliken charges:
               1
     1  C   -0.478147
     2  C    0.349226
     3  O   -0.306115
     4  C   -0.012832
     5  O   -0.305266
     6  C    0.061592
     7  C   -0.353586
     8  C    0.271833
     9  C   -0.499657
    10  H    0.148567
    11  H    0.151777
    12  H    0.136763
    13  H    0.108588
    14  H    0.108661
    15  H    0.115694
    16  H    0.117591
    17  H    0.120929
    18  H    0.144847
    19  H    0.119536
 Sum of Mulliken charges =   0.00000

 Dipole moment (field-independent basis, Debye):
    X=              1.4904    Y=             -1.1094    Z=              0.0053  Tot=              1.8580
 Quadrupole moment (field-independent basis, Debye-Ang):
   XX=            -48.8528   YY=            -59.5221   ZZ=            -51.7599
   XY=              3.5140   XZ=              0.8593   YZ=             -2.4762

  Exact polarizability:  83.490   0.327  76.297   0.416  -1.489  66.159
 Approx polarizability: 106.656  -3.218 122.476   1.735   1.887 102.009

                      1                      2                      3
                      A                      A                      A
 Frequencies --     39.9899               110.6883               123.7807
 Red. masses --      3.9416                 1.2142                 2.7218
 Frc consts  --      0.0037                 0.0088                 0.0246
 IR Inten    --      5.2113                 1.1924                 2.1363

                      4                      5                      6
                      A                      A                      A
 Frequencies --    139.5256               188.8633               261.0305
 Red. masses --      2.4804                 1.1719                 2.9670
 Frc consts  --      0.0284                 0.0246                 0.1191
 IR Inten    --      1.7773                 0.4589                 4.6097

                      7                      8                      9
                      A                      A                      A
 Frequencies --    298.9355               387.1779               437.7892
 Red. masses --      2.7329                 2.7583                 3.2539
 Frc consts  --      0.1439                 0.2436                 0.3674
 IR Inten    --      1.3869                 2.3195                 1.4193

                     10                     11                     12
                      A                      A                      A
 Frequencies --    469.1959               485.3950               596.5258
 Red. masses --      3.3559                 3.1176                 2.8102
 Frc consts  --      0.4353                 0.4328                 0.5892
 IR Inten    --      8.1243                 5.0943                10.7101

                     13                     14                     15
                      A                      A                      A
 Frequencies --    656.7493               729.4176               813.8977
 Red. masses --      3.8162                 3.0471                 2.4408
 Frc consts  --      0.9698                 0.9552                 0.9526
 IR Inten    --      3.0308                 2.9135                11.4103

                     16                     17                     18
                      A                      A                      A
 Frequencies --    829.3199               888.0512               936.6799
 Red. masses --      2.9656                 1.7876                 2.0759
 Frc consts  --      1.2017                 0.8306                 1.0731
 IR Inten    --      6.3230                17.4442                13.4222

                     19                     20                     21
                      A                      A                      A
 Frequencies --    971.1952               991.1715              1010.6714
 Red. masses --      1.3973                 1.6610                 1.6631
 Frc consts  --      0.7765                 0.9614                 1.0009
 IR Inten    --     11.4818                 5.3463                 6.4376

                     22                     23                     24
                      A                      A                      A
 Frequencies --   1024.4637              1036.6175              1046.9274
 Red. masses --      2.7677                 1.8870                 2.1203
 Frc consts  --      1.7115                 1.1947                 1.3693
 IR Inten    --     72.6236                 2.9749                 5.3492

                     25                     26                     27
                      A                      A                      A
 Frequencies --   1071.8886              1102.5533              1129.3064
 Red. masses --      1.6722                 1.8218                 2.5311
 Frc consts  --      1.1320                 1.3048                 1.9019
 IR Inten    --     17.3103                 6.7302                 3.7781

                     28                     29                     30
                      A                      A                      A
 Frequencies --   1202.6098              1240.8522              1257.3681
 Red. masses --      1.5012                 1.9479                 2.2217
 Frc consts  --      1.2792                 1.7671                 2.0694
 IR Inten    --      7.3055                32.3159                14.9905

                     31                     32                     33
                      A                      A                      A
 Frequencies --   1279.1684              1336.1012              1382.3810
 Red. masses --      2.1056                 1.7004                 1.3380
 Frc consts  --      2.0299                 1.7885                 1.5065
 IR Inten    --     15.7505                 8.7112                39.8760

                     34                     35                     36
                      A                      A                      A
 Frequencies --   1397.9115              1424.9819              1451.1503
 Red. masses --      1.4686                 1.6487                 1.0564
 Frc consts  --      1.6909                 1.9725                 1.3107
 IR Inten    --      0.9349                 4.5150                14.3488

                     37                     38                     39
                      A                      A                      A
 Frequencies --   1463.5316              1482.8458              1490.8737
 Red. masses --      1.0599                 1.0492                 1.4591
 Frc consts  --      1.3375                 1.3592                 1.9108
 IR Inten    --      6.6486                 4.1591                12.4343

                     40                     41                     42
                      A                      A                      A
 Frequencies --   1500.2049              1806.0825              3007.3580
 Red. masses --      1.0979                11.1853                 1.0831
 Frc consts  --      1.4558                21.4968                 5.7718
 IR Inten    --      3.3278               127.9666                25.2162

                     43                     44                     45
                      A                      A                      A
 Frequencies --   3028.2523              3042.0539              3092.1701
 Red. masses --      1.0356                 1.0363                 1.1009
 Frc consts  --      5.5954                 5.6505                 6.2016
 IR Inten    --     29.9143                 0.6471                17.2769

                     46                     47                     48
                      A                      A                      A
 Frequencies --   3102.7251              3103.3692              3115.2093
 Red. masses --      1.1007                 1.0954                 1.0549
 Frc consts  --      6.2429                 6.2159                 6.0316
 IR Inten    --     15.9594                 2.8885                12.4179

                     49                     50                     51
                      A                      A                      A
 Frequencies --   3155.9123              3183.3349              3204.1904
 Red. masses --      1.1043                 1.0953                 1.1145
 Frc consts  --      6.4804                 6.5398                 6.7415
 IR Inten    --     12.0454                16.7183                12.0519

 - Thermochemistry -
 -------------------
 Temperature   298.150 Kelvin.  Pressure   1.00000 Atm.
 Atom     1 has atomic number  6 and mass  12.00000

 Molecular mass:   126.06808 amu.
 Principal axes and moments of inertia in atomic units:
                           1         2         3
     Eigenvalues --   704.386181240.095801600.63571
           X            0.99677   0.08027  -0.00311
           Y           -0.08033   0.99594  -0.04060
           Z           -0.00016   0.04072   0.99917
 This molecule is an asymmetric top.
 Rotational symmetry number  1.
 Warning -- assumption of classical behavior for rotation
           may cause significant error
 Rotational temperatures (Kelvin)      0.12296     0.06984     0.05411
 Rotational constants (GHZ):           2.56215     1.45532     1.12752
 Zero-point vibrational energy     409891.1 (Joules/Mol)
                                   97.96633 (Kcal/Mol)
 Warning -- explicit consideration of  12 degrees of freedom as
           vibrations may cause significant error
 Vibrational temperatures:     57.54   159.26   178.09   200.75   271.73
          (Kelvin)            375.56   430.10   557.06   629.88   675.07
                              698.37   858.27   944.91  1049.47  1171.02
                             1193.20  1277.71  1347.67  1397.33  1426.07
                             1454.13  1473.97  1491.46  1506.29  1542.21
                             1586.33  1624.82  1730.29  1785.31  1809.07
                             1840.44  1922.35  1988.94  2011.28  2050.23
                             2087.88  2105.69  2133.48  2145.03  2158.46
                             2598.55  4326.91  4356.97  4376.83  4448.94
                             4464.12  4465.05  4482.09  4540.65  4580.10
                             4610.11

 Zero-point correction=                           0.156119 (Hartree/Particle)
 Thermal correction to Energy=                    0.165470
 Thermal correction to Enthalpy=                  0.166414
 Thermal correction to Gibbs Free Energy=         0.121351
 Sum of electronic and zero-point Energies=           -423.005061
 Sum of electronic and thermal Energies=              -422.995711
 Sum of electronic and thermal Enthalpies=            -422.994767
 Sum of electronic and thermal Free Energies=         -423.039829

                     E (Thermal)             CV                S
                      KCal/Mol        Cal/Mol-Kelvin    Cal/Mol-Kelvin
 Total                  103.834             34.025             94.842
 Electronic               0.000              0.000              0.000
 Translational            0.889              2.981             40.409
 Rotational               0.889              2.981             28.727
 Vibrational            102.056             28.064             25.707
 Vibration     1          0.594              1.981              5.260
 Vibration     2          0.607              1.941              3.257
 Vibration     3          0.610              1.929              3.040
 Vibration     4          0.615              1.914              2.810
 Vibration     5          0.633              1.855              2.239
 Vibration     6          0.669              1.744              1.655
 Vibration     7          0.692              1.676              1.423
 Vibration     8          0.756              1.498              1.011
 Vibration     9          0.798              1.388              0.834
 Vibration    10          0.826              1.318              0.740
 Vibration    11          0.841              1.282              0.696
 Vibration    12          0.954              1.039              0.456

 Normal termination of Gaussian 09 at Mon Jan 27 14:55:28 2020.
