 Gaussian 09, Revision D.01,
 Gaussian 09:  ES64L-G09RevD.01 24-Apr-2013

 -----------------------------
 # b3lyp 6-31G(2df,p) opt Freq
 -----------------------------

 -----
 titel
 -----
 Symbolic Z-matrix:
 Charge =  0 Multiplicity = 1

 SCF Done:  E(RB3LYP) =  -423.118714707     A.U. after   13 cycles
 Optimization completed.
    -- Stationary point found.
 Normal termination of Gaussian 09 at Tue Jan 28 12:47:50 2020.

 ----------------------------------------------------------------------
 #N Geom=AllCheck Guess=TCheck SCRF=Check GenChk RB3LYP/6-31G(2df,p) Fr
 eq
 ----------------------------------------------------------------------

 Structure from the checkpoint file:  "/scratch/puck/g09_5157136f-b333-4a23-b113-e53537071794/Gau-10604.chk"
 -----
 titel
 -----
 Charge =  0 Multiplicity = 1

                         Standard orientation:
 ---------------------------------------------------------------------
 Center     Atomic      Atomic             Coordinates (Angstroms)
 Number     Number       Type             X           Y           Z
 ---------------------------------------------------------------------
      1          6           0       -3.146173   -0.447285    0.050411
      2          8           0       -2.186443    0.579266   -0.099927
      3          6           0       -0.919526    0.197403    0.331582
      4          6           0       -0.014864   -0.459667   -0.694660
      5          6           0        0.200473    0.990901   -0.267674
      6          6           0        1.586982    0.816400    0.386796
      7          6           0        2.364421   -0.010251   -0.673400
      8          6           0        1.314816   -1.037050   -0.167222
      9          8           0        1.437086   -0.419511    1.153711
     10          1           0       -3.244188   -0.757870    1.101513
     11          1           0       -4.103159   -0.046178   -0.291275
     12          1           0       -2.891677   -1.333599   -0.548825
     13          1           0       -0.862061   -0.122596    1.369694
     14          1           0       -0.404382   -0.731428   -1.667643
     15          1           0       -0.020733    1.835203   -0.907888
     16          1           0        2.021413    1.640142    0.952446
     17          1           0        2.334413    0.306566   -1.719194
     18          1           0        3.375940   -0.255682   -0.345374
     19          1           0        1.472522   -2.115312   -0.168720
 ---------------------------------------------------------------------

 SCF Done:  E(RB3LYP) =  -423.118714707     A.U. after    1 cycles

 The electronic state is 1-A.
 Alpha  occ. eigenvalues --  -19.14300 -19.13600 -10.24257 -10.24253 -10.23163
 Alpha  occ. eigenvalues --  -10.22287 -10.18906 -10.18613 -10.18519  -1.05517
 Alpha  occ. eigenvalues --   -1.03681  -0.85017  -0.74633  -0.69933  -0.68642
 Alpha  occ. eigenvalues --   -0.59495  -0.55888  -0.55359  -0.52749  -0.49595
 Alpha  occ. eigenvalues --   -0.48151  -0.44751  -0.44308  -0.41667  -0.41420
 Alpha  occ. eigenvalues --   -0.38254  -0.36232  -0.34453  -0.33766  -0.33258
 Alpha  occ. eigenvalues --   -0.29930  -0.26704  -0.25412  -0.23822
 Alpha virt. eigenvalues --    0.08632   0.09621   0.10894   0.11480   0.12862
 Alpha virt. eigenvalues --    0.13519   0.14748   0.15135   0.16175   0.16473
 Alpha virt. eigenvalues --    0.17902   0.18249   0.18553   0.19423   0.20986

 Mulliken charges:
               1
     1  C   -0.236761
     2  O   -0.255293
     3  C    0.109153
     4  C   -0.108730
     5  C   -0.110455
     6  C    0.045556
     7  C   -0.215042
     8  C    0.046052
     9  O   -0.291703
    10  H    0.108680
    11  H    0.126119
    12  H    0.106724
    13  H    0.107238
    14  H    0.095061
    15  H    0.100759
    16  H    0.085339
    17  H    0.095766
    18  H    0.108567
    19  H    0.082970
 Sum of Mulliken charges =   0.00000

 Dipole moment (field-independent basis, Debye):
    X=              0.1900    Y=             -0.5391    Z=             -1.2827  Tot=              1.4043
 Quadrupole moment (field-independent basis, Debye-Ang):
   XX=            -50.1455   YY=            -51.7854   ZZ=            -54.3884
   XY=              3.7891   XZ=             -2.5040   YZ=              1.3071

  Exact polarizability:  92.682   1.998  68.571  -1.483   1.130  64.560
 Approx polarizability: 113.944   1.323 109.425  -0.275   1.425 103.231

                      1                      2                      3
                      A                      A                      A
 Frequencies --     92.1269               161.2647               172.6792
 Red. masses --      2.8360                 2.7744                 1.2284
 Frc consts  --      0.0142                 0.0425                 0.0216
 IR Inten    --      3.0370                 2.7884                 0.1426

                      4                      5                      6
                      A                      A                      A
 Frequencies --    277.5879               344.0991               402.2769
 Red. masses --      3.2684                 3.4373                 4.7941
 Frc consts  --      0.1484                 0.2398                 0.4571
 IR Inten    --      3.0102                 2.4670                 0.8180

                      7                      8                      9
                      A                      A                      A
 Frequencies --    444.5278               509.1310               637.4984
 Red. masses --      2.5501                 2.5226                 4.8960
 Frc consts  --      0.2969                 0.3853                 1.1723
 IR Inten    --      3.5962                 0.9926                20.2113

                     10                     11                     12
                      A                      A                      A
 Frequencies --    704.5219               793.6581               848.5233
 Red. masses --      4.3162                 1.6628                 4.1772
 Frc consts  --      1.2622                 0.6171                 1.7720
 IR Inten    --      1.4162                 3.9246                 3.8913

                     13                     14                     15
                      A                      A                      A
 Frequencies --    858.2980               859.6022               868.0722
 Red. masses --      2.4451                 2.2680                 2.8929
 Frc consts  --      1.0613                 0.9874                 1.2844
 IR Inten    --      9.9039                 8.2427                 5.4641

                     16                     17                     18
                      A                      A                      A
 Frequencies --    925.1511               943.8042               951.0089
 Red. masses --      2.6663                 2.8619                 2.8756
 Frc consts  --      1.3446                 1.5020                 1.5323
 IR Inten    --      9.9670                14.1978                25.4197

                     19                     20                     21
                      A                      A                      A
 Frequencies --    972.4668              1009.4358              1046.8105
 Red. masses --      2.2112                 2.5738                 2.1530
 Frc consts  --      1.2321                 1.5452                 1.3900
 IR Inten    --     28.7391                13.6550                12.2008

                     22                     23                     24
                      A                      A                      A
 Frequencies --   1070.8013              1087.6189              1096.1751
 Red. masses --      1.4066                 2.5743                 1.4205
 Frc consts  --      0.9502                 1.7941                 1.0057
 IR Inten    --      0.7960                15.6788                 3.1245

                     25                     26                     27
                      A                      A                      A
 Frequencies --   1111.3149              1161.7370              1174.6911
 Red. masses --      1.2349                 2.1372                 1.5371
 Frc consts  --      0.8986                 1.6994                 1.2497
 IR Inten    --     12.9034                20.5394                13.9460

                     28                     29                     30
                      A                      A                      A
 Frequencies --   1179.3611              1183.7955              1219.8287
 Red. masses --      2.2346                 1.3402                 1.4790
 Frc consts  --      1.8312                 1.1066                 1.2966
 IR Inten    --     71.1359                11.2995                 5.4146

                     31                     32                     33
                      A                      A                      A
 Frequencies --   1233.6164              1248.1629              1268.5504
 Red. masses --      1.8267                 1.3117                 1.4797
 Frc consts  --      1.6379                 1.2040                 1.4030
 IR Inten    --     25.2148                 0.9641                26.5282

                     34                     35                     36
                      A                      A                      A
 Frequencies --   1277.7560              1282.6445              1310.5921
 Red. masses --      1.6736                 1.7132                 1.4397
 Frc consts  --      1.6099                 1.6606                 1.4570
 IR Inten    --      8.0386                12.3917                20.4397

                     37                     38                     39
                      A                      A                      A
 Frequencies --   1414.5538              1480.2038              1484.0895
 Red. masses --      2.1010                 1.1432                 1.0571
 Frc consts  --      2.4770                 1.4757                 1.3718
 IR Inten    --     57.9985                 0.7828                 4.4710

                     40                     41                     42
                      A                      A                      A
 Frequencies --   1486.0441              1508.5624              2983.4413
 Red. masses --      1.2098                 1.0640                 1.0357
 Frc consts  --      1.5741                 1.4267                 5.4317
 IR Inten    --      1.8372                 6.6181                59.1960

                     43                     44                     45
                      A                      A                      A
 Frequencies --   3033.0199              3063.9142              3118.3492
 Red. masses --      1.1032                 1.0573                 1.0975
 Frc consts  --      5.9794                 5.8478                 6.2878
 IR Inten    --     50.8297                34.3989                31.6970

                     46                     47                     48
                      A                      A                      A
 Frequencies --   3124.3202              3127.1422              3128.4577
 Red. masses --      1.0890                 1.0944                 1.0880
 Frc consts  --      6.2630                 6.3056                 6.2739
 IR Inten    --     64.6754                13.3417                11.6591

                     49                     50                     51
                      A                      A                      A
 Frequencies --   3141.2865              3193.9441              3202.9341
 Red. masses --      1.1071                 1.0895                 1.0936
 Frc consts  --      6.4366                 6.5483                 6.6103
 IR Inten    --     34.5569                 8.1172                 4.7729

 - Thermochemistry -
 -------------------
 Temperature   298.150 Kelvin.  Pressure   1.00000 Atm.
 Atom     1 has atomic number  6 and mass  12.00000

 Molecular mass:   126.06808 amu.
 Principal axes and moments of inertia in atomic units:
                           1         2         3
     Eigenvalues --   385.413351661.868011704.03175
           X            0.99973   0.02002  -0.01158
           Y           -0.01929   0.99801   0.06000
           Z            0.01275  -0.05976   0.99813
 This molecule is an asymmetric top.
 Rotational symmetry number  1.
 Rotational temperatures (Kelvin)      0.22473     0.05212     0.05083
 Rotational constants (GHZ):           4.68261     1.08597     1.05910
 Zero-point vibrational energy     420005.6 (Joules/Mol)
                                  100.38375 (Kcal/Mol)
 Warning -- explicit consideration of   8 degrees of freedom as
           vibrations may cause significant error
 Vibrational temperatures:    132.55   232.02   248.45   399.39   495.08
          (Kelvin)            578.79   639.58   732.53   917.22  1013.65
                             1141.90  1220.83  1234.90  1236.77  1248.96
                             1331.08  1357.92  1368.29  1399.16  1452.35
                             1506.12  1540.64  1564.84  1577.15  1598.93
                             1671.48  1690.12  1696.84  1703.22  1755.06
                             1774.90  1795.83  1825.16  1838.40  1845.44
                             1885.65  2035.22  2129.68  2135.27  2138.08
                             2170.48  4292.50  4363.83  4408.28  4486.60
                             4495.19  4499.25  4501.15  4519.60  4595.37
                             4608.30

 Zero-point correction=                           0.159972 (Hartree/Particle)
 Thermal correction to Energy=                    0.167520
 Thermal correction to Enthalpy=                  0.168464
 Thermal correction to Gibbs Free Energy=         0.127834
 Sum of electronic and zero-point Energies=           -422.958743
 Sum of electronic and thermal Energies=              -422.951195
 Sum of electronic and thermal Enthalpies=            -422.950251
 Sum of electronic and thermal Free Energies=         -422.990880

                     E (Thermal)             CV                S
                      KCal/Mol        Cal/Mol-Kelvin    Cal/Mol-Kelvin
 Total                  105.120             29.797             85.512
 Electronic               0.000              0.000              0.000
 Translational            0.889              2.981             40.409
 Rotational               0.889              2.981             28.481
 Vibrational            103.343             23.836             16.623
 Vibration     1          0.602              1.955              3.614
 Vibration     2          0.622              1.890              2.535
 Vibration     3          0.626              1.876              2.406
 Vibration     4          0.679              1.715              1.548
 Vibration     5          0.723              1.587              1.193
 Vibration     6          0.768              1.465              0.954
 Vibration     7          0.804              1.373              0.813
 Vibration     8          0.864              1.230              0.636

 Optimization completed.
    -- Stationary point found.
 Normal termination of Gaussian 09 at Tue Jan 28 14:44:08 2020.
