 Gaussian 09, Revision D.01,
 Gaussian 09:  ES64L-G09RevD.01 24-Apr-2013

 -----------------------------
 # b3lyp 6-31G(2df,p) opt Freq
 -----------------------------

 -----
 titel
 -----
 Symbolic Z-matrix:
 Charge =  0 Multiplicity = 1

 SCF Done:  E(RB3LYP) =  -423.206642066     A.U. after   14 cycles
 Optimization completed.
    -- Stationary point found.
 Normal termination of Gaussian 09 at Mon Jan 27 11:12:42 2020.

 ----------------------------------------------------------------------
 #N Geom=AllCheck Guess=TCheck SCRF=Check GenChk RB3LYP/6-31G(2df,p) Fr
 eq
 ----------------------------------------------------------------------

 Structure from the checkpoint file:  "/scratch/puck/g09_4f3605be-fc1e-4757-be13-dd6f260890b3/Gau-69579.chk"
 -----
 titel
 -----
 Charge =  0 Multiplicity = 1

                         Standard orientation:
 ---------------------------------------------------------------------
 Center     Atomic      Atomic             Coordinates (Angstroms)
 Number     Number       Type             X           Y           Z
 ---------------------------------------------------------------------
      1          6           0        3.337375   -0.095059   -0.149555
      2          8           0        1.960359    0.100897   -0.367403
      3          6           0        1.159820   -0.782399    0.398901
      4          6           0       -0.293313   -0.514139    0.154430
      5          6           0       -0.922350    0.695324    0.064704
      6          6           0       -0.456306    2.105168    0.137797
      7          8           0       -2.259091    0.504621   -0.138745
      8          6           0       -2.482441   -0.836190   -0.171351
      9          6           0       -1.318596   -1.509453   -0.000794
     10          1           0        3.653161   -1.112763   -0.429196
     11          1           0        3.872751    0.624350   -0.773634
     12          1           0        3.614678    0.070064    0.904059
     13          1           0        1.389844   -1.828449    0.135877
     14          1           0        1.409966   -0.668901    1.469220
     15          1           0       -0.847490    2.614274    1.027027
     16          1           0        0.633150    2.122356    0.166692
     17          1           0       -0.789143    2.675123   -0.736751
     18          1           0       -3.504264   -1.138803   -0.329065
     19          1           0       -1.187949   -2.580918    0.010170
 ---------------------------------------------------------------------

 SCF Done:  E(RB3LYP) =  -423.206642066     A.U. after    1 cycles

 The electronic state is 1-A.
 Alpha  occ. eigenvalues --  -19.19195 -19.14252 -10.23336 -10.22543 -10.22399
 Alpha  occ. eigenvalues --  -10.21864 -10.17872 -10.17541 -10.17286  -1.09543
 Alpha  occ. eigenvalues --   -1.03419  -0.80231  -0.76718  -0.72024  -0.67478
 Alpha  occ. eigenvalues --   -0.64246  -0.58295  -0.53301  -0.50785  -0.48159
 Alpha  occ. eigenvalues --   -0.47397  -0.44831  -0.44569  -0.42573  -0.40051
 Alpha  occ. eigenvalues --   -0.39157  -0.38955  -0.37978  -0.36456  -0.35033
 Alpha  occ. eigenvalues --   -0.31955  -0.26776  -0.25345  -0.20801
 Alpha virt. eigenvalues --    0.02129   0.06937   0.09474   0.12821   0.12951
 Alpha virt. eigenvalues --    0.14015   0.14795   0.15037   0.16210   0.16331
 Alpha virt. eigenvalues --    0.17923   0.18636   0.19363   0.20764   0.23521

 Mulliken charges:
               1
     1  C   -0.222492
     2  O   -0.227295
     3  C   -0.190378
     4  C    0.148102
     5  C    0.290847
     6  C   -0.497916
     7  O   -0.178947
     8  C   -0.021134
     9  C   -0.277604
    10  H    0.105008
    11  H    0.128024
    12  H    0.103454
    13  H    0.093491
    14  H    0.095596
    15  H    0.128773
    16  H    0.151325
    17  H    0.135076
    18  H    0.130388
    19  H    0.105680
 Sum of Mulliken charges =   0.00000

 Dipole moment (field-independent basis, Debye):
    X=              1.0960    Y=             -0.7201    Z=              0.7094  Tot=              1.4910
 Quadrupole moment (field-independent basis, Debye-Ang):
   XX=            -48.0442   YY=            -49.7302   ZZ=            -54.8903
   XY=              0.9811   XZ=              1.2976   YZ=              0.2358

  Exact polarizability:  98.379   2.648  88.277   3.389   0.318  52.563
 Approx polarizability: 133.568  -2.088 134.879   6.840  -1.018  81.178

                      1                      2                      3
                      A                      A                      A
 Frequencies --     38.5949                90.7975               128.1702
 Red. masses --      2.4472                 2.4445                 1.8756
 Frc consts  --      0.0021                 0.0119                 0.0182
 IR Inten    --      2.3072                 2.7903                 0.4752

                      4                      5                      6
                      A                      A                      A
 Frequencies --    143.4171               229.6692               234.3596
 Red. masses --      1.5278                 1.3378                 2.5770
 Frc consts  --      0.0185                 0.0416                 0.0834
 IR Inten    --      0.8964                 4.1876                 1.3934

                      7                      8                      9
                      A                      A                      A
 Frequencies --    262.2061               326.5567               370.9166
 Red. masses --      2.6642                 3.0678                 4.5990
 Frc consts  --      0.1079                 0.1928                 0.3728
 IR Inten    --      1.8929                 1.5204                 1.2064

                     10                     11                     12
                      A                      A                      A
 Frequencies --    412.3505               620.1939               652.7274
 Red. masses --      3.1231                 4.3965                 3.8554
 Frc consts  --      0.3129                 0.9963                 0.9678
 IR Inten    --      2.3813                 4.4771                 3.9212

                     13                     14                     15
                      A                      A                      A
 Frequencies --    687.0116               735.2952               769.3016
 Red. masses --      4.5085                 1.3253                 3.5518
 Frc consts  --      1.2538                 0.4222                 1.2385
 IR Inten    --      1.9995                29.3439                 9.9803

                     16                     17                     18
                      A                      A                      A
 Frequencies --    818.7187               912.8393               968.0611
 Red. masses --      1.2522                 5.9270                 1.7508
 Frc consts  --      0.4945                 2.9099                 0.9667
 IR Inten    --      7.4057                12.5519                 6.1945

                     19                     20                     21
                      A                      A                      A
 Frequencies --    982.7822              1018.3249              1067.2193
 Red. masses --      3.8861                 1.7065                 1.5098
 Frc consts  --      2.2114                 1.0426                 1.0131
 IR Inten    --     31.3012                 5.6763                 2.2303

                     22                     23                     24
                      A                      A                      A
 Frequencies --   1075.0386              1140.9060              1163.3132
 Red. masses --      1.6780                 3.7191                 2.6205
 Frc consts  --      1.1426                 2.8523                 2.0894
 IR Inten    --      0.4524               130.9474                42.8657

                     25                     26                     27
                      A                      A                      A
 Frequencies --   1178.2141              1189.0727              1223.3243
 Red. masses --      1.8733                 1.6355                 1.6208
 Frc consts  --      1.5322                 1.3624                 1.4291
 IR Inten    --      8.7971                10.3208                42.1121

                     28                     29                     30
                      A                      A                      A
 Frequencies --   1243.7876              1262.1407              1282.6850
 Red. masses --      4.1446                 1.4367                 1.5255
 Frc consts  --      3.7777                 1.3484                 1.4788
 IR Inten    --     19.5726                 4.9542                 6.2234

                     31                     32                     33
                      A                      A                      A
 Frequencies --   1395.6242              1417.9400              1453.8736
 Red. masses --      1.4700                 1.3491                 2.2503
 Frc consts  --      1.6869                 1.5981                 2.8025
 IR Inten    --     11.0277                 8.4788                28.0858

                     34                     35                     36
                      A                      A                      A
 Frequencies --   1479.4874              1484.0759              1485.1327
 Red. masses --      1.1503                 1.0684                 1.1037
 Frc consts  --      1.4834                 1.3865                 1.4343
 IR Inten    --      1.6542                 2.5248                 5.6239

                     37                     38                     39
                      A                      A                      A
 Frequencies --   1489.1235              1502.7996              1524.9900
 Red. masses --      1.1106                 1.0752                 1.0906
 Frc consts  --      1.4510                 1.4307                 1.4943
 IR Inten    --      1.7636                 6.5827                 0.5531

                     40                     41                     42
                      A                      A                      A
 Frequencies --   1549.7687              1660.8822              2935.8677
 Red. masses --      4.3491                 7.2482                 1.0640
 Frc consts  --      6.1544                11.7804                 5.4033
 IR Inten    --     20.4005                13.6560                44.6406

                     43                     44                     45
                      A                      A                      A
 Frequencies --   2966.9663              2973.4709              3011.5778
 Red. masses --      1.0553                 1.0748                 1.1029
 Frc consts  --      5.4734                 5.5991                 5.8938
 IR Inten    --     62.6603                72.7093                56.1052

                     46                     47                     48
                      A                      A                      A
 Frequencies --   3028.4044              3078.2138              3116.0082
 Red. masses --      1.0415                 1.0983                 1.0957
 Frc consts  --      5.6276                 6.1314                 6.2683
 IR Inten    --     33.9660                15.7782                26.7620

                     49                     50                     51
                      A                      A                      A
 Frequencies --   3156.4841              3246.8399              3284.1136
 Red. masses --      1.0961                 1.0912                 1.1041
 Frc consts  --      6.4345                 6.7776                 7.0163
 IR Inten    --      1.6152                 2.7268                 1.5578

 - Thermochemistry -
 -------------------
 Temperature   298.150 Kelvin.  Pressure   1.00000 Atm.
 Atom     1 has atomic number  6 and mass  12.00000

 Molecular mass:   126.06808 amu.
 Principal axes and moments of inertia in atomic units:
                           1         2         3
     Eigenvalues --   545.610781690.040252156.44543
           X            0.99999  -0.00236   0.00443
           Y            0.00235   1.00000   0.00188
           Z           -0.00443  -0.00187   0.99999
 This molecule is an asymmetric top.
 Rotational symmetry number  1.
 Warning -- assumption of classical behavior for rotation
           may cause significant error
 Rotational temperatures (Kelvin)      0.15875     0.05125     0.04017
 Rotational constants (GHZ):           3.30774     1.06787     0.83691
 Zero-point vibrational energy     415520.7 (Joules/Mol)
                                   99.31184 (Kcal/Mol)
 Warning -- explicit consideration of  11 degrees of freedom as
           vibrations may cause significant error
 Vibrational temperatures:     55.53   130.64   184.41   206.35   330.44
          (Kelvin)            337.19   377.26   469.84   533.67   593.28
                              892.32   939.13   988.46  1057.92  1106.85
                             1177.95  1313.37  1392.82  1414.00  1465.14
                             1535.49  1546.74  1641.51  1673.75  1695.19
                             1710.81  1760.09  1789.53  1815.94  1845.50
                             2007.99  2040.10  2091.80  2128.65  2135.25
                             2136.77  2142.51  2162.19  2194.12  2229.77
                             2389.64  4224.05  4268.80  4278.16  4332.98
                             4357.19  4428.86  4483.24  4541.47  4671.47
                             4725.10

 Zero-point correction=                           0.158263 (Hartree/Particle)
 Thermal correction to Energy=                    0.167634
 Thermal correction to Enthalpy=                  0.168578
 Thermal correction to Gibbs Free Energy=         0.123127
 Sum of electronic and zero-point Energies=           -423.048379
 Sum of electronic and thermal Energies=              -423.039008
 Sum of electronic and thermal Enthalpies=            -423.038064
 Sum of electronic and thermal Free Energies=         -423.083515

                     E (Thermal)             CV                S
                      KCal/Mol        Cal/Mol-Kelvin    Cal/Mol-Kelvin
 Total                  105.192             33.233             95.659
 Electronic               0.000              0.000              0.000
 Translational            0.889              2.981             40.409
 Rotational               0.889              2.981             29.077
 Vibrational            103.414             27.271             26.174
 Vibration     1          0.594              1.981              5.330
 Vibration     2          0.602              1.956              3.643
 Vibration     3          0.611              1.925              2.973
 Vibration     4          0.616              1.910              2.758
 Vibration     5          0.652              1.796              1.882
 Vibration     6          0.654              1.788              1.845
 Vibration     7          0.670              1.742              1.647
 Vibration     8          0.710              1.622              1.277
 Vibration     9          0.743              1.532              1.076
 Vibration    10          0.776              1.443              0.918
 Vibration    11          0.980              0.989              0.416

 Optimization completed.
    -- Stationary point found.
 Normal termination of Gaussian 09 at Mon Jan 27 11:48:45 2020.
