 Gaussian 09, Revision D.01,
 Gaussian 09:  ES64L-G09RevD.01 24-Apr-2013

 -----------------------------
 # b3lyp 6-31G(2df,p) opt Freq
 -----------------------------

 -----
 titel
 -----
 Symbolic Z-matrix:
 Charge =  0 Multiplicity = 1

 SCF Done:  E(RB3LYP) =  -423.174875520     A.U. after   14 cycles
 Optimization completed.
    -- Stationary point found.
 Normal termination of Gaussian 09 at Mon Jan 27 17:32:27 2020.

 ----------------------------------------------------------------------
 #N Geom=AllCheck Guess=TCheck SCRF=Check GenChk RB3LYP/6-31G(2df,p) Fr
 eq
 ----------------------------------------------------------------------

 Structure from the checkpoint file:  "/scratch/puck/g09_809ae10c-bcf3-4b77-9831-a68d7851cb01/Gau-39448.chk"
 -----
 titel
 -----
 Charge =  0 Multiplicity = 1

                         Standard orientation:
 ---------------------------------------------------------------------
 Center     Atomic      Atomic             Coordinates (Angstroms)
 Number     Number       Type             X           Y           Z
 ---------------------------------------------------------------------
      1          6           0        2.008432   -0.793249   -0.801582
      2          6           0        0.988664   -0.164321    0.144453
      3          6           0        1.685096    0.571319    1.298181
      4          6           0       -0.198677   -1.024654    0.639182
      5          6           0       -1.044947   -1.482370   -0.504150
      6          6           0       -1.226705   -0.057394    0.006365
      7          8           0       -2.417489    0.389305    0.532079
      8          6           0       -0.082211    0.798358   -0.467457
      9          8           0       -0.004951    1.898284   -0.938761
     10          1           0        1.539052   -1.360620   -1.609946
     11          1           0        2.624981   -0.012814   -1.259178
     12          1           0        2.675488   -1.473083   -0.259720
     13          1           0        0.960316    1.021559    1.983884
     14          1           0        2.311270   -0.121818    1.870530
     15          1           0        2.322269    1.370774    0.909574
     16          1           0       -0.264929   -1.468565    1.624466
     17          1           0       -0.622843   -1.690277   -1.482475
     18          1           0       -1.882941   -2.117640   -0.232643
     19          1           0       -3.061049    0.465638   -0.180997
 ---------------------------------------------------------------------

 SCF Done:  E(RB3LYP) =  -423.174875520     A.U. after    1 cycles

 The electronic state is 1-A.
 Alpha  occ. eigenvalues --  -19.16128 -19.13008 -10.26094 -10.25212 -10.20818
 Alpha  occ. eigenvalues --  -10.20603 -10.20577 -10.18138 -10.18062  -1.05271
 Alpha  occ. eigenvalues --   -1.03484  -0.90245  -0.78376  -0.69555  -0.67551
 Alpha  occ. eigenvalues --   -0.61657  -0.59504  -0.53122  -0.49739  -0.48255
 Alpha  occ. eigenvalues --   -0.46264  -0.44155  -0.42436  -0.42186  -0.40033
 Alpha  occ. eigenvalues --   -0.39339  -0.37650  -0.37043  -0.35834  -0.33857
 Alpha  occ. eigenvalues --   -0.33444  -0.29403  -0.27151  -0.22875
 Alpha virt. eigenvalues --   -0.01135   0.07018   0.09139   0.10780   0.11322
 Alpha virt. eigenvalues --    0.12423   0.13497   0.14890   0.16773   0.17214
 Alpha virt. eigenvalues --    0.17517   0.19034   0.20005   0.21079   0.22048

 Mulliken charges:
               1
     1  C   -0.447847
     2  C    0.184012
     3  C   -0.434822
     4  C   -0.141132
     5  C   -0.369760
     6  C    0.288385
     7  O   -0.450974
     8  C    0.313000
     9  O   -0.335205
    10  H    0.115002
    11  H    0.132814
    12  H    0.117306
    13  H    0.126202
    14  H    0.115219
    15  H    0.133968
    16  H    0.108123
    17  H    0.121456
    18  H    0.126867
    19  H    0.297385
 Sum of Mulliken charges =   0.00000

 Dipole moment (field-independent basis, Debye):
    X=             -0.3297    Y=             -2.8396    Z=              0.0696  Tot=              2.8595
 Quadrupole moment (field-independent basis, Debye-Ang):
   XX=            -47.8943   YY=            -58.2137   ZZ=            -53.5574
   XY=              0.9899   XZ=              3.9523   YZ=              2.0883

  Exact polarizability:  85.131   1.775  76.276   2.090  -1.169  67.092
 Approx polarizability: 114.670   0.380 122.689   2.553  -8.770 103.773

                      1                      2                      3
                      A                      A                      A
 Frequencies --    100.3324               174.9747               180.4264
 Red. masses --      4.3548                 2.4638                 1.1000
 Frc consts  --      0.0258                 0.0444                 0.0211
 IR Inten    --      7.9535                10.4426                 1.1623

                      4                      5                      6
                      A                      A                      A
 Frequencies --    204.3470               217.4753               227.2596
 Red. masses --      1.2196                 1.3437                 2.9562
 Frc consts  --      0.0300                 0.0374                 0.0900
 IR Inten    --     77.8520                 3.7125                 3.8310

                      7                      8                      9
                      A                      A                      A
 Frequencies --    268.4500               311.2549               343.2981
 Red. masses --      2.8016                 2.6799                 2.6261
 Frc consts  --      0.1190                 0.1530                 0.1824
 IR Inten    --      5.3038                 1.2552                 2.0639

                     10                     11                     12
                      A                      A                      A
 Frequencies --    380.5277               474.3478               524.7593
 Red. masses --      3.7232                 2.4922                 2.8188
 Frc consts  --      0.3176                 0.3304                 0.4573
 IR Inten    --      8.3008                 5.3623                 1.2396

                     13                     14                     15
                      A                      A                      A
 Frequencies --    570.4044               668.3198               742.8073
 Red. masses --      3.8456                 4.9709                 3.0331
 Frc consts  --      0.7372                 1.3081                 0.9860
 IR Inten    --      1.0891                 2.7491                 3.2068

                     16                     17                     18
                      A                      A                      A
 Frequencies --    769.6406               847.2219               879.1923
 Red. masses --      4.6058                 2.8024                 4.3111
 Frc consts  --      1.6074                 1.1851                 1.9634
 IR Inten    --      5.2417                24.4256                34.7322

                     19                     20                     21
                      A                      A                      A
 Frequencies --    920.1339               952.5757               959.4560
 Red. masses --      2.8747                 1.4761                 1.4403
 Frc consts  --      1.4340                 0.7892                 0.7812
 IR Inten    --     12.0672                12.1300                 1.3901

                     22                     23                     24
                      A                      A                      A
 Frequencies --    987.7738              1007.2519              1021.9644
 Red. masses --      1.5836                 1.2980                 1.4476
 Frc consts  --      0.9104                 0.7759                 0.8908
 IR Inten    --     14.4917                10.0421                10.8896

                     25                     26                     27
                      A                      A                      A
 Frequencies --   1051.9093              1081.3700              1179.9636
 Red. masses --      2.0164                 1.2962                 1.9024
 Frc consts  --      1.3146                 0.8931                 1.5606
 IR Inten    --     22.0968                 1.9065                19.7223

                     28                     29                     30
                      A                      A                      A
 Frequencies --   1200.4882              1210.5983              1254.6222
 Red. masses --      2.5842                 2.7211                 2.8665
 Frc consts  --      2.1943                 2.3496                 2.6584
 IR Inten    --      2.1765                28.7724                 4.2631

                     31                     32                     33
                      A                      A                      A
 Frequencies --   1277.0754              1321.9935              1396.2932
 Red. masses --      1.9457                 2.3710                 1.2751
 Frc consts  --      1.8696                 2.4414                 1.4647
 IR Inten    --     86.4184                13.1043                 8.7260

                     34                     35                     36
                      A                      A                      A
 Frequencies --   1403.6615              1420.9988              1480.1853
 Red. masses --      1.9101                 1.3404                 1.0997
 Frc consts  --      2.2174                 1.5947                 1.4196
 IR Inten    --     15.3410                 3.7734                 0.9248

                     37                     38                     39
                      A                      A                      A
 Frequencies --   1482.4020              1495.1065              1504.8518
 Red. masses --      1.0487                 1.2175                 1.0849
 Frc consts  --      1.3578                 1.6035                 1.4475
 IR Inten    --      0.4841                 9.8721                 2.8057

                     40                     41                     42
                      A                      A                      A
 Frequencies --   1506.2377              1874.3250              3030.9341
 Red. masses --      1.0685                12.7352                 1.0352
 Frc consts  --      1.4282                26.3600                 5.6029
 IR Inten    --      6.8627               285.1397                20.2650

                     43                     44                     45
                      A                      A                      A
 Frequencies --   3034.1829              3097.2565              3100.6695
 Red. masses --      1.0362                 1.1001                 1.1012
 Frc consts  --      5.6204                 6.2179                 6.2375
 IR Inten    --     25.2536                 9.4926                26.6396

                     46                     47                     48
                      A                      A                      A
 Frequencies --   3109.7222              3115.8550              3119.9361
 Red. masses --      1.0986                 1.1012                 1.0558
 Frc consts  --      6.2595                 6.2988                 6.0549
 IR Inten    --     13.5435                18.7623                21.3629

                     49                     50                     51
                      A                      A                      A
 Frequencies --   3197.5430              3207.0760              3799.8962
 Red. masses --      1.0996                 1.1099                 1.0662
 Frc consts  --      6.6238                 6.7261                 9.0706
 IR Inten    --      2.2546                 8.1785                39.4464

 - Thermochemistry -
 -------------------
 Temperature   298.150 Kelvin.  Pressure   1.00000 Atm.
 Atom     1 has atomic number  6 and mass  12.00000

 Molecular mass:   126.06808 amu.
 Principal axes and moments of inertia in atomic units:
                           1         2         3
     Eigenvalues --   749.732701196.955891416.26382
           X            0.99978   0.00941   0.01886
           Y           -0.01124   0.99498   0.09943
           Z           -0.01783  -0.09962   0.99487
 This molecule is an asymmetric top.
 Rotational symmetry number  1.
 Warning -- assumption of classical behavior for rotation
           may cause significant error
 Rotational temperatures (Kelvin)      0.11553     0.07236     0.06116
 Rotational constants (GHZ):           2.40718     1.50778     1.27430
 Zero-point vibrational energy     410853.5 (Joules/Mol)
                                   98.19635 (Kcal/Mol)
 Warning -- explicit consideration of  13 degrees of freedom as
           vibrations may cause significant error
 Vibrational temperatures:    144.36   251.75   259.59   294.01   312.90
          (Kelvin)            326.98   386.24   447.83   493.93   547.49
                              682.48   755.01   820.68   961.56  1068.73
                             1107.34  1218.96  1264.96  1323.87  1370.54
                             1380.44  1421.18  1449.21  1470.38  1513.46
                             1555.85  1697.70  1727.23  1741.78  1805.12
                             1837.42  1902.05  2008.95  2019.55  2044.50
                             2129.65  2132.84  2151.12  2165.14  2167.14
                             2696.73  4360.83  4365.51  4456.26  4461.17
                             4474.19  4483.01  4488.89  4600.55  4614.26
                             5467.20

 Zero-point correction=                           0.156486 (Hartree/Particle)
 Thermal correction to Energy=                    0.165917
 Thermal correction to Enthalpy=                  0.166861
 Thermal correction to Gibbs Free Energy=         0.122933
 Sum of electronic and zero-point Energies=           -423.018390
 Sum of electronic and thermal Energies=              -423.008959
 Sum of electronic and thermal Enthalpies=            -423.008015
 Sum of electronic and thermal Free Energies=         -423.051942

                     E (Thermal)             CV                S
                      KCal/Mol        Cal/Mol-Kelvin    Cal/Mol-Kelvin
 Total                  104.114             35.493             92.453
 Electronic               0.000              0.000              0.000
 Translational            0.889              2.981             40.409
 Rotational               0.889              2.981             28.632
 Vibrational            102.337             29.532             23.412
 Vibration     1          0.604              1.949              3.448
 Vibration     2          0.627              1.873              2.381
 Vibration     3          0.629              1.866              2.324
 Vibration     4          0.640              1.834              2.094
 Vibration     5          0.646              1.814              1.980
 Vibration     6          0.651              1.799              1.900
 Vibration     7          0.673              1.731              1.606
 Vibration     8          0.700              1.652              1.356
 Vibration     9          0.722              1.589              1.197
 Vibration    10          0.750              1.512              1.037
 Vibration    11          0.831              1.307              0.725
 Vibration    12          0.880              1.195              0.599
 Vibration    13          0.927              1.095              0.503

 Optimization completed.
    -- Stationary point found.
 Normal termination of Gaussian 09 at Mon Jan 27 18:33:22 2020.
