 Gaussian 09, Revision D.01,
 Gaussian 09:  ES64L-G09RevD.01 24-Apr-2013

 -----------------------------
 # b3lyp 6-31G(2df,p) opt Freq
 -----------------------------

 -----
 titel
 -----
 Symbolic Z-matrix:
 Charge =  0 Multiplicity = 1

 SCF Done:  E(RB3LYP) =  -423.211032567     A.U. after   14 cycles
 Optimization completed.
    -- Stationary point found.
 Normal termination of Gaussian 09 at Mon Jan 27 10:18:04 2020.

 ----------------------------------------------------------------------
 #N Geom=AllCheck Guess=TCheck SCRF=Check GenChk RB3LYP/6-31G(2df,p) Fr
 eq
 ----------------------------------------------------------------------

 Structure from the checkpoint file:  "/scratch/puck/g09_c97bed7f-5fc8-428d-aeff-a320db5f6475/Gau-66929.chk"
 -----
 titel
 -----
 Charge =  0 Multiplicity = 1

                         Standard orientation:
 ---------------------------------------------------------------------
 Center     Atomic      Atomic             Coordinates (Angstroms)
 Number     Number       Type             X           Y           Z
 ---------------------------------------------------------------------
      1          6           0       -3.256237   -0.511615    0.414554
      2          6           0       -1.746416   -0.524706    0.670715
      3          6           0       -0.914042    0.004273   -0.513810
      4          8           0       -1.244328    1.356622   -0.828553
      5          6           0        0.554181   -0.028261   -0.216248
      6          6           0        1.470483   -0.929153   -0.659509
      7          8           0        2.701628   -0.662569   -0.147386
      8          6           0        2.567453    0.441838    0.635229
      9          6           0        1.282017    0.874388    0.635345
     10          1           0       -3.800476   -0.947755    1.257257
     11          1           0       -3.637474    0.507789    0.285379
     12          1           0       -3.516619   -1.087888   -0.481218
     13          1           0       -1.509947    0.076468    1.556393
     14          1           0       -1.414862   -1.547508    0.884389
     15          1           0       -1.109458   -0.644502   -1.384691
     16          1           0       -2.180094    1.387125   -1.050233
     17          1           0        1.409321   -1.782347   -1.315265
     18          1           0        3.470571    0.790319    1.108451
     19          1           0        0.885997    1.735276    1.149397
 ---------------------------------------------------------------------

 SCF Done:  E(RB3LYP) =  -423.211032567     A.U. after    1 cycles

 The electronic state is 1-A.
 Alpha  occ. eigenvalues --  -19.19761 -19.13359 -10.23678 -10.22238 -10.22116
 Alpha  occ. eigenvalues --  -10.18283 -10.18236 -10.17893 -10.17355  -1.10002
 Alpha  occ. eigenvalues --   -1.01599  -0.80665  -0.77025  -0.73877  -0.68289
 Alpha  occ. eigenvalues --   -0.60420  -0.57548  -0.55977  -0.51888  -0.49745
 Alpha  occ. eigenvalues --   -0.45838  -0.44214  -0.43558  -0.42475  -0.41188
 Alpha  occ. eigenvalues --   -0.38935  -0.37734  -0.35801  -0.35592  -0.34798
 Alpha  occ. eigenvalues --   -0.32391  -0.27292  -0.25862  -0.21999
 Alpha virt. eigenvalues --    0.02181   0.06278   0.08075   0.11919   0.12866
 Alpha virt. eigenvalues --    0.12982   0.14508   0.15215   0.15470   0.16103
 Alpha virt. eigenvalues --    0.17679   0.18860   0.19855   0.20948   0.23426

 Mulliken charges:
               1
     1  C   -0.409084
     2  C   -0.171250
     3  C   -0.022657
     4  O   -0.438240
     5  C    0.293681
     6  C   -0.120524
     7  O   -0.147329
     8  C    0.003853
     9  C   -0.276008
    10  H    0.122251
    11  H    0.112132
    12  H    0.116058
    13  H    0.105995
    14  H    0.101324
    15  H    0.062551
    16  H    0.283887
    17  H    0.132196
    18  H    0.133768
    19  H    0.117396
 Sum of Mulliken charges =   0.00000

 Dipole moment (field-independent basis, Debye):
    X=             -1.6247    Y=             -0.7140    Z=              0.2831  Tot=              1.7971
 Quadrupole moment (field-independent basis, Debye-Ang):
   XX=            -49.0848   YY=            -53.5108   ZZ=            -52.5877
   XY=              1.1580   XZ=              2.6740   YZ=              3.2099

  Exact polarizability:  99.939  -1.031  70.143   4.104  10.024  62.746
 Approx polarizability: 135.532  -8.269 114.368   6.032  19.897  97.396

                      1                      2                      3
                      A                      A                      A
 Frequencies --     49.9222                90.3931               119.2928
 Red. masses --      3.8301                 2.0776                 4.2361
 Frc consts  --      0.0056                 0.0100                 0.0355
 IR Inten    --      0.7011                 0.6137                 0.5676

                      4                      5                      6
                      A                      A                      A
 Frequencies --    195.3625               243.2434               287.5937
 Red. masses --      2.6031                 1.2094                 3.2899
 Frc consts  --      0.0585                 0.0422                 0.1603
 IR Inten    --      2.8898                30.1533                 2.4041

                      7                      8                      9
                      A                      A                      A
 Frequencies --    309.8569               359.6161               417.7295
 Red. masses --      1.2437                 3.3145                 4.6018
 Frc consts  --      0.0704                 0.2526                 0.4731
 IR Inten    --     70.3971                 8.1795                 2.2394

                     10                     11                     12
                      A                      A                      A
 Frequencies --    515.4501               621.6578               678.2478
 Red. masses --      2.7552                 4.3250                 2.4476
 Frc consts  --      0.4313                 0.9848                 0.6634
 IR Inten    --      5.3971                 9.2740                 4.4391

                     13                     14                     15
                      A                      A                      A
 Frequencies --    724.4449               737.3911               786.8346
 Red. masses --      2.3082                 1.4460                 1.5291
 Frc consts  --      0.7137                 0.4633                 0.5578
 IR Inten    --     14.1863                 7.0818                 9.5773

                     16                     17                     18
                      A                      A                      A
 Frequencies --    789.9937               842.1230               886.8606
 Red. masses --      1.3925                 1.3344                 2.0440
 Frc consts  --      0.5120                 0.5575                 0.9472
 IR Inten    --     34.1886                 9.8710                 5.9894

                     19                     20                     21
                      A                      A                      A
 Frequencies --    894.4859               979.9907               995.6638
 Red. masses --      5.1901                 2.8751                 2.2257
 Frc consts  --      2.4466                 1.6268                 1.3000
 IR Inten    --     34.9288                12.6807                19.9791

                     22                     23                     24
                      A                      A                      A
 Frequencies --   1050.2647              1058.5765              1096.9596
 Red. masses --      2.0380                 2.7339                 2.0316
 Frc consts  --      1.3245                 1.8050                 1.4403
 IR Inten    --     27.5822                 7.3878                21.0387

                     25                     26                     27
                      A                      A                      A
 Frequencies --   1114.4769              1134.2521              1193.9861
 Red. masses --      2.3031                 1.9870                 2.6884
 Frc consts  --      1.6854                 1.5062                 2.2581
 IR Inten    --     10.2798                23.5886                17.5767

                     28                     29                     30
                      A                      A                      A
 Frequencies --   1223.1188              1261.7503              1287.5627
 Red. masses --      1.5161                 1.3978                 1.2389
 Frc consts  --      1.3363                 1.3111                 1.2101
 IR Inten    --     62.3337                11.3433                 0.6527

                     31                     32                     33
                      A                      A                      A
 Frequencies --   1292.6538              1328.7755              1378.4767
 Red. masses --      1.4333                 1.3832                 1.2625
 Frc consts  --      1.4111                 1.4390                 1.4135
 IR Inten    --      2.8525                11.0359                 4.8098

                     34                     35                     36
                      A                      A                      A
 Frequencies --   1404.6274              1414.2999              1436.6632
 Red. masses --      1.4705                 2.5995                 1.5808
 Frc consts  --      1.7094                 3.0635                 1.9224
 IR Inten    --      3.8194                 8.2114                13.0394

                     37                     38                     39
                      A                      A                      A
 Frequencies --   1476.1767              1499.3489              1513.6607
 Red. masses --      1.0872                 1.0535                 1.0479
 Frc consts  --      1.3959                 1.3954                 1.4146
 IR Inten    --      1.6997                 5.3409                 5.8792

                     40                     41                     42
                      A                      A                      A
 Frequencies --   1539.3979              1639.7815              2952.4568
 Red. masses --      4.0398                 5.9292                 1.0825
 Frc consts  --      5.6404                 9.3934                 5.5598
 IR Inten    --     19.8771                 3.2240                46.4303

                     43                     44                     45
                      A                      A                      A
 Frequencies --   3026.3530              3035.5924              3070.4471
 Red. masses --      1.0377                 1.0587                 1.1014
 Frc consts  --      5.5997                 5.7479                 6.1180
 IR Inten    --     22.3309                26.1170                 1.0035

                     46                     47                     48
                      A                      A                      A
 Frequencies --   3095.4085              3104.8316              3262.8364
 Red. masses --      1.1030                 1.0989                 1.0886
 Frc consts  --      6.2267                 6.2412                 6.8282
 IR Inten    --     52.9025                26.0055                 0.0673

                     49                     50                     51
                      A                      A                      A
 Frequencies --   3271.0273              3286.9821              3824.4524
 Red. masses --      1.0974                 1.1073                 1.0657
 Frc consts  --      6.9178                 7.0488                 9.1839
 IR Inten    --      0.5753                 1.2551                12.3589

 - Thermochemistry -
 -------------------
 Temperature   298.150 Kelvin.  Pressure   1.00000 Atm.
 Atom     1 has atomic number  6 and mass  12.00000

 Molecular mass:   126.06808 amu.
 Principal axes and moments of inertia in atomic units:
                           1         2         3
     Eigenvalues --   459.020641993.309102097.98773
           X            0.99986   0.01686  -0.00079
           Y           -0.01671   0.99521   0.09628
           Z            0.00240  -0.09625   0.99535
 This molecule is an asymmetric top.
 Rotational symmetry number  1.
 Warning -- assumption of classical behavior for rotation
           may cause significant error
 Rotational temperatures (Kelvin)      0.18869     0.04345     0.04128
 Rotational constants (GHZ):           3.93172     0.90540     0.86022
 Zero-point vibrational energy     417504.8 (Joules/Mol)
                                   99.78604 (Kcal/Mol)
 Warning -- explicit consideration of  10 degrees of freedom as
           vibrations may cause significant error
 Vibrational temperatures:     71.83   130.06   171.64   281.08   349.97
          (Kelvin)            413.78   445.81   517.41   601.02   741.62
                              894.43   975.85  1042.31  1060.94  1132.08
                             1136.62  1211.63  1275.99  1286.96  1409.99
                             1432.54  1511.09  1523.05  1578.28  1603.48
                             1631.93  1717.88  1759.79  1815.37  1852.51
                             1859.84  1911.81  1983.32  2020.94  2034.86
                             2067.04  2123.89  2157.23  2177.82  2214.85
                             2359.28  4247.92  4354.24  4367.53  4417.68
                             4453.60  4467.15  4694.49  4706.27  4729.23
                             5502.53

 Zero-point correction=                           0.159019 (Hartree/Particle)
 Thermal correction to Energy=                    0.168054
 Thermal correction to Enthalpy=                  0.168998
 Thermal correction to Gibbs Free Energy=         0.124568
 Sum of electronic and zero-point Energies=           -423.052013
 Sum of electronic and thermal Energies=              -423.042979
 Sum of electronic and thermal Enthalpies=            -423.042035
 Sum of electronic and thermal Free Energies=         -423.086465

                     E (Thermal)             CV                S
                      KCal/Mol        Cal/Mol-Kelvin    Cal/Mol-Kelvin
 Total                  105.455             33.340             93.512
 Electronic               0.000              0.000              0.000
 Translational            0.889              2.981             40.409
 Rotational               0.889              2.981             29.042
 Vibrational            103.678             27.378             24.062
 Vibration     1          0.595              1.978              4.820
 Vibration     2          0.602              1.956              3.652
 Vibration     3          0.609              1.933              3.112
 Vibration     4          0.636              1.846              2.176
 Vibration     5          0.659              1.774              1.779
 Vibration     6          0.685              1.697              1.488
 Vibration     7          0.699              1.655              1.363
 Vibration     8          0.734              1.555              1.124
 Vibration     9          0.781              1.432              0.900
 Vibration    10          0.870              1.216              0.621

 Optimization completed.
    -- Stationary point found.
 Normal termination of Gaussian 09 at Mon Jan 27 10:54:44 2020.
