 Gaussian 09, Revision D.01,
 Gaussian 09:  ES64L-G09RevD.01 24-Apr-2013

 -----------------------------
 # b3lyp 6-31G(2df,p) opt Freq
 -----------------------------

 -----
 titel
 -----
 Symbolic Z-matrix:
 Charge =  0 Multiplicity = 1

 SCF Done:  E(RB3LYP) =  -423.214147449     A.U. after   14 cycles
 Optimization completed.
    -- Stationary point found.
 Normal termination of Gaussian 09 at Tue Jan 28 08:13:40 2020.

 ----------------------------------------------------------------------
 #N Geom=AllCheck Guess=TCheck SCRF=Check GenChk RB3LYP/6-31G(2df,p) Fr
 eq
 ----------------------------------------------------------------------

 Structure from the checkpoint file:  "/scratch/puck/g09_d70d844c-cf1a-41e6-bdb3-0ec022972925/Gau-25791.chk"
 -----
 titel
 -----
 Charge =  0 Multiplicity = 1

                         Standard orientation:
 ---------------------------------------------------------------------
 Center     Atomic      Atomic             Coordinates (Angstroms)
 Number     Number       Type             X           Y           Z
 ---------------------------------------------------------------------
      1          8           0        2.428910   -1.212481   -0.218573
      2          6           0        1.229524   -0.448147   -0.313207
      3          6           0        1.405961    0.919146    0.354729
      4          6           0        0.448827    2.011256   -0.127960
      5          6           0       -1.030973    1.775236   -0.035473
      6          6           0       -1.756934    0.650999    0.035508
      7          6           0       -1.368590   -0.779772    0.037491
      8          8           0       -2.247876   -1.610345   -0.105807
      9          6           0        0.061781   -1.258626    0.259783
     10          1           0        2.581826   -1.407247    0.713146
     11          1           0        1.085689   -0.307917   -1.392068
     12          1           0        1.315512    0.802638    1.443903
     13          1           0        2.430562    1.248986    0.154947
     14          1           0        0.672635    2.938582    0.414207
     15          1           0        0.672779    2.247625   -1.180499
     16          1           0       -1.608017    2.698714   -0.083426
     17          1           0       -2.839817    0.748019    0.035846
     18          1           0        0.195814   -1.328271    1.351293
     19          1           0        0.107170   -2.279067   -0.127546
 ---------------------------------------------------------------------

 SCF Done:  E(RB3LYP) =  -423.214147449     A.U. after    1 cycles

 The electronic state is 1-A.
 Alpha  occ. eigenvalues --  -19.14108 -19.12100 -10.26675 -10.24233 -10.21413
 Alpha  occ. eigenvalues --  -10.20694 -10.19361 -10.19210 -10.18936  -1.03153
 Alpha  occ. eigenvalues --   -1.02408  -0.83107  -0.77129  -0.75574  -0.67163
 Alpha  occ. eigenvalues --   -0.63265  -0.58675  -0.51512  -0.50603  -0.48786
 Alpha  occ. eigenvalues --   -0.47163  -0.45660  -0.42709  -0.41914  -0.40886
 Alpha  occ. eigenvalues --   -0.39157  -0.38563  -0.36410  -0.36225  -0.33211
 Alpha  occ. eigenvalues --   -0.32549  -0.28165  -0.27055  -0.23927
 Alpha virt. eigenvalues --   -0.05224   0.05873   0.07390   0.07777   0.11396
 Alpha virt. eigenvalues --    0.12022   0.13428   0.14854   0.15818   0.16058
 Alpha virt. eigenvalues --    0.17619   0.18424   0.20611   0.21103   0.22460

 Mulliken charges:
               1
     1  O   -0.423343
     2  C    0.111085
     3  C   -0.229001
     4  C   -0.265582
     5  C   -0.040415
     6  C   -0.139834
     7  C    0.350195
     8  O   -0.322997
     9  C   -0.326068
    10  H    0.277537
    11  H    0.095101
    12  H    0.093145
    13  H    0.112238
    14  H    0.116783
    15  H    0.129700
    16  H    0.107846
    17  H    0.107261
    18  H    0.112057
    19  H    0.134293
 Sum of Mulliken charges =   0.00000

 Dipole moment (field-independent basis, Debye):
    X=              1.7268    Y=              3.0217    Z=              1.3577  Tot=              3.7357
 Quadrupole moment (field-independent basis, Debye-Ang):
   XX=            -61.1556   YY=            -53.4529   ZZ=            -51.5942
   XY=             -4.6218   XZ=              3.0771   YZ=             -2.9486

  Exact polarizability:  87.361   6.859  94.060   1.576  -1.730  56.025
 Approx polarizability: 124.764  23.368 146.438   1.754  -1.657  90.791

                      1                      2                      3
                      A                      A                      A
 Frequencies --     47.3557               110.8453               189.4130
 Red. masses --      3.6417                 2.8018                 2.6736
 Frc consts  --      0.0048                 0.0203                 0.0565
 IR Inten    --      1.9231                 2.9616                 6.2599

                      4                      5                      6
                      A                      A                      A
 Frequencies --    263.3506               309.1226               330.8253
 Red. masses --      1.2190                 2.2087                 5.1435
 Frc consts  --      0.0498                 0.1244                 0.3317
 IR Inten    --     46.3386                19.1938                 3.7643

                      7                      8                      9
                      A                      A                      A
 Frequencies --    341.6547               371.0888               436.2379
 Red. masses --      3.6775                 5.4329                 2.2508
 Frc consts  --      0.2529                 0.4408                 0.2524
 IR Inten    --     25.2486                 4.8400                 4.1602

                     10                     11                     12
                      A                      A                      A
 Frequencies --    488.2014               542.5020               614.8861
 Red. masses --      2.6850                 3.7707                 2.5851
 Frc consts  --      0.3770                 0.6538                 0.5759
 IR Inten    --      5.0209                 6.1763                 2.4952

                     13                     14                     15
                      A                      A                      A
 Frequencies --    687.9459               757.5900               826.6342
 Red. masses --      2.0445                 2.0239                 3.4423
 Frc consts  --      0.5701                 0.6844                 1.3859
 IR Inten    --      4.5409                11.6945                 5.5473

                     16                     17                     18
                      A                      A                      A
 Frequencies --    852.4084               893.4618               923.8961
 Red. masses --      2.0041                 2.5208                 1.7517
 Frc consts  --      0.8579                 1.1856                 0.8809
 IR Inten    --      9.2293                 4.2763                 6.6803

                     19                     20                     21
                      A                      A                      A
 Frequencies --    934.5068              1037.2892              1048.3570
 Red. masses --      2.5518                 1.6345                 2.0700
 Frc consts  --      1.3130                 1.0362                 1.3404
 IR Inten    --      1.2891                37.6790                49.3644

                     22                     23                     24
                      A                      A                      A
 Frequencies --   1062.1171              1080.2872              1130.1447
 Red. masses --      2.1446                 2.1216                 2.3219
 Frc consts  --      1.4254                 1.4588                 1.7473
 IR Inten    --     17.6033                14.3682                10.9912

                     25                     26                     27
                      A                      A                      A
 Frequencies --   1162.8157              1207.7744              1215.0184
 Red. masses --      1.2927                 1.1996                 1.6868
 Frc consts  --      1.0298                 1.0310                 1.4672
 IR Inten    --      3.3549                17.9054                59.4740

                     28                     29                     30
                      A                      A                      A
 Frequencies --   1273.0531              1291.7075              1303.5616
 Red. masses --      1.3056                 1.3061                 1.3578
 Frc consts  --      1.2467                 1.2840                 1.3594
 IR Inten    --      8.4663                 0.3978                50.6398

                     31                     32                     33
                      A                      A                      A
 Frequencies --   1322.3937              1369.9212              1392.1411
 Red. masses --      1.4927                 1.4617                 1.5804
 Frc consts  --      1.5379                 1.6163                 1.8046
 IR Inten    --     16.9313                 1.4364                 1.9959

                     34                     35                     36
                      A                      A                      A
 Frequencies --   1399.4737              1427.9574              1428.9551
 Red. masses --      1.4321                 1.4443                 1.2675
 Frc consts  --      1.6525                 1.7352                 1.5249
 IR Inten    --     16.3729                34.4535                22.4647

                     37                     38                     39
                      A                      A                      A
 Frequencies --   1458.8733              1464.1174              1494.7272
 Red. masses --      1.0946                 1.0895                 1.0913
 Frc consts  --      1.3726                 1.3760                 1.4365
 IR Inten    --      3.1174                10.5430                 3.8596

                     40                     41                     42
                      A                      A                      A
 Frequencies --   1700.9412              1746.8106              2989.8901
 Red. masses --      7.1618                11.0528                 1.0707
 Frc consts  --     12.2082                19.8708                 5.6395
 IR Inten    --     30.2738               190.2329                14.4871

                     43                     44                     45
                      A                      A                      A
 Frequencies --   2991.5197              3011.2444              3037.3052
 Red. masses --      1.0702                 1.0666                 1.0843
 Frc consts  --      5.6428                 5.6981                 5.8935
 IR Inten    --      0.9237                14.6806                21.8625

                     46                     47                     48
                      A                      A                      A
 Frequencies --   3043.5652              3079.0334              3107.7905
 Red. masses --      1.0868                 1.0966                 1.0907
 Frc consts  --      5.9315                 6.1255                 6.2065
 IR Inten    --     40.6872                25.2669                 7.9742

                     49                     50                     51
                      A                      A                      A
 Frequencies --   3125.1793              3166.6209              3794.8478
 Red. masses --      1.0853                 1.0911                 1.0659
 Frc consts  --      6.2454                 6.4461                 9.0441
 IR Inten    --     13.9129                12.1437                15.0279

 - Thermochemistry -
 -------------------
 Temperature   298.150 Kelvin.  Pressure   1.00000 Atm.
 Atom     1 has atomic number  8 and mass  15.99491

 Molecular mass:   126.06808 amu.
 Principal axes and moments of inertia in atomic units:
                           1         2         3
     Eigenvalues --   859.448361184.528281953.55896
           X            0.99939  -0.03415   0.00795
           Y            0.03424   0.99936  -0.01072
           Z           -0.00758   0.01099   0.99991
 This molecule is an asymmetric top.
 Rotational symmetry number  1.
 Warning -- assumption of classical behavior for rotation
           may cause significant error
 Rotational temperatures (Kelvin)      0.10078     0.07312     0.04434
 Rotational constants (GHZ):           2.09988     1.52359     0.92382
 Zero-point vibrational energy     420411.8 (Joules/Mol)
                                  100.48083 (Kcal/Mol)
 Warning -- explicit consideration of  12 degrees of freedom as
           vibrations may cause significant error
 Vibrational temperatures:     68.13   159.48   272.52   378.90   444.76
          (Kelvin)            475.98   491.56   533.91   627.65   702.41
                              780.54   884.68   989.80  1090.00  1189.34
                             1226.42  1285.49  1329.28  1344.55  1492.43
                             1508.35  1528.15  1554.29  1626.02  1673.03
                             1737.72  1748.14  1831.64  1858.48  1875.53
                             1902.63  1971.01  2002.98  2013.53  2054.51
                             2055.95  2098.99  2106.54  2150.58  2447.27
                             2513.27  4301.78  4304.12  4332.50  4370.00
                             4379.01  4430.04  4471.41  4496.43  4556.06
                             5459.93

 Zero-point correction=                           0.160126 (Hartree/Particle)
 Thermal correction to Energy=                    0.168706
 Thermal correction to Enthalpy=                  0.169651
 Thermal correction to Gibbs Free Energy=         0.126417
 Sum of electronic and zero-point Energies=           -423.054021
 Sum of electronic and thermal Energies=              -423.045441
 Sum of electronic and thermal Enthalpies=            -423.044497
 Sum of electronic and thermal Free Energies=         -423.087730

                     E (Thermal)             CV                S
                      KCal/Mol        Cal/Mol-Kelvin    Cal/Mol-Kelvin
 Total                  105.865             32.472             90.992
 Electronic               0.000              0.000              0.000
 Translational            0.889              2.981             40.409
 Rotational               0.889              2.981             29.077
 Vibrational            104.087             26.511             21.507
 Vibration     1          0.595              1.979              4.925
 Vibration     2          0.607              1.940              3.254
 Vibration     3          0.633              1.854              2.234
 Vibration     4          0.670              1.740              1.639
 Vibration     5          0.698              1.656              1.367
 Vibration     6          0.713              1.614              1.256
 Vibration     7          0.721              1.592              1.204
 Vibration     8          0.743              1.532              1.075
 Vibration     9          0.797              1.391              0.839
 Vibration    10          0.844              1.276              0.688
 Vibration    11          0.898              1.156              0.560
 Vibration    12          0.974              1.000              0.425

 Normal termination of Gaussian 09 at Tue Jan 28 08:57:53 2020.
