 Gaussian 09, Revision D.01,
 Gaussian 09:  ES64L-G09RevD.01 24-Apr-2013

 -----------------------------
 # b3lyp 6-31G(2df,p) opt Freq
 -----------------------------

 -----
 titel
 -----
 Symbolic Z-matrix:
 Charge =  0 Multiplicity = 1

 SCF Done:  E(RB3LYP) =  -423.114754661     A.U. after   13 cycles
 Optimization completed.
    -- Stationary point found.
 Normal termination of Gaussian 09 at Tue Jan 28 02:20:51 2020.

 ----------------------------------------------------------------------
 #N Geom=AllCheck Guess=TCheck SCRF=Check GenChk RB3LYP/6-31G(2df,p) Fr
 eq
 ----------------------------------------------------------------------

 Structure from the checkpoint file:  "/scratch/puck/g09_c12d66d7-42a5-41fc-9e34-9c1ca19f6077/Gau-194333.chk"
 -----
 titel
 -----
 Charge =  0 Multiplicity = 1

                         Standard orientation:
 ---------------------------------------------------------------------
 Center     Atomic      Atomic             Coordinates (Angstroms)
 Number     Number       Type             X           Y           Z
 ---------------------------------------------------------------------
      1          8           0       -3.187547   -0.824814   -0.147631
      2          6           0       -2.140245   -0.091916    0.418901
      3          6           0       -1.813285    1.312426   -0.002957
      4          6           0       -0.848439    0.170092   -0.309232
      5          6           0        0.480473    0.077401    0.391396
      6          6           0        1.241098   -1.289817    0.193383
      7          6           0        2.359399   -0.514172   -0.515219
      8          8           0        2.844798    0.469486    0.406536
      9          6           0        1.657088    0.766538   -0.333376
     10          1           0       -3.374649   -0.469630   -1.021983
     11          1           0       -2.072429   -0.325142    1.477127
     12          1           0       -2.369764    1.735552   -0.834662
     13          1           0       -1.540185    2.036936    0.758014
     14          1           0       -0.838308   -0.150905   -1.350076
     15          1           0        0.385198    0.398765    1.433703
     16          1           0        1.545475   -1.827197    1.094419
     17          1           0        0.694031   -1.965369   -0.469322
     18          1           0        3.044849   -0.846398   -1.286444
     19          1           0        1.651240    1.672690   -0.929404
 ---------------------------------------------------------------------

 SCF Done:  E(RB3LYP) =  -423.114754661     A.U. after    1 cycles

 The electronic state is 1-A.
 Alpha  occ. eigenvalues --  -19.14743 -19.14453 -10.23917 -10.23505 -10.23302
 Alpha  occ. eigenvalues --  -10.19765 -10.19404 -10.18939 -10.18740  -1.07419
 Alpha  occ. eigenvalues --   -1.02956  -0.85694  -0.79512  -0.67606  -0.63268
 Alpha  occ. eigenvalues --   -0.61675  -0.59660  -0.55343  -0.52599  -0.51452
 Alpha  occ. eigenvalues --   -0.47140  -0.44411  -0.43249  -0.41021  -0.39795
 Alpha  occ. eigenvalues --   -0.37942  -0.37592  -0.35801  -0.34300  -0.33465
 Alpha  occ. eigenvalues --   -0.30330  -0.27337  -0.25680  -0.23711
 Alpha virt. eigenvalues --    0.07319   0.08824   0.09438   0.10455   0.11709
 Alpha virt. eigenvalues --    0.12588   0.12783   0.14916   0.15189   0.15403
 Alpha virt. eigenvalues --    0.16963   0.17328   0.18729   0.19662   0.21583

 Mulliken charges:
               1
     1  O   -0.428209
     2  C    0.141524
     3  C   -0.353287
     4  C   -0.058340
     5  C   -0.023727
     6  C   -0.278319
     7  C    0.036809
     8  O   -0.249859
     9  C    0.019501
    10  H    0.282662
    11  H    0.109270
    12  H    0.106683
    13  H    0.119285
    14  H    0.077471
    15  H    0.077318
    16  H    0.109968
    17  H    0.109880
    18  H    0.101352
    19  H    0.100020
 Sum of Mulliken charges =   0.00000

 Dipole moment (field-independent basis, Debye):
    X=             -0.8575    Y=              0.4737    Z=             -1.8932  Tot=              2.1317
 Quadrupole moment (field-independent basis, Debye-Ang):
   XX=            -61.6585   YY=            -53.2308   ZZ=            -49.4501
   XY=             -5.9565   XZ=              0.3039   YZ=             -0.1251

  Exact polarizability:  88.189  -3.382  73.982  -0.875  -0.435  64.533
 Approx polarizability: 114.136  -1.802 112.304   1.584   1.374 101.273

                      1                      2                      3
                      A                      A                      A
 Frequencies --     57.6947                61.4587               110.5959
 Red. masses --      1.3138                 2.2294                 4.2272
 Frc consts  --      0.0026                 0.0050                 0.0305
 IR Inten    --     50.6649                42.0413                 1.4930

                      4                      5                      6
                      A                      A                      A
 Frequencies --    136.6316               277.8976               296.5941
 Red. masses --      3.5600                 3.0461                 6.2522
 Frc consts  --      0.0392                 0.1386                 0.3240
 IR Inten    --      7.6952                 1.5229                 0.3563

                      7                      8                      9
                      A                      A                      A
 Frequencies --    372.8457               422.5399               469.3074
 Red. masses --      2.9689                 2.2329                 2.4965
 Frc consts  --      0.2432                 0.2349                 0.3240
 IR Inten    --      6.6612                 2.2656                 3.2029

                     10                     11                     12
                      A                      A                      A
 Frequencies --    511.6463               749.3283               796.6805
 Red. masses --      3.3696                 2.9435                 2.1912
 Frc consts  --      0.5197                 0.9738                 0.8194
 IR Inten    --     11.9265                 0.6638                 6.2491

                     13                     14                     15
                      A                      A                      A
 Frequencies --    811.5830               843.8120               857.7666
 Red. masses --      2.3166                 2.4146                 1.9711
 Frc consts  --      0.8990                 1.0130                 0.8545
 IR Inten    --      8.1113                 7.1840                33.4737

                     16                     17                     18
                      A                      A                      A
 Frequencies --    896.0469               913.2103               932.7406
 Red. masses --      3.0727                 1.7925                 2.1440
 Frc consts  --      1.4535                 0.8808                 1.0990
 IR Inten    --     17.9694                 4.2209                 0.9661

                     19                     20                     21
                      A                      A                      A
 Frequencies --    948.3345               974.4565               996.8568
 Red. masses --      2.6688                 1.9615                 2.2867
 Frc consts  --      1.4141                 1.0974                 1.3388
 IR Inten    --     20.9968                18.6332                 6.6894

                     22                     23                     24
                      A                      A                      A
 Frequencies --   1027.9373              1045.4401              1055.6579
 Red. masses --      2.2825                 1.3214                 1.5001
 Frc consts  --      1.4210                 0.8509                 0.9849
 IR Inten    --     11.0325                 5.1189                 1.4965

                     25                     26                     27
                      A                      A                      A
 Frequencies --   1093.2090              1100.9290              1115.8256
 Red. masses --      1.3791                 2.1105                 1.2875
 Frc consts  --      0.9711                 1.5071                 0.9445
 IR Inten    --      6.2484                68.8859                 4.8177

                     28                     29                     30
                      A                      A                      A
 Frequencies --   1143.5323              1203.3482              1217.7293
 Red. masses --      1.4977                 1.6163                 1.4596
 Frc consts  --      1.1539                 1.3789                 1.2752
 IR Inten    --     15.8643                 0.8769                11.1151

                     31                     32                     33
                      A                      A                      A
 Frequencies --   1227.0717              1236.5973              1237.4040
 Red. masses --      1.4034                 1.8342                 1.4391
 Frc consts  --      1.2450                 1.6526                 1.2982
 IR Inten    --      4.5024                34.9120                13.7282

                     34                     35                     36
                      A                      A                      A
 Frequencies --   1269.1474              1275.6843              1330.4309
 Red. masses --      1.3269                 1.5565                 1.5903
 Frc consts  --      1.2592                 1.4924                 1.6585
 IR Inten    --      4.4613                 4.2880                 2.6789

                     37                     38                     39
                      A                      A                      A
 Frequencies --   1385.2497              1404.2700              1443.4637
 Red. masses --      3.5958                 1.4017                 1.3036
 Frc consts  --      4.0654                 1.6285                 1.6003
 IR Inten    --     19.8743                16.1923                37.8351

                     40                     41                     42
                      A                      A                      A
 Frequencies --   1473.1313              1493.2395              3054.5116
 Red. masses --      1.1164                 1.6293                 1.0837
 Frc consts  --      1.4275                 2.1405                 5.9572
 IR Inten    --      1.9986                37.2849                18.7874

                     43                     44                     45
                      A                      A                      A
 Frequencies --   3065.4984              3113.6510              3119.3353
 Red. masses --      1.0591                 1.0801                 1.0639
 Frc consts  --      5.8637                 6.1694                 6.0995
 IR Inten    --     23.4279                11.9056                 5.9083

                     46                     47                     48
                      A                      A                      A
 Frequencies --   3123.4560              3161.2675              3172.9094
 Red. masses --      1.1062                 1.0897                 1.0873
 Frc consts  --      6.3587                 6.4163                 6.4494
 IR Inten    --     25.9707                11.5201                17.5256

                     49                     50                     51
                      A                      A                      A
 Frequencies --   3189.6694              3203.7940              3825.5275
 Red. masses --      1.1008                 1.1151                 1.0660
 Frc consts  --      6.5986                 6.7433                 9.1918
 IR Inten    --     24.9817                12.2672                21.3664

 - Thermochemistry -
 -------------------
 Temperature   298.150 Kelvin.  Pressure   1.00000 Atm.
 Atom     1 has atomic number  8 and mass  15.99491

 Molecular mass:   126.06808 amu.
 Principal axes and moments of inertia in atomic units:
                           1         2         3
     Eigenvalues --   391.397062075.732762285.42807
           X            0.99983  -0.01833  -0.00201
           Y            0.01831   0.99977  -0.01105
           Z            0.00221   0.01101   0.99994
 This molecule is an asymmetric top.
 Rotational symmetry number  1.
 Rotational temperatures (Kelvin)      0.22129     0.04173     0.03790
 Rotational constants (GHZ):           4.61102     0.86945     0.78967
 Zero-point vibrational energy     414188.7 (Joules/Mol)
                                   98.99348 (Kcal/Mol)
 Warning -- explicit consideration of  10 degrees of freedom as
           vibrations may cause significant error
 Vibrational temperatures:     83.01    88.43   159.12   196.58   399.83
          (Kelvin)            426.73   536.44   607.94   675.23   736.14
                             1078.11  1146.24  1167.69  1214.06  1234.13
                             1289.21  1313.90  1342.00  1364.44  1402.02
                             1434.25  1478.97  1504.15  1518.85  1572.88
                             1583.99  1605.42  1645.29  1731.35  1752.04
                             1765.48  1779.19  1780.35  1826.02  1835.42
                             1914.19  1993.06  2020.43  2076.82  2119.50
                             2148.44  4394.76  4410.56  4479.84  4488.02
                             4493.95  4548.35  4565.10  4589.22  4609.54
                             5504.07

 Zero-point correction=                           0.157756 (Hartree/Particle)
 Thermal correction to Energy=                    0.166548
 Thermal correction to Enthalpy=                  0.167492
 Thermal correction to Gibbs Free Energy=         0.123159
 Sum of electronic and zero-point Energies=           -422.956999
 Sum of electronic and thermal Energies=              -422.948206
 Sum of electronic and thermal Enthalpies=            -422.947262
 Sum of electronic and thermal Free Energies=         -422.991595

                     E (Thermal)             CV                S
                      KCal/Mol        Cal/Mol-Kelvin    Cal/Mol-Kelvin
 Total                  104.511             32.435             93.307
 Electronic               0.000              0.000              0.000
 Translational            0.889              2.981             40.409
 Rotational               0.889              2.981             29.008
 Vibrational            102.733             26.474             23.890
 Vibration     1          0.596              1.974              4.535
 Vibration     2          0.597              1.973              4.410
 Vibration     3          0.606              1.941              3.258
 Vibration     4          0.614              1.917              2.851
 Vibration     5          0.679              1.714              1.547
 Vibration     6          0.690              1.680              1.436
 Vibration     7          0.744              1.528              1.068
 Vibration     8          0.785              1.421              0.883
 Vibration     9          0.826              1.318              0.739
 Vibration    10          0.867              1.224              0.630

 Optimization completed on the basis of negligible forces.
    -- Stationary point found.
 Normal termination of Gaussian 09 at Tue Jan 28 02:59:52 2020.
