 Gaussian 09, Revision D.01,
 Gaussian 09:  ES64L-G09RevD.01 24-Apr-2013

 -----------------------------
 # b3lyp 6-31G(2df,p) opt Freq
 -----------------------------

 -----
 titel
 -----
 Symbolic Z-matrix:
 Charge =  0 Multiplicity = 1

 SCF Done:  E(RB3LYP) =  -423.143350481     A.U. after   14 cycles
 Optimization completed.
    -- Stationary point found.
 Normal termination of Gaussian 09 at Tue Jan 28 08:17:48 2020.

 ----------------------------------------------------------------------
 #N Geom=AllCheck Guess=TCheck SCRF=Check GenChk RB3LYP/6-31G(2df,p) Fr
 eq
 ----------------------------------------------------------------------

 Structure from the checkpoint file:  "/scratch/puck/g09_ac9baca7-472d-46ed-872d-a3fa2aff3ca1/Gau-8480.chk"
 -----
 titel
 -----
 Charge =  0 Multiplicity = 1

                         Standard orientation:
 ---------------------------------------------------------------------
 Center     Atomic      Atomic             Coordinates (Angstroms)
 Number     Number       Type             X           Y           Z
 ---------------------------------------------------------------------
      1          6           0       -2.230418   -1.836042    0.076916
      2          8           0       -1.083733   -1.169512   -0.414923
      3          6           0       -0.841770    0.077269    0.202951
      4          6           0        0.593555    0.505400   -0.126935
      5          6           0        1.632509   -0.504844    0.400522
      6          6           0        2.998656   -0.119751    0.072877
      7          6           0        4.115485    0.220843   -0.212409
      8          6           0       -1.807138    1.137384   -0.325622
      9          8           0       -2.106068    2.140223    0.266344
     10          1           0       -3.149787   -1.252054   -0.077989
     11          1           0       -2.315596   -2.776189   -0.471993
     12          1           0       -2.138650   -2.053678    1.151389
     13          1           0       -0.967021    0.011084    1.295865
     14          1           0        0.700180    0.601362   -1.213019
     15          1           0        0.769865    1.493019    0.308866
     16          1           0        1.527535   -0.598542    1.489560
     17          1           0        1.408870   -1.491638   -0.018064
     18          1           0        5.107346    0.509528   -0.457557
     19          1           0       -2.189610    0.909870   -1.348231
 ---------------------------------------------------------------------

 SCF Done:  E(RB3LYP) =  -423.143350481     A.U. after    1 cycles

 The electronic state is 1-A.
 Alpha  occ. eigenvalues --  -19.16106 -19.15026 -10.27635 -10.25022 -10.24009
 Alpha  occ. eigenvalues --  -10.21229 -10.20337 -10.18142 -10.17038  -1.06173
 Alpha  occ. eigenvalues --   -1.04895  -0.81994  -0.76419  -0.71148  -0.68114
 Alpha  occ. eigenvalues --   -0.63297  -0.58452  -0.52817  -0.51882  -0.48492
 Alpha  occ. eigenvalues --   -0.48364  -0.46260  -0.44666  -0.44101  -0.42774
 Alpha  occ. eigenvalues --   -0.40818  -0.38314  -0.37182  -0.36317  -0.33634
 Alpha  occ. eigenvalues --   -0.29479  -0.26755  -0.26388  -0.24734
 Alpha virt. eigenvalues --   -0.03622   0.05655   0.05842   0.08494   0.10731
 Alpha virt. eigenvalues --    0.11956   0.12971   0.13553   0.13892   0.14265
 Alpha virt. eigenvalues --    0.14814   0.16694   0.16860   0.20225   0.21730

 Mulliken charges:
               1
     1  C   -0.243779
     2  O   -0.243260
     3  C    0.028411
     4  C   -0.205363
     5  C   -0.361892
     6  C    0.290823
     7  C   -0.433626
     8  C    0.133523
     9  O   -0.242101
    10  H    0.115970
    11  H    0.136936
    12  H    0.115799
    13  H    0.089368
    14  H    0.123163
    15  H    0.132957
    16  H    0.128463
    17  H    0.150574
    18  H    0.195338
    19  H    0.088694
 Sum of Mulliken charges =   0.00000

 Dipole moment (field-independent basis, Debye):
    X=             -0.3837    Y=             -1.9746    Z=              0.0147  Tot=              2.0116
 Quadrupole moment (field-independent basis, Debye-Ang):
   XX=            -51.7698   YY=            -57.8712   ZZ=            -53.0083
   XY=              8.1717   XZ=              0.1460   YZ=             -2.8451

  Exact polarizability: 105.488   4.742  72.389  -3.065  -0.039  61.756
 Approx polarizability: 137.985   7.506 105.817 -10.110   4.023  97.094

                      1                      2                      3
                      A                      A                      A
 Frequencies --     51.4479                65.1127                84.5704
 Red. masses --      4.4538                 3.4562                 3.2545
 Frc consts  --      0.0069                 0.0086                 0.0137
 IR Inten    --      2.8252                 3.5013                 0.5583

                      4                      5                      6
                      A                      A                      A
 Frequencies --    104.7060               147.6270               176.9270
 Red. masses --      2.4947                 2.3631                 1.3225
 Frc consts  --      0.0161                 0.0303                 0.0244
 IR Inten    --      1.0283                 3.3008                 0.6541

                      7                      8                      9
                      A                      A                      A
 Frequencies --    239.1770               260.9522               279.7810
 Red. masses --      3.2594                 2.3961                 3.7415
 Frc consts  --      0.1099                 0.0961                 0.1726
 IR Inten    --      2.3950                 2.2240                 5.9188

                     10                     11                     12
                      A                      A                      A
 Frequencies --    347.4628               412.4307               459.9927
 Red. masses --      3.2802                 3.5691                 4.1538
 Frc consts  --      0.2333                 0.3577                 0.5178
 IR Inten    --      4.7423                20.5991                 0.5804

                     13                     14                     15
                      A                      A                      A
 Frequencies --    531.9486               572.5819               618.2433
 Red. masses --      4.2683                 3.9269                 1.2000
 Frc consts  --      0.7116                 0.7585                 0.2702
 IR Inten    --      1.7785                 8.7731                44.5838

                     16                     17                     18
                      A                      A                      A
 Frequencies --    642.3611               763.5815               901.9983
 Red. masses --      1.2254                 1.3005                 2.3504
 Frc consts  --      0.2979                 0.4468                 1.1267
 IR Inten    --     40.9578                 0.7655                 2.3319

                     19                     20                     21
                      A                      A                      A
 Frequencies --    928.2526               953.2169              1025.8744
 Red. masses --      2.1109                 4.1661                 3.0975
 Frc consts  --      1.0717                 2.2303                 1.9206
 IR Inten    --      9.4321                 4.3754                 6.3201

                     22                     23                     24
                      A                      A                      A
 Frequencies --   1069.3022              1077.5616              1101.1761
 Red. masses --      2.9699                 2.8626                 2.3484
 Frc consts  --      2.0007                 1.9584                 1.6778
 IR Inten    --     25.0316                 5.2561                11.5560

                     25                     26                     27
                      A                      A                      A
 Frequencies --   1149.9533              1181.7897              1188.6338
 Red. masses --      3.6524                 1.2535                 1.4151
 Frc consts  --      2.8457                 1.0314                 1.1780
 IR Inten    --    126.0022                 2.9627                30.6542

                     28                     29                     30
                      A                      A                      A
 Frequencies --   1242.6792              1258.2483              1315.1385
 Red. masses --      1.5493                 1.2771                 1.1406
 Frc consts  --      1.4096                 1.1913                 1.1623
 IR Inten    --     14.3469                 3.2695                 0.4795

                     31                     32                     33
                      A                      A                      A
 Frequencies --   1318.8465              1349.4476              1381.3355
 Red. masses --      1.3797                 1.2158                 1.4855
 Frc consts  --      1.4139                 1.3045                 1.6700
 IR Inten    --     12.3286                11.3893                 1.8529

                     34                     35                     36
                      A                      A                      A
 Frequencies --   1399.8560              1473.2805              1481.6498
 Red. masses --      1.2354                 1.0748                 1.1245
 Frc consts  --      1.4264                 1.3745                 1.4544
 IR Inten    --     16.2230                 0.3228                 3.0804

                     37                     38                     39
                      A                      A                      A
 Frequencies --   1487.3530              1489.0952              1507.3105
 Red. masses --      1.0924                 1.0641                 1.0667
 Frc consts  --      1.4239                 1.3902                 1.4278
 IR Inten    --      1.2629                 5.1278                 7.3433

                     40                     41                     42
                      A                      A                      A
 Frequencies --   1837.8715              2239.9325              2865.5964
 Red. masses --     10.7590                 5.9306                 1.0833
 Frc consts  --     21.4117                17.5314                 5.2412
 IR Inten    --    147.5483                 2.9280                91.0926

                     43                     44                     45
                      A                      A                      A
 Frequencies --   2979.0981              2986.3454              3023.1703
 Red. masses --      1.0622                 1.0554                 1.0652
 Frc consts  --      5.5543                 5.5456                 5.7358
 IR Inten    --     25.9974                51.3712                10.3593

                     46                     47                     48
                      A                      A                      A
 Frequencies --   3033.3925              3053.2675              3074.0975
 Red. masses --      1.1036                 1.0607                 1.0934
 Frc consts  --      5.9830                 5.8260                 6.0880
 IR Inten    --     48.3555                16.3150                 1.5311

                     49                     50                     51
                      A                      A                      A
 Frequencies --   3108.1468              3125.2576              3506.9058
 Red. masses --      1.1030                 1.0972                 1.1622
 Frc consts  --      6.2781                 6.3140                 8.4216
 IR Inten    --     15.1567                22.6477                69.8109

 - Thermochemistry -
 -------------------
 Temperature   298.150 Kelvin.  Pressure   1.00000 Atm.
 Atom     1 has atomic number  6 and mass  12.00000

 Molecular mass:   126.06808 amu.
 Principal axes and moments of inertia in atomic units:
                           1         2         3
     Eigenvalues --   696.088552213.784542784.98662
           X            0.99947   0.03256  -0.00074
           Y           -0.03257   0.99923  -0.02205
           Z            0.00002   0.02206   0.99976
 This molecule is an asymmetric top.
 Rotational symmetry number  1.
 Warning -- assumption of classical behavior for rotation
           may cause significant error
 Rotational temperatures (Kelvin)      0.12443     0.03912     0.03110
 Rotational constants (GHZ):           2.59269     0.81523     0.64803
 Zero-point vibrational energy     405976.6 (Joules/Mol)
                                   97.03073 (Kcal/Mol)
 Warning -- explicit consideration of  15 degrees of freedom as
           vibrations may cause significant error
 Vibrational temperatures:     74.02    93.68   121.68   150.65   212.40
          (Kelvin)            254.56   344.12   375.45   402.54   499.92
                              593.40   661.83   765.35   823.82   889.51
                              924.21  1098.62  1297.77  1335.55  1371.46
                             1476.00  1538.49  1550.37  1584.34  1654.52
                             1700.33  1710.18  1787.94  1810.34  1892.19
                             1897.52  1941.55  1987.43  2014.08  2119.72
                             2131.76  2139.97  2142.47  2168.68  2644.28
                             3222.76  4122.95  4286.25  4296.68  4349.66
                             4364.37  4392.97  4422.94  4471.92  4496.54
                             5045.65

 Zero-point correction=                           0.154628 (Hartree/Particle)
 Thermal correction to Energy=                    0.165339
 Thermal correction to Enthalpy=                  0.166283
 Thermal correction to Gibbs Free Energy=         0.117561
 Sum of electronic and zero-point Energies=           -422.988722
 Sum of electronic and thermal Energies=              -422.978011
 Sum of electronic and thermal Enthalpies=            -422.977067
 Sum of electronic and thermal Free Energies=         -423.025789

                     E (Thermal)             CV                S
                      KCal/Mol        Cal/Mol-Kelvin    Cal/Mol-Kelvin
 Total                  103.752             36.797            102.544
 Electronic               0.000              0.000              0.000
 Translational            0.889              2.981             40.409
 Rotational               0.889              2.981             29.841
 Vibrational            101.974             30.835             32.294
 Vibration     1          0.596              1.977              4.761
 Vibration     2          0.597              1.971              4.296
 Vibration     3          0.601              1.960              3.782
 Vibration     4          0.605              1.945              3.365
 Vibration     5          0.617              1.905              2.703
 Vibration     6          0.628              1.871              2.361
 Vibration     7          0.657              1.781              1.809
 Vibration     8          0.669              1.744              1.655
 Vibration     9          0.680              1.711              1.535
 Vibration    10          0.725              1.580              1.178
 Vibration    11          0.776              1.443              0.918
 Vibration    12          0.818              1.339              0.766
 Vibration    13          0.887              1.179              0.583
 Vibration    14          0.929              1.091              0.499
 Vibration    15          0.978              0.993              0.419

 Optimization completed.
    -- Stationary point found.
 Normal termination of Gaussian 09 at Tue Jan 28 08:56:29 2020.
