 Gaussian 09, Revision D.01,
 Gaussian 09:  ES64L-G09RevD.01 24-Apr-2013

 -----------------------------
 # b3lyp 6-31G(2df,p) opt Freq
 -----------------------------

 -----
 titel
 -----
 Symbolic Z-matrix:
 Charge =  0 Multiplicity = 1

 SCF Done:  E(RB3LYP) =  -423.166277606     A.U. after   14 cycles
 Optimization completed.
    -- Stationary point found.
 Normal termination of Gaussian 09 at Mon Jan 27 18:47:27 2020.

 ----------------------------------------------------------------------
 #N Geom=AllCheck Guess=TCheck SCRF=Check GenChk RB3LYP/6-31G(2df,p) Fr
 eq
 ----------------------------------------------------------------------

 Structure from the checkpoint file:  "/scratch/puck/g09_586929e5-4aac-4435-9664-6b3318677251/Gau-20004.chk"
 -----
 titel
 -----
 Charge =  0 Multiplicity = 1

                         Standard orientation:
 ---------------------------------------------------------------------
 Center     Atomic      Atomic             Coordinates (Angstroms)
 Number     Number       Type             X           Y           Z
 ---------------------------------------------------------------------
      1          6           0       -1.541878    1.697648   -0.571466
      2          6           0       -0.959259    0.462181    0.061250
      3          6           0        0.037472    0.598369    1.242477
      4          6           0        0.938746   -0.505316    0.569894
      5          6           0        2.316666    0.002104    0.245477
      6          8           0        2.726970    0.242770   -0.862250
      7          6           0       -0.042072   -0.603483   -0.620516
      8          6           0       -1.218005   -1.558182   -0.389321
      9          8           0       -1.959726   -0.551365    0.339844
     10          1           0       -0.753720    2.407819   -0.840539
     11          1           0       -2.106375    1.442583   -1.473020
     12          1           0       -2.225047    2.192033    0.128719
     13          1           0        0.522750    1.577544    1.304616
     14          1           0       -0.386318    0.342704    2.214768
     15          1           0        1.041637   -1.413529    1.175821
     16          1           0        2.956073    0.178333    1.141980
     17          1           0        0.391145   -0.507939   -1.613885
     18          1           0       -1.748010   -1.858715   -1.302167
     19          1           0       -1.020109   -2.451995    0.216179
 ---------------------------------------------------------------------

 SCF Done:  E(RB3LYP) =  -423.166277606     A.U. after    1 cycles

 The electronic state is 1-A.
 Alpha  occ. eigenvalues --  -19.14417 -19.13297 -10.27458 -10.24370 -10.23312
 Alpha  occ. eigenvalues --  -10.20562 -10.19632 -10.19242 -10.18079  -1.05088
 Alpha  occ. eigenvalues --   -1.04061  -0.84015  -0.75129  -0.71204  -0.67334
 Alpha  occ. eigenvalues --   -0.63133  -0.56601  -0.52128  -0.49725  -0.49342
 Alpha  occ. eigenvalues --   -0.47177  -0.45145  -0.43054  -0.42809  -0.41247
 Alpha  occ. eigenvalues --   -0.40213  -0.38981  -0.38054  -0.33791  -0.33482
 Alpha  occ. eigenvalues --   -0.31143  -0.28521  -0.25932  -0.24513
 Alpha virt. eigenvalues --   -0.02492   0.06777   0.08758   0.10153   0.11796
 Alpha virt. eigenvalues --    0.12543   0.13311   0.13849   0.15390   0.16007
 Alpha virt. eigenvalues --    0.16913   0.17426   0.18398   0.19965   0.21532

 Mulliken charges:
               1
     1  C   -0.472902
     2  C    0.462417
     3  C   -0.302330
     4  C   -0.090013
     5  C    0.135247
     6  O   -0.244670
     7  C   -0.138648
     8  C   -0.100788
     9  O   -0.329538
    10  H    0.123200
    11  H    0.126190
    12  H    0.129332
    13  H    0.109260
    14  H    0.118942
    15  H    0.094700
    16  H    0.078051
    17  H    0.099737
    18  H    0.104065
    19  H    0.097748
 Sum of Mulliken charges =   0.00000

 Dipole moment (field-independent basis, Debye):
    X=             -0.1559    Y=             -0.2507    Z=              1.1715  Tot=              1.2081
 Quadrupole moment (field-independent basis, Debye-Ang):
   XX=            -62.4315   YY=            -49.9170   ZZ=            -52.9884
   XY=             -2.3314   XZ=              7.1170   YZ=              1.0701

  Exact polarizability:  81.783   1.223  73.903   2.719   1.327  72.011
 Approx polarizability: 111.392   2.888 104.701  -4.789   0.426 114.542

                      1                      2                      3
                      A                      A                      A
 Frequencies --     50.5063               100.6305               189.3745
 Red. masses --      4.7402                 2.9146                 3.9954
 Frc consts  --      0.0071                 0.0174                 0.0844
 IR Inten    --      4.8620                 3.7045                 6.2715

                      4                      5                      6
                      A                      A                      A
 Frequencies --    214.5006               234.3157               285.8812
 Red. masses --      1.1994                 2.1447                 2.4269
 Frc consts  --      0.0325                 0.0694                 0.1169
 IR Inten    --      1.2286                 4.5770                 0.5416

                      7                      8                      9
                      A                      A                      A
 Frequencies --    340.4919               360.3925               434.3738
 Red. masses --      2.3046                 3.1510                 2.1306
 Frc consts  --      0.1574                 0.2411                 0.2369
 IR Inten    --      1.2539                 2.0759                 1.7843

                     10                     11                     12
                      A                      A                      A
 Frequencies --    609.0513               633.8240               703.3475
 Red. masses --      3.5522                 5.4039                 3.3642
 Frc consts  --      0.7763                 1.2791                 0.9806
 IR Inten    --      3.6035                16.3714                 0.8495

                     13                     14                     15
                      A                      A                      A
 Frequencies --    773.8494               825.7913               893.1279
 Red. masses --      2.3863                 2.0014                 1.5099
 Frc consts  --      0.8419                 0.8041                 0.7096
 IR Inten    --      3.2077                 3.7214                 2.3252

                     16                     17                     18
                      A                      A                      A
 Frequencies --    913.5937               916.2163               927.5921
 Red. masses --      1.9152                 2.4007                 2.8455
 Frc consts  --      0.9418                 1.1874                 1.4425
 IR Inten    --      8.1657                 0.5178                22.3780

                     19                     20                     21
                      A                      A                      A
 Frequencies --    984.1591               987.7134              1006.9288
 Red. masses --      1.8505                 1.7706                 5.7387
 Frc consts  --      1.0560                 1.0177                 3.4282
 IR Inten    --     17.6849                10.3498                68.9061

                     22                     23                     24
                      A                      A                      A
 Frequencies --   1038.0690              1098.7117              1128.6419
 Red. masses --      1.8555                 1.9278                 1.9740
 Frc consts  --      1.1780                 1.3712                 1.4816
 IR Inten    --      9.6982                 9.2509                 2.7026

                     25                     26                     27
                      A                      A                      A
 Frequencies --   1142.9876              1170.9005              1182.7685
 Red. masses --      1.5164                 1.3940                 1.8549
 Frc consts  --      1.1672                 1.1260                 1.5289
 IR Inten    --      4.5495                13.6971                 5.5287

                     28                     29                     30
                      A                      A                      A
 Frequencies --   1193.9115              1209.3009              1241.3121
 Red. masses --      2.0056                 1.5511                 1.6192
 Frc consts  --      1.6844                 1.3365                 1.4700
 IR Inten    --     16.3210                 3.0779                 4.7162

                     31                     32                     33
                      A                      A                      A
 Frequencies --   1259.9681              1327.8127              1352.8292
 Red. masses --      1.4487                 2.2654                 1.6296
 Frc consts  --      1.3550                 2.3532                 1.7572
 IR Inten    --      8.8744                20.7634                 4.9066

                     34                     35                     36
                      A                      A                      A
 Frequencies --   1358.2822              1410.3478              1421.6764
 Red. masses --      1.8498                 1.3853                 1.2013
 Frc consts  --      2.0108                 1.6234                 1.4306
 IR Inten    --     13.4548                11.1078                12.1499

                     37                     38                     39
                      A                      A                      A
 Frequencies --   1464.1296              1481.4067              1488.6310
 Red. masses --      1.1111                 1.0528                 1.0518
 Frc consts  --      1.4034                 1.3613                 1.3732
 IR Inten    --      2.6530                 2.1514                 3.1548

                     40                     41                     42
                      A                      A                      A
 Frequencies --   1527.0785              1821.2021              2860.6075
 Red. masses --      1.1018                10.3635                 1.0823
 Frc consts  --      1.5138                20.2522                 5.2181
 IR Inten    --      0.8003               159.1893               131.0074

                     43                     44                     45
                      A                      A                      A
 Frequencies --   3007.4836              3032.4597              3039.9109
 Red. masses --      1.0550                 1.0359                 1.0843
 Frc consts  --      5.6224                 5.6125                 5.9034
 IR Inten    --     85.8304                14.7230                13.3559

                     46                     47                     48
                      A                      A                      A
 Frequencies --   3049.1123              3053.8920              3101.6928
 Red. masses --      1.1104                 1.0617                 1.0999
 Frc consts  --      6.0822                 5.8338                 6.2344
 IR Inten    --     45.8714                22.7207                12.8686

                     49                     50                     51
                      A                      A                      A
 Frequencies --   3115.3117              3127.5260              3141.6895
 Red. masses --      1.1019                 1.1047                 1.0891
 Frc consts  --      6.3009                 6.3662                 6.3336
 IR Inten    --     17.4761                14.0327                 8.3646

 - Thermochemistry -
 -------------------
 Temperature   298.150 Kelvin.  Pressure   1.00000 Atm.
 Atom     1 has atomic number  6 and mass  12.00000

 Molecular mass:   126.06808 amu.
 Principal axes and moments of inertia in atomic units:
                           1         2         3
     Eigenvalues --   623.490631433.244031602.24275
           X            0.99924  -0.01963   0.03353
           Y            0.01960   0.99981   0.00134
           Z           -0.03355  -0.00069   0.99944
 This molecule is an asymmetric top.
 Rotational symmetry number  1.
 Warning -- assumption of classical behavior for rotation
           may cause significant error
 Rotational temperatures (Kelvin)      0.13892     0.06043     0.05406
 Rotational constants (GHZ):           2.89458     1.25920     1.12638
 Zero-point vibrational energy     414119.1 (Joules/Mol)
                                   98.97685 (Kcal/Mol)
 Warning -- explicit consideration of  10 degrees of freedom as
           vibrations may cause significant error
 Vibrational temperatures:     72.67   144.78   272.47   308.62   337.13
          (Kelvin)            411.32   489.89   518.52   624.97   876.29
                              911.93  1011.96  1113.40  1188.13  1285.01
                             1314.46  1318.23  1334.60  1415.98  1421.10
                             1448.74  1493.55  1580.80  1623.86  1644.50
                             1684.66  1701.74  1717.77  1739.91  1785.97
                             1812.81  1910.42  1946.42  1954.26  2029.17
                             2045.47  2106.55  2131.41  2141.81  2197.12
                             2620.30  4115.77  4327.09  4363.03  4373.75
                             4386.99  4393.86  4462.64  4482.23  4499.81
                             4520.18

 Zero-point correction=                           0.157730 (Hartree/Particle)
 Thermal correction to Energy=                    0.166339
 Thermal correction to Enthalpy=                  0.167283
 Thermal correction to Gibbs Free Energy=         0.123965
 Sum of electronic and zero-point Energies=           -423.008548
 Sum of electronic and thermal Energies=              -422.999939
 Sum of electronic and thermal Enthalpies=            -422.998995
 Sum of electronic and thermal Free Energies=         -423.042312

                     E (Thermal)             CV                S
                      KCal/Mol        Cal/Mol-Kelvin    Cal/Mol-Kelvin
 Total                  104.379             32.016             91.170
 Electronic               0.000              0.000              0.000
 Translational            0.889              2.981             40.409
 Rotational               0.889              2.981             28.750
 Vibrational            102.602             26.055             22.011
 Vibration     1          0.595              1.977              4.797
 Vibration     2          0.604              1.949              3.442
 Vibration     3          0.633              1.854              2.234
 Vibration     4          0.644              1.819              2.005
 Vibration     5          0.654              1.788              1.846
 Vibration     6          0.684              1.700              1.498
 Vibration     7          0.720              1.595              1.210
 Vibration     8          0.735              1.554              1.120
 Vibration     9          0.795              1.395              0.844
 Vibration    10          0.968              1.013              0.434

 Optimization completed.
    -- Stationary point found.
 Normal termination of Gaussian 09 at Mon Jan 27 20:26:08 2020.
