 Gaussian 09, Revision D.01,
 Gaussian 09:  ES64L-G09RevD.01 24-Apr-2013

 -----------------------------
 # b3lyp 6-31G(2df,p) opt Freq
 -----------------------------

 -----
 titel
 -----
 Symbolic Z-matrix:
 Charge =  0 Multiplicity = 1

 SCF Done:  E(RB3LYP) =  -423.158690612     A.U. after   14 cycles
 Optimization completed.
    -- Stationary point found.
 Normal termination of Gaussian 09 at Mon Jan 27 22:04:42 2020.

 ----------------------------------------------------------------------
 #N Geom=AllCheck Guess=TCheck SCRF=Check GenChk RB3LYP/6-31G(2df,p) Fr
 eq
 ----------------------------------------------------------------------

 Structure from the checkpoint file:  "/scratch/puck/g09_70ad293e-38a2-473f-ae0c-01662f9303b4/Gau-53045.chk"
 -----
 titel
 -----
 Charge =  0 Multiplicity = 1

                         Standard orientation:
 ---------------------------------------------------------------------
 Center     Atomic      Atomic             Coordinates (Angstroms)
 Number     Number       Type             X           Y           Z
 ---------------------------------------------------------------------
      1          6           0        0.754123    1.957323    0.558191
      2          6           0        0.159311    0.692815   -0.017598
      3          8           0       -1.079629    0.990309   -0.641280
      4          6           0       -1.922908   -0.155925   -0.599413
      5          6           0       -1.584392   -0.864914    0.721171
      6          6           0       -0.088403   -0.588791    0.892649
      7          6           0        0.837558   -1.367616   -0.051929
      8          8           0        2.105145   -0.700340   -0.047408
      9          6           0        1.075242   -0.190407   -0.901923
     10          1           0        1.744569    1.749169    0.969062
     11          1           0        0.846444    2.721730   -0.219957
     12          1           0        0.115179    2.357046    1.351438
     13          1           0       -2.957855    0.191170   -0.659730
     14          1           0       -1.733017   -0.814334   -1.459915
     15          1           0       -2.139637   -0.410617    1.547376
     16          1           0       -1.829220   -1.931149    0.699546
     17          1           0        0.242853   -0.550931    1.931961
     18          1           0        0.833619   -2.424530   -0.295770
     19          1           0        1.289755   -0.102214   -1.961398
 ---------------------------------------------------------------------

 SCF Done:  E(RB3LYP) =  -423.158690612     A.U. after    1 cycles

 The electronic state is 1-A.
 Alpha  occ. eigenvalues --  -19.15338 -19.14063 -10.23966 -10.23732 -10.23145
 Alpha  occ. eigenvalues --  -10.22976 -10.19361 -10.19095 -10.17050  -1.08068
 Alpha  occ. eigenvalues --   -1.03727  -0.80576  -0.77237  -0.70137  -0.65241
 Alpha  occ. eigenvalues --   -0.62924  -0.59132  -0.53915  -0.50485  -0.48989
 Alpha  occ. eigenvalues --   -0.48353  -0.45360  -0.41874  -0.41670  -0.40213
 Alpha  occ. eigenvalues --   -0.38397  -0.37561  -0.36225  -0.34451  -0.32660
 Alpha  occ. eigenvalues --   -0.31414  -0.29064  -0.27103  -0.23922
 Alpha virt. eigenvalues --    0.07961   0.09000   0.11177   0.11701   0.12249
 Alpha virt. eigenvalues --    0.13767   0.14436   0.14679   0.16168   0.16975
 Alpha virt. eigenvalues --    0.17722   0.18255   0.18703   0.20863   0.21558

 Mulliken charges:
               1
     1  C   -0.465551
     2  C    0.401389
     3  O   -0.299629
     4  C   -0.092581
     5  C   -0.242180
     6  C   -0.124208
     7  C    0.024860
     8  O   -0.248755
     9  C   -0.039439
    10  H    0.135086
    11  H    0.124030
    12  H    0.117911
    13  H    0.110838
    14  H    0.095990
    15  H    0.112715
    16  H    0.103545
    17  H    0.081576
    18  H    0.101639
    19  H    0.102764
 Sum of Mulliken charges =   0.00000

 Dipole moment (field-independent basis, Debye):
    X=             -1.5380    Y=             -1.1294    Z=              0.1273  Tot=              1.9124
 Quadrupole moment (field-independent basis, Debye-Ang):
   XX=            -56.5111   YY=            -52.1748   ZZ=            -51.4378
   XY=              3.2899   XZ=             -1.7382   YZ=              1.3165

  Exact polarizability:  77.433   2.630  75.470  -1.712  -0.227  67.651
 Approx polarizability: 111.276   1.413 109.765  -0.657  -4.766 102.966

                      1                      2                      3
                      A                      A                      A
 Frequencies --    146.3705               198.5453               224.9894
 Red. masses --      3.1367                 2.4935                 1.0300
 Frc consts  --      0.0396                 0.0579                 0.0307
 IR Inten    --      2.3215                 0.4935                 0.0904

                      4                      5                      6
                      A                      A                      A
 Frequencies --    257.5421               286.7674               360.0603
 Red. masses --      2.6381                 2.7957                 2.8238
 Frc consts  --      0.1031                 0.1355                 0.2157
 IR Inten    --      1.8225                 5.2429                 2.4448

                      7                      8                      9
                      A                      A                      A
 Frequencies --    407.2132               502.0844               614.2071
 Red. masses --      3.5714                 6.2570                 3.3604
 Frc consts  --      0.3489                 0.9293                 0.7469
 IR Inten    --      4.7218                 3.7821                 2.2698

                     10                     11                     12
                      A                      A                      A
 Frequencies --    638.7502               664.8125               817.8761
 Red. masses --      3.3932                 3.3920                 2.3730
 Frc consts  --      0.8157                 0.8833                 0.9352
 IR Inten    --      0.3291                 3.3686                 9.6574

                     13                     14                     15
                      A                      A                      A
 Frequencies --    850.0618               864.2872               872.6294
 Red. masses --      3.3382                 2.2793                 2.1441
 Frc consts  --      1.4212                 1.0032                 0.9619
 IR Inten    --     15.5363                 7.6678                15.3348

                     16                     17                     18
                      A                      A                      A
 Frequencies --    895.4689               904.6108               919.8106
 Red. masses --      2.0340                 3.4008                 2.0132
 Frc consts  --      0.9609                 1.6397                 1.0036
 IR Inten    --      8.3365                 3.0056                 4.9799

                     19                     20                     21
                      A                      A                      A
 Frequencies --    966.4771               985.7983              1030.0325
 Red. masses --      1.9069                 2.0859                 1.6648
 Frc consts  --      1.0494                 1.1943                 1.0406
 IR Inten    --      3.1469                16.2503                14.0648

                     22                     23                     24
                      A                      A                      A
 Frequencies --   1053.4350              1072.0975              1117.7468
 Red. masses --      1.4453                 3.2097                 1.8459
 Frc consts  --      0.9450                 2.1736                 1.3588
 IR Inten    --      3.4374                33.0923                 0.3563

                     25                     26                     27
                      A                      A                      A
 Frequencies --   1136.5975              1152.9263              1166.7239
 Red. masses --      2.7591                 1.7232                 1.8797
 Frc consts  --      2.1001                 1.3496                 1.5076
 IR Inten    --     75.7626                15.3378                 6.8096

                     28                     29                     30
                      A                      A                      A
 Frequencies --   1217.3773              1219.7278              1245.7201
 Red. masses --      1.4352                 1.4057                 1.5540
 Frc consts  --      1.2532                 1.2321                 1.4208
 IR Inten    --     13.8739                 5.1386                12.7252

                     31                     32                     33
                      A                      A                      A
 Frequencies --   1257.2873              1302.3763              1307.1509
 Red. masses --      1.3982                 2.3498                 1.8446
 Frc consts  --      1.3023                 2.3483                 1.8570
 IR Inten    --      1.4851                13.8679                 8.5647

                     34                     35                     36
                      A                      A                      A
 Frequencies --   1345.5365              1375.0737              1389.9453
 Red. masses --      1.4808                 3.7803                 1.3567
 Frc consts  --      1.5795                 4.2114                 1.5442
 IR Inten    --      1.5093                19.3483                 3.7453

                     37                     38                     39
                      A                      A                      A
 Frequencies --   1406.1949              1485.7931              1489.0297
 Red. masses --      1.3977                 1.0889                 1.0521
 Frc consts  --      1.6284                 1.4162                 1.3744
 IR Inten    --      9.4362                 2.9681                 1.8983

                     40                     41                     42
                      A                      A                      A
 Frequencies --   1490.5173              1519.7898              2994.2471
 Red. masses --      1.0546                 1.0928                 1.0706
 Frc consts  --      1.3804                 1.4871                 5.6551
 IR Inten    --      3.1854                 0.4157                54.5287

                     43                     44                     45
                      A                      A                      A
 Frequencies --   3041.8982              3052.3192              3087.8830
 Red. masses --      1.0356                 1.0602                 1.0937
 Frc consts  --      5.6460                 5.8196                 6.1445
 IR Inten    --     18.9285                20.4659                33.0501

                     46                     47                     48
                      A                      A                      A
 Frequencies --   3094.5566              3102.3428              3108.7409
 Red. masses --      1.0912                 1.1010                 1.1013
 Frc consts  --      6.1567                 6.2435                 6.2709
 IR Inten    --     18.7264                33.6239                21.0881

                     49                     50                     51
                      A                      A                      A
 Frequencies --   3133.9421              3170.0648              3186.2991
 Red. masses --      1.1008                 1.0870                 1.1011
 Frc consts  --      6.3702                 6.4362                 6.5867
 IR Inten    --     10.4973                17.9503                17.3550

 - Thermochemistry -
 -------------------
 Temperature   298.150 Kelvin.  Pressure   1.00000 Atm.
 Atom     1 has atomic number  6 and mass  12.00000

 Molecular mass:   126.06808 amu.
 Principal axes and moments of inertia in atomic units:
                           1         2         3
     Eigenvalues --   692.76390 987.623211279.23316
           X            0.99460   0.10374  -0.00290
           Y           -0.10355   0.99388   0.03843
           Z            0.00687  -0.03793   0.99926
 This molecule is an asymmetric top.
 Rotational symmetry number  1.
 Warning -- assumption of classical behavior for rotation
           may cause significant error
 Rotational temperatures (Kelvin)      0.12503     0.08770     0.06771
 Rotational constants (GHZ):           2.60513     1.82736     1.41080
 Zero-point vibrational energy     419480.9 (Joules/Mol)
                                  100.25835 (Kcal/Mol)
 Warning -- explicit consideration of   9 degrees of freedom as
           vibrations may cause significant error
 Vibrational temperatures:    210.59   285.66   323.71   370.55   412.59
          (Kelvin)            518.05   585.89   722.39   883.71   919.02
                              956.52  1176.74  1223.05  1243.51  1255.52
                             1288.38  1301.53  1323.40  1390.54  1418.34
                             1481.99  1515.66  1542.51  1608.19  1635.31
                             1658.80  1678.65  1751.53  1754.91  1792.31
                             1808.95  1873.83  1880.70  1935.92  1978.42
                             1999.82  2023.20  2137.72  2142.38  2144.52
                             2186.64  4308.05  4376.61  4391.60  4442.77
                             4452.37  4463.57  4472.78  4509.04  4561.01
                             4584.37

 Zero-point correction=                           0.159772 (Hartree/Particle)
 Thermal correction to Energy=                    0.167354
 Thermal correction to Enthalpy=                  0.168299
 Thermal correction to Gibbs Free Energy=         0.128123
 Sum of electronic and zero-point Energies=           -422.998919
 Sum of electronic and thermal Energies=              -422.991336
 Sum of electronic and thermal Enthalpies=            -422.990392
 Sum of electronic and thermal Free Energies=         -423.030567

                     E (Thermal)             CV                S
                      KCal/Mol        Cal/Mol-Kelvin    Cal/Mol-Kelvin
 Total                  105.016             30.370             84.556
 Electronic               0.000              0.000              0.000
 Translational            0.889              2.981             40.409
 Rotational               0.889              2.981             28.261
 Vibrational            103.239             24.408             15.886
 Vibration     1          0.617              1.907              2.719
 Vibration     2          0.637              1.842              2.147
 Vibration     3          0.650              1.803              1.919
 Vibration     4          0.667              1.750              1.678
 Vibration     5          0.684              1.698              1.493
 Vibration     6          0.735              1.555              1.122
 Vibration     7          0.772              1.455              0.937
 Vibration     8          0.857              1.245              0.653
 Vibration     9          0.974              1.002              0.426

 Normal termination of Gaussian 09 at Mon Jan 27 22:57:03 2020.
