 Gaussian 09, Revision D.01,
 Gaussian 09:  ES64L-G09RevD.01 24-Apr-2013

 -----------------------------
 # b3lyp 6-31G(2df,p) opt Freq
 -----------------------------

 -----
 titel
 -----
 Symbolic Z-matrix:
 Charge =  0 Multiplicity = 1

 SCF Done:  E(RB3LYP) =  -423.174483567     A.U. after   14 cycles
 Optimization completed.
    -- Stationary point found.
 Normal termination of Gaussian 09 at Tue Jan 28 12:09:30 2020.

 ----------------------------------------------------------------------
 #N Geom=AllCheck Guess=TCheck SCRF=Check GenChk RB3LYP/6-31G(2df,p) Fr
 eq
 ----------------------------------------------------------------------

 Structure from the checkpoint file:  "/scratch/puck/g09_394ae8ad-aedf-463e-be56-72da52e59987/Gau-128722.chk"
 -----
 titel
 -----
 Charge =  0 Multiplicity = 1

                         Standard orientation:
 ---------------------------------------------------------------------
 Center     Atomic      Atomic             Coordinates (Angstroms)
 Number     Number       Type             X           Y           Z
 ---------------------------------------------------------------------
      1          6           0        0.375526    2.472538    0.251842
      2          6           0        0.520935    1.014469   -0.051745
      3          6           0       -0.437746    0.116139   -0.340177
      4          6           0       -1.918096    0.304713   -0.447750
      5          8           0       -2.630235   -0.602850    0.389328
      6          6           0        0.163316   -1.250884   -0.466365
      7          8           0        0.796377   -1.706751    0.754873
      8          6           0        1.610693   -1.108718   -0.256581
      9          6           0        1.899694    0.367658   -0.029745
     10          1           0        0.932484    3.080706   -0.472671
     11          1           0       -0.664808    2.804703    0.236490
     12          1           0        0.793718    2.707618    1.238782
     13          1           0       -2.199925    1.347689   -0.242607
     14          1           0       -2.261245    0.078491   -1.465649
     15          1           0       -2.229736   -0.559597    1.264371
     16          1           0       -0.301650   -2.031275   -1.060736
     17          1           0        2.352366   -1.762160   -0.707688
     18          1           0        2.419291    0.542235    0.920829
     19          1           0        2.544432    0.772910   -0.821603
 ---------------------------------------------------------------------

 SCF Done:  E(RB3LYP) =  -423.174483567     A.U. after    1 cycles

 The electronic state is 1-A.
 Alpha  occ. eigenvalues --  -19.14250 -19.13317 -10.23238 -10.23086 -10.23034
 Alpha  occ. eigenvalues --  -10.19810 -10.19228 -10.18984 -10.18315  -1.06311
 Alpha  occ. eigenvalues --   -1.01311  -0.83333  -0.73973  -0.72861  -0.66406
 Alpha  occ. eigenvalues --   -0.63480  -0.58206  -0.52945  -0.51439  -0.48532
 Alpha  occ. eigenvalues --   -0.45244  -0.44363  -0.43291  -0.42259  -0.40717
 Alpha  occ. eigenvalues --   -0.39461  -0.38042  -0.36670  -0.35940  -0.32535
 Alpha  occ. eigenvalues --   -0.30472  -0.27417  -0.25543  -0.23476
 Alpha virt. eigenvalues --   -0.00009   0.08703   0.10066   0.11512   0.11830
 Alpha virt. eigenvalues --    0.12404   0.13819   0.14866   0.16327   0.16839
 Alpha virt. eigenvalues --    0.17054   0.18258   0.19153   0.21329   0.22294

 Mulliken charges:
               1
     1  C   -0.494154
     2  C    0.185662
     3  C    0.184385
     4  C   -0.174317
     5  O   -0.413700
     6  C   -0.038090
     7  O   -0.265939
     8  C    0.033995
     9  C   -0.327615
    10  H    0.130068
    11  H    0.128941
    12  H    0.131442
    13  H    0.091788
    14  H    0.113648
    15  H    0.288459
    16  H    0.099030
    17  H    0.094752
    18  H    0.121611
    19  H    0.110037
 Sum of Mulliken charges =   0.00000

 Dipole moment (field-independent basis, Debye):
    X=              1.5310    Y=              2.1420    Z=             -0.9062  Tot=              2.7845
 Quadrupole moment (field-independent basis, Debye-Ang):
   XX=            -55.4407   YY=            -53.7503   ZZ=            -51.4669
   XY=             -1.1554   XZ=             -1.5013   YZ=              3.1925

  Exact polarizability:  89.429   6.112  85.016   3.096   3.400  59.312
 Approx polarizability: 130.113  18.035 122.213   6.638   1.922  96.525

                      1                      2                      3
                      A                      A                      A
 Frequencies --     74.9674               115.3157               156.7433
 Red. masses --      3.0462                 4.1952                 1.6250
 Frc consts  --      0.0101                 0.0329                 0.0235
 IR Inten    --      1.9198                 1.5337                 0.8314

                      4                      5                      6
                      A                      A                      A
 Frequencies --    172.6928               263.2640               317.4207
 Red. masses --      1.5228                 2.1794                 3.1674
 Frc consts  --      0.0268                 0.0890                 0.1880
 IR Inten    --      1.8897                12.2981                 4.2256

                      7                      8                      9
                      A                      A                      A
 Frequencies --    338.1427               355.6907               428.7762
 Red. masses --      1.3038                 1.9199                 3.0715
 Frc consts  --      0.0878                 0.1431                 0.3327
 IR Inten    --     74.6243                21.7177                 3.5973

                     10                     11                     12
                      A                      A                      A
 Frequencies --    433.8654               577.2797               614.1262
 Red. masses --      3.9307                 4.2955                 3.9482
 Frc consts  --      0.4359                 0.8434                 0.8773
 IR Inten    --     21.3456                 6.5558                 3.2194

                     13                     14                     15
                      A                      A                      A
 Frequencies --    725.6272               776.3149               843.2368
 Red. masses --      5.1715                 4.9757                 4.3982
 Frc consts  --      1.6043                 1.7668                 1.8426
 IR Inten    --      3.7445                 2.6328                 6.3381

                     16                     17                     18
                      A                      A                      A
 Frequencies --    860.7104               880.6012               917.1453
 Red. masses --      2.2909                 2.0212                 2.2634
 Frc consts  --      0.9999                 0.9235                 1.1217
 IR Inten    --     33.6108                 1.0209                 3.8798

                     19                     20                     21
                      A                      A                      A
 Frequencies --    968.7699               978.4285              1006.4771
 Red. masses --      1.5770                 1.9857                 1.3795
 Frc consts  --      0.8720                 1.1200                 0.8233
 IR Inten    --     23.1307                 3.5715                18.4829

                     22                     23                     24
                      A                      A                      A
 Frequencies --   1042.7052              1064.1273              1103.7534
 Red. masses --      4.4559                 1.6790                 1.5187
 Frc consts  --      2.8544                 1.1202                 1.0901
 IR Inten    --     80.1799                 2.8559                 1.7660

                     25                     26                     27
                      A                      A                      A
 Frequencies --   1122.5292              1185.1253              1188.5555
 Red. masses --      2.1273                 1.8814                 1.4978
 Frc consts  --      1.5793                 1.5569                 1.2467
 IR Inten    --      5.1502                 0.3403                 9.0251

                     28                     29                     30
                      A                      A                      A
 Frequencies --   1213.7247              1244.6100              1260.3236
 Red. masses --      1.3526                 1.5185                 1.6519
 Frc consts  --      1.1740                 1.3859                 1.5459
 IR Inten    --     11.6196                 1.0575                 4.0709

                     31                     32                     33
                      A                      A                      A
 Frequencies --   1310.0353              1354.2091              1363.8971
 Red. masses --      1.7167                 1.6947                 1.4697
 Frc consts  --      1.7358                 1.8311                 1.6108
 IR Inten    --      1.8151                14.2820                 1.2665

                     34                     35                     36
                      A                      A                      A
 Frequencies --   1410.1065              1419.8268              1423.2098
 Red. masses --      1.7105                 2.1070                 1.2798
 Frc consts  --      2.0039                 2.5026                 1.5273
 IR Inten    --     16.9315                15.1905                59.7271

                     37                     38                     39
                      A                      A                      A
 Frequencies --   1458.2075              1479.4492              1484.2762
 Red. masses --      1.0993                 1.0451                 1.0696
 Frc consts  --      1.3772                 1.3477                 1.3884
 IR Inten    --      3.2613                 5.7057                 3.6804

                     40                     41                     42
                      A                      A                      A
 Frequencies --   1504.2095              1713.7409              2996.8144
 Red. masses --      1.0850                 7.7241                 1.0633
 Frc consts  --      1.4465                13.3655                 5.6263
 IR Inten    --      2.4861                10.9115                50.2447

                     43                     44                     45
                      A                      A                      A
 Frequencies --   3016.5298              3021.1866              3039.1228
 Red. masses --      1.0523                 1.0493                 1.0974
 Frc consts  --      5.6419                 5.6430                 5.9721
 IR Inten    --     11.6616                51.3217                32.1344

                     46                     47                     48
                      A                      A                      A
 Frequencies --   3055.2627              3063.1429              3121.0416
 Red. masses --      1.0989                 1.0981                 1.0970
 Frc consts  --      6.0439                 6.0707                 6.2956
 IR Inten    --      9.3262                21.2735                19.3470

                     49                     50                     51
                      A                      A                      A
 Frequencies --   3149.2935              3169.6755              3808.9500
 Red. masses --      1.0891                 1.0939                 1.0663
 Frc consts  --      6.3643                 6.4754                 9.1146
 IR Inten    --     23.3587                27.0197                17.0659

 - Thermochemistry -
 -------------------
 Temperature   298.150 Kelvin.  Pressure   1.00000 Atm.
 Atom     1 has atomic number  6 and mass  12.00000

 Molecular mass:   126.06808 amu.
 Principal axes and moments of inertia in atomic units:
                           1         2         3
     Eigenvalues --   848.957681108.084211755.28375
           X            0.99989   0.01477   0.00086
           Y           -0.01479   0.99957   0.02524
           Z           -0.00049  -0.02525   0.99968
 This molecule is an asymmetric top.
 Rotational symmetry number  1.
 Warning -- assumption of classical behavior for rotation
           may cause significant error
 Rotational temperatures (Kelvin)      0.10202     0.07817     0.04934
 Rotational constants (GHZ):           2.12583     1.62870     1.02818
 Zero-point vibrational energy     416260.0 (Joules/Mol)
                                   99.48853 (Kcal/Mol)
 Warning -- explicit consideration of  12 degrees of freedom as
           vibrations may cause significant error
 Vibrational temperatures:    107.86   165.91   225.52   248.47   378.78
          (Kelvin)            456.70   486.51   511.76   616.91   624.23
                              830.58   883.59  1044.01  1116.94  1213.23
                             1238.37  1266.99  1319.57  1393.84  1407.74
                             1448.09  1500.22  1531.04  1588.05  1615.07
                             1705.13  1710.06  1746.28  1790.71  1813.32
                             1884.85  1948.40  1962.34  2028.83  2042.81
                             2047.68  2098.03  2128.59  2135.54  2164.22
                             2465.69  4311.74  4340.11  4346.81  4372.61
                             4395.84  4407.17  4490.48  4531.13  4560.45
                             5480.22

 Zero-point correction=                           0.158545 (Hartree/Particle)
 Thermal correction to Energy=                    0.167388
 Thermal correction to Enthalpy=                  0.168332
 Thermal correction to Gibbs Free Energy=         0.124856
 Sum of electronic and zero-point Energies=           -423.015939
 Sum of electronic and thermal Energies=              -423.007096
 Sum of electronic and thermal Enthalpies=            -423.006152
 Sum of electronic and thermal Free Energies=         -423.049627

                     E (Thermal)             CV                S
                      KCal/Mol        Cal/Mol-Kelvin    Cal/Mol-Kelvin
 Total                  105.037             33.057             91.501
 Electronic               0.000              0.000              0.000
 Translational            0.889              2.981             40.409
 Rotational               0.889              2.981             28.892
 Vibrational            103.260             27.095             22.201
 Vibration     1          0.599              1.966              4.019
 Vibration     2          0.608              1.937              3.177
 Vibration     3          0.620              1.895              2.589
 Vibration     4          0.626              1.876              2.406
 Vibration     5          0.670              1.740              1.640
 Vibration     6          0.704              1.640              1.323
 Vibration     7          0.718              1.599              1.221
 Vibration     8          0.731              1.564              1.141
 Vibration     9          0.790              1.408              0.863
 Vibration    10          0.795              1.396              0.846
 Vibration    11          0.934              1.080              0.490
 Vibration    12          0.974              1.002              0.426

 Optimization completed.
    -- Stationary point found.
 Normal termination of Gaussian 09 at Tue Jan 28 13:00:46 2020.
