 Gaussian 09, Revision D.01,
 Gaussian 09:  ES64L-G09RevD.01 24-Apr-2013

 -----------------------------
 # b3lyp 6-31G(2df,p) opt Freq
 -----------------------------

 -----
 titel
 -----
 Symbolic Z-matrix:
 Charge =  0 Multiplicity = 1

 SCF Done:  E(RB3LYP) =  -423.183074885     A.U. after   14 cycles
 Optimization completed.
    -- Stationary point found.
 Normal termination of Gaussian 09 at Mon Jan 27 18:33:05 2020.

 ----------------------------------------------------------------------
 #N Geom=AllCheck Guess=TCheck SCRF=Check GenChk RB3LYP/6-31G(2df,p) Fr
 eq
 ----------------------------------------------------------------------

 Structure from the checkpoint file:  "/scratch/puck/g09_ee4793f1-19b2-4f56-9443-c2759d0faa2a/Gau-81928.chk"
 -----
 titel
 -----
 Charge =  0 Multiplicity = 1

                         Standard orientation:
 ---------------------------------------------------------------------
 Center     Atomic      Atomic             Coordinates (Angstroms)
 Number     Number       Type             X           Y           Z
 ---------------------------------------------------------------------
      1          6           0       -1.353771    1.383148   -0.859671
      2          6           0       -0.282814    0.722324   -0.017461
      3          6           0        1.120371    1.346913   -0.103551
      4          6           0        2.037950    0.146908   -0.090931
      5          6           0        1.386902   -1.015058   -0.115902
      6          6           0       -0.103581   -0.835944   -0.124156
      7          8           0       -0.684006   -1.579503   -1.162824
      8          6           0       -0.777655   -0.863208    1.268921
      9          8           0       -0.699402    0.568617    1.372238
     10          1           0       -1.484393    2.428007   -0.559828
     11          1           0       -1.081134    1.358161   -1.919374
     12          1           0       -2.320074    0.882073   -0.739546
     13          1           0        1.262745    1.958758   -1.004286
     14          1           0        1.278086    2.005239    0.758742
     15          1           0        3.117895    0.247155   -0.063868
     16          1           0        1.838131   -2.000623   -0.121834
     17          1           0       -1.641782   -1.507280   -1.091580
     18          1           0       -1.819484   -1.221980    1.241993
     19          1           0       -0.247143   -1.372917    2.080786
 ---------------------------------------------------------------------

 SCF Done:  E(RB3LYP) =  -423.183074885     A.U. after    1 cycles

 The electronic state is 1-A.
 Alpha  occ. eigenvalues --  -19.14651 -19.13006 -10.23846 -10.23183 -10.22619
 Alpha  occ. eigenvalues --  -10.18755 -10.18370 -10.17953 -10.17945  -1.04654
 Alpha  occ. eigenvalues --   -1.01838  -0.82785  -0.75422  -0.71557  -0.66620
 Alpha  occ. eigenvalues --   -0.64390  -0.56813  -0.53721  -0.50339  -0.48716
 Alpha  occ. eigenvalues --   -0.46744  -0.44479  -0.41541  -0.40927  -0.39980
 Alpha  occ. eigenvalues --   -0.38908  -0.37591  -0.36894  -0.35833  -0.34262
 Alpha  occ. eigenvalues --   -0.29353  -0.26626  -0.25175  -0.24466
 Alpha virt. eigenvalues --    0.01364   0.06440   0.08841   0.11507   0.12877
 Alpha virt. eigenvalues --    0.14180   0.14792   0.15243   0.16616   0.16789
 Alpha virt. eigenvalues --    0.17226   0.17838   0.20067   0.21349   0.21982

 Mulliken charges:
               1
     1  C   -0.461923
     2  C    0.367837
     3  C   -0.314673
     4  C   -0.063026
     5  C   -0.106926
     6  C    0.260352
     7  O   -0.474731
     8  C   -0.135105
     9  O   -0.328096
    10  H    0.128775
    11  H    0.127959
    12  H    0.105377
    13  H    0.103539
    14  H    0.123328
    15  H    0.098508
    16  H    0.100592
    17  H    0.281242
    18  H    0.080248
    19  H    0.106721
 Sum of Mulliken charges =   0.00000

 Dipole moment (field-independent basis, Debye):
    X=             -0.3008    Y=              0.0100    Z=             -0.4323  Tot=              0.5268
 Quadrupole moment (field-independent basis, Debye-Ang):
   XX=            -48.0616   YY=            -52.6371   ZZ=            -57.2493
   XY=              2.4660   XZ=              2.0289   YZ=             -4.3055

  Exact polarizability:  81.830   4.746  81.668   0.166  -4.490  62.846
 Approx polarizability: 113.731  12.584 126.047  -1.035  -1.572  95.843

                      1                      2                      3
                      A                      A                      A
 Frequencies --    118.4939               193.6462               227.2256
 Red. masses --      2.8262                 1.2323                 2.0433
 Frc consts  --      0.0234                 0.0272                 0.0622
 IR Inten    --      3.2945                 0.5054                 1.0937

                      4                      5                      6
                      A                      A                      A
 Frequencies --    239.2744               272.3775               320.4521
 Red. masses --      2.9003                 1.2897                 2.3206
 Frc consts  --      0.0978                 0.0564                 0.1404
 IR Inten    --      0.8576                54.4278                36.8967

                      7                      8                      9
                      A                      A                      A
 Frequencies --    343.8651               389.3102               462.5187
 Red. masses --      2.6629                 3.1146                 2.1385
 Frc consts  --      0.1855                 0.2781                 0.2695
 IR Inten    --      5.9265                15.0624                 6.3320

                     10                     11                     12
                      A                      A                      A
 Frequencies --    509.6273               573.9966               674.7743
 Red. masses --      3.0135                 4.1137                 4.6882
 Frc consts  --      0.4611                 0.7985                 1.2577
 IR Inten    --      4.2679                 2.9661                 4.9873

                     13                     14                     15
                      A                      A                      A
 Frequencies --    680.7186               760.5142               771.5381
 Red. masses --      3.5961                 1.5462                 3.9681
 Frc consts  --      0.9818                 0.5269                 1.3917
 IR Inten    --      0.9785                12.5676                 7.0160

                     16                     17                     18
                      A                      A                      A
 Frequencies --    862.4327               913.1913               941.2961
 Red. masses --      2.8039                 1.8557                 1.6582
 Frc consts  --      1.2288                 0.9117                 0.8657
 IR Inten    --     19.1484                14.0661                 3.8489

                     19                     20                     21
                      A                      A                      A
 Frequencies --    951.0212               962.4982               981.0699
 Red. masses --      1.9493                 1.7371                 1.3439
 Frc consts  --      1.0388                 0.9481                 0.7621
 IR Inten    --      3.1121                 2.4223                 1.7148

                     22                     23                     24
                      A                      A                      A
 Frequencies --   1019.2613              1030.8741              1096.1424
 Red. masses --      5.9110                 2.7261                 1.8251
 Frc consts  --      3.6181                 1.7069                 1.2920
 IR Inten    --     87.1978                 8.1065                15.0667

                     25                     26                     27
                      A                      A                      A
 Frequencies --   1108.6499              1138.3004              1153.2235
 Red. masses --      1.8201                 1.4428                 1.1591
 Frc consts  --      1.3180                 1.1015                 0.9083
 IR Inten    --      5.3302                29.3306                 3.5932

                     28                     29                     30
                      A                      A                      A
 Frequencies --   1195.8538              1199.9671              1220.8795
 Red. masses --      2.3093                 2.8033                 1.6442
 Frc consts  --      1.9458                 2.3782                 1.4439
 IR Inten    --     36.2880                44.3316                12.1937

                     31                     32                     33
                      A                      A                      A
 Frequencies --   1242.3828              1323.4501              1333.4273
 Red. masses --      3.9246                 1.4585                 1.5993
 Frc consts  --      3.5691                 1.5051                 1.6754
 IR Inten    --     54.9375                16.5419                 1.1135

                     34                     35                     36
                      A                      A                      A
 Frequencies --   1361.4609              1400.3675              1419.0313
 Red. masses --      1.8071                 1.3634                 1.9402
 Frc consts  --      1.9735                 1.5753                 2.3018
 IR Inten    --     33.7233                 4.5073                14.7180

                     37                     38                     39
                      A                      A                      A
 Frequencies --   1465.2996              1481.3165              1491.5300
 Red. masses --      1.0948                 1.0594                 1.0515
 Frc consts  --      1.3850                 1.3696                 1.3782
 IR Inten    --      4.3233                 4.8327                 2.7463

                     40                     41                     42
                      A                      A                      A
 Frequencies --   1515.5124              1685.7969              2968.3232
 Red. masses --      1.1047                 6.5706                 1.0674
 Frc consts  --      1.4949                11.0019                 5.5410
 IR Inten    --      0.7366                 4.1448                82.1769

                     43                     44                     45
                      A                      A                      A
 Frequencies --   3018.6279              3032.4822              3059.9070
 Red. masses --      1.0634                 1.0358                 1.0965
 Frc consts  --      5.7091                 5.6119                 6.0490
 IR Inten    --     29.3802                19.2511                40.6177

                     46                     47                     48
                      A                      A                      A
 Frequencies --   3063.3853              3099.4543              3111.3701
 Red. masses --      1.0973                 1.1010                 1.1014
 Frc consts  --      6.0668                 6.2318                 6.2818
 IR Inten    --     11.3600                21.8914                15.2712

                     49                     50                     51
                      A                      A                      A
 Frequencies --   3183.3285              3209.7637              3806.3919
 Red. masses --      1.0853                 1.1031                 1.0658
 Frc consts  --      6.4796                 6.6957                 9.0981
 IR Inten    --      7.3261                18.1831                11.8691

 - Thermochemistry -
 -------------------
 Temperature   298.150 Kelvin.  Pressure   1.00000 Atm.
 Atom     1 has atomic number  6 and mass  12.00000

 Molecular mass:   126.06808 amu.
 Principal axes and moments of inertia in atomic units:
                           1         2         3
     Eigenvalues --   878.24680 920.930661136.77492
           X            0.99867   0.03277   0.03983
           Y           -0.02754   0.99173  -0.12532
           Z           -0.04361   0.12406   0.99132
 This molecule is an asymmetric top.
 Rotational symmetry number  1.
 Warning -- assumption of classical behavior for rotation
           may cause significant error
 Rotational temperatures (Kelvin)      0.09862     0.09405     0.07619
 Rotational constants (GHZ):           2.05494     1.95969     1.58760
 Zero-point vibrational energy     416214.3 (Joules/Mol)
                                   99.47761 (Kcal/Mol)
 Warning -- explicit consideration of  11 degrees of freedom as
           vibrations may cause significant error
 Vibrational temperatures:    170.49   278.61   326.93   344.26   391.89
          (Kelvin)            461.06   494.74   560.13   665.46   733.24
                              825.85   970.85   979.40  1094.21  1110.07
                             1240.85  1313.88  1354.31  1368.31  1384.82
                             1411.54  1466.49  1483.20  1577.10  1595.10
                             1637.76  1659.23  1720.56  1726.48  1756.57
                             1787.51  1904.15  1918.50  1958.84  2014.81
                             2041.67  2108.24  2131.28  2145.98  2180.48
                             2425.48  4270.75  4343.13  4363.06  4402.52
                             4407.52  4459.42  4476.56  4580.09  4618.13
                             5476.54

 Zero-point correction=                           0.158528 (Hartree/Particle)
 Thermal correction to Energy=                    0.166831
 Thermal correction to Enthalpy=                  0.167775
 Thermal correction to Gibbs Free Energy=         0.126292
 Sum of electronic and zero-point Energies=           -423.024547
 Sum of electronic and thermal Energies=              -423.016244
 Sum of electronic and thermal Enthalpies=            -423.015299
 Sum of electronic and thermal Free Energies=         -423.056783

                     E (Thermal)             CV                S
                      KCal/Mol        Cal/Mol-Kelvin    Cal/Mol-Kelvin
 Total                  104.688             32.783             87.310
 Electronic               0.000              0.000              0.000
 Translational            0.889              2.981             40.409
 Rotational               0.889              2.981             28.310
 Vibrational            102.911             26.821             18.591
 Vibration     1          0.609              1.934              3.125
 Vibration     2          0.635              1.849              2.193
 Vibration     3          0.651              1.800              1.901
 Vibration     4          0.657              1.780              1.808
 Vibration     5          0.675              1.724              1.581
 Vibration     6          0.706              1.634              1.308
 Vibration     7          0.723              1.588              1.194
 Vibration     8          0.757              1.493              1.003
 Vibration     9          0.820              1.333              0.759
 Vibration    10          0.865              1.229              0.634
 Vibration    11          0.930              1.087              0.497

 Optimization completed.
    -- Stationary point found.
 Normal termination of Gaussian 09 at Mon Jan 27 19:26:10 2020.
