 Gaussian 09, Revision D.01,
 Gaussian 09:  ES64L-G09RevD.01 24-Apr-2013

 -----------------------------
 # b3lyp 6-31G(2df,p) opt Freq
 -----------------------------

 -----
 titel
 -----
 Symbolic Z-matrix:
 Charge =  0 Multiplicity = 1

 SCF Done:  E(RB3LYP) =  -423.223874684     A.U. after   14 cycles
 Optimization completed.
    -- Stationary point found.
 Normal termination of Gaussian 09 at Mon Jan 27 23:07:04 2020.

 ----------------------------------------------------------------------
 #N Geom=AllCheck Guess=TCheck SCRF=Check GenChk RB3LYP/6-31G(2df,p) Fr
 eq
 ----------------------------------------------------------------------

 Structure from the checkpoint file:  "/scratch/puck/g09_b9511859-4d1a-412a-ae46-6f9747d636f1/Gau-67579.chk"
 -----
 titel
 -----
 Charge =  0 Multiplicity = 1

                         Standard orientation:
 ---------------------------------------------------------------------
 Center     Atomic      Atomic             Coordinates (Angstroms)
 Number     Number       Type             X           Y           Z
 ---------------------------------------------------------------------
      1          6           0       -1.296561    1.863248    0.049706
      2          6           0       -1.449937    0.352729   -0.022735
      3          6           0       -0.793564   -0.611452    1.021591
      4          6           0       -0.776574   -1.683689   -0.106167
      5          6           0       -0.673121   -0.485017   -1.073115
      6          8           0        0.696401   -0.043354   -1.177937
      7          6           0        1.406791    0.102803   -0.026598
      8          8           0        2.554754    0.447014   -0.072422
      9          6           0        0.653039   -0.183535    1.274599
     10          1           0       -1.777646    2.258082    0.951076
     11          1           0       -0.251072    2.182121    0.060750
     12          1           0       -1.771007    2.339746   -0.814607
     13          1           0       -2.509804    0.090967   -0.112208
     14          1           0       -1.330796   -0.822392    1.948787
     15          1           0        0.041387   -2.408471   -0.123449
     16          1           0       -1.733349   -2.200139   -0.208109
     17          1           0       -1.030301   -0.559097   -2.100294
     18          1           0        1.212144   -0.960454    1.807285
     19          1           0        0.720776    0.719833    1.889954
 ---------------------------------------------------------------------

 SCF Done:  E(RB3LYP) =  -423.223874684     A.U. after    1 cycles

 The electronic state is 1-A.
 Alpha  occ. eigenvalues --  -19.17627 -19.11459 -10.30173 -10.25179 -10.20762
 Alpha  occ. eigenvalues --  -10.20331 -10.20212 -10.19712 -10.18535  -1.09282
 Alpha  occ. eigenvalues --   -1.01306  -0.86993  -0.76335  -0.74185  -0.65942
 Alpha  occ. eigenvalues --   -0.63540  -0.60167  -0.53488  -0.49416  -0.48110
 Alpha  occ. eigenvalues --   -0.46839  -0.45206  -0.44510  -0.42663  -0.40912
 Alpha  occ. eigenvalues --   -0.39956  -0.38681  -0.37770  -0.34485  -0.34220
 Alpha  occ. eigenvalues --   -0.32231  -0.30450  -0.28003  -0.25823
 Alpha virt. eigenvalues --    0.01168   0.06870   0.10132   0.10840   0.12656
 Alpha virt. eigenvalues --    0.12823   0.14404   0.15139   0.15784   0.16387
 Alpha virt. eigenvalues --    0.17044   0.18116   0.18669   0.19574   0.21687

 Mulliken charges:
               1
     1  C   -0.437808
     2  C    0.019014
     3  C   -0.054076
     4  C   -0.252041
     5  C    0.108571
     6  O   -0.235927
     7  C    0.413866
     8  O   -0.334669
     9  C   -0.350267
    10  H    0.120686
    11  H    0.137815
    12  H    0.124865
    13  H    0.084256
    14  H    0.070870
    15  H    0.109450
    16  H    0.110688
    17  H    0.088327
    18  H    0.138111
    19  H    0.138269
 Sum of Mulliken charges =   0.00000

 Dipole moment (field-independent basis, Debye):
    X=             -4.1013    Y=             -1.0851    Z=              1.2758  Tot=              4.4301
 Quadrupole moment (field-independent basis, Debye-Ang):
   XX=            -61.0966   YY=            -51.3890   ZZ=            -52.2756
   XY=             -2.1251   XZ=              2.8698   YZ=              0.4338

  Exact polarizability:  81.577   1.661  72.424   3.181   0.448  69.461
 Approx polarizability: 122.243   5.760 101.503   4.426   0.892 105.435

                      1                      2                      3
                      A                      A                      A
 Frequencies --     96.3774               177.1339               231.7609
 Red. masses --      5.0418                 1.0501                 2.5895
 Frc consts  --      0.0276                 0.0194                 0.0820
 IR Inten    --      1.9274                 0.0406                 1.9413

                      4                      5                      6
                      A                      A                      A
 Frequencies --    239.5922               355.8798               417.2618
 Red. masses --      3.1958                 2.3158                 2.8107
 Frc consts  --      0.1081                 0.1728                 0.2883
 IR Inten    --      0.2646                 2.5086                 0.8714

                      7                      8                      9
                      A                      A                      A
 Frequencies --    456.5508               533.2722               546.6926
 Red. masses --      5.1220                 4.2037                 3.0707
 Frc consts  --      0.6290                 0.7043                 0.5407
 IR Inten    --      3.7918                 0.4111                 1.5169

                     10                     11                     12
                      A                      A                      A
 Frequencies --    580.5353               611.4479               751.7195
 Red. masses --      2.9817                 4.3479                 2.1656
 Frc consts  --      0.5921                 0.9577                 0.7210
 IR Inten    --      5.7572                 1.1448                 2.5952

                     13                     14                     15
                      A                      A                      A
 Frequencies --    767.2919               839.8950               866.7516
 Red. masses --      5.1566                 2.2723                 2.6280
 Frc consts  --      1.7887                 0.9444                 1.1632
 IR Inten    --      4.1672                 2.8217                 3.7763

                     16                     17                     18
                      A                      A                      A
 Frequencies --    885.5658               923.8066               966.2241
 Red. masses --      2.3622                 1.7811                 1.9267
 Frc consts  --      1.0915                 0.8956                 1.0598
 IR Inten    --      4.1786                 4.4338                19.2924

                     19                     20                     21
                      A                      A                      A
 Frequencies --    990.2813              1034.6010              1057.7346
 Red. masses --      2.3345                 1.9932                 1.8961
 Frc consts  --      1.3488                 1.2570                 1.2498
 IR Inten    --     44.2364                11.3200                 8.2764

                     22                     23                     24
                      A                      A                      A
 Frequencies --   1069.5981              1086.2718              1131.6276
 Red. masses --      1.4394                 1.5240                 1.5523
 Frc consts  --      0.9702                 1.0595                 1.1712
 IR Inten    --     18.3987                36.4688                 2.3526

                     25                     26                     27
                      A                      A                      A
 Frequencies --   1147.3494              1166.8816              1194.8838
 Red. masses --      2.3627                 2.5723                 2.2187
 Frc consts  --      1.8325                 2.0636                 1.8663
 IR Inten    --     21.3009                 5.3260               129.7317

                     28                     29                     30
                      A                      A                      A
 Frequencies --   1218.2832              1239.0458              1256.6108
 Red. masses --      1.2786                 1.6385                 1.5983
 Frc consts  --      1.1181                 1.4821                 1.4870
 IR Inten    --      0.8349                16.3755                 3.5670

                     31                     32                     33
                      A                      A                      A
 Frequencies --   1289.9464              1325.4442              1363.9841
 Red. masses --      1.5340                 1.8098                 1.5240
 Frc consts  --      1.5039                 1.8733                 1.6706
 IR Inten    --      0.8296                 5.9812                14.8076

                     34                     35                     36
                      A                      A                      A
 Frequencies --   1386.9367              1391.3721              1421.2277
 Red. masses --      1.4137                 1.4690                 1.2614
 Frc consts  --      1.6023                 1.6755                 1.5012
 IR Inten    --     12.2523                26.5350                 3.3394

                     37                     38                     39
                      A                      A                      A
 Frequencies --   1459.1891              1491.2809              1496.9885
 Red. masses --      1.0805                 1.0905                 1.0739
 Frc consts  --      1.3555                 1.4288                 1.4179
 IR Inten    --      6.7627                 3.7976                 1.8826

                     40                     41                     42
                      A                      A                      A
 Frequencies --   1502.3071              1854.4277              3036.7657
 Red. masses --      1.0541                12.8191                 1.0380
 Frc consts  --      1.4016                25.9734                 5.6401
 IR Inten    --      5.2452               341.9156                19.8290

                     43                     44                     45
                      A                      A                      A
 Frequencies --   3050.1945              3051.3052              3065.7276
 Red. masses --      1.0824                 1.0612                 1.0598
 Frc consts  --      5.9334                 5.8212                 5.8687
 IR Inten    --     17.7710                 8.6210                21.4904

                     46                     47                     48
                      A                      A                      A
 Frequencies --   3084.5085              3088.0307              3098.3431
 Red. masses --      1.0871                 1.1016                 1.1009
 Frc consts  --      6.0940                 6.1890                 6.2269
 IR Inten    --     46.2242                 9.9164                16.9180

                     49                     50                     51
                      A                      A                      A
 Frequencies --   3113.9573              3116.5586              3127.1042
 Red. masses --      1.0918                 1.0995                 1.1073
 Frc consts  --      6.2375                 6.2919                 6.3795
 IR Inten    --     31.7835                24.3176                30.6381

 - Thermochemistry -
 -------------------
 Temperature   298.150 Kelvin.  Pressure   1.00000 Atm.
 Atom     1 has atomic number  6 and mass  12.00000

 Molecular mass:   126.06808 amu.
 Principal axes and moments of inertia in atomic units:
                           1         2         3
     Eigenvalues --   720.165611113.935431227.34251
           X            0.99901  -0.03832   0.02269
           Y            0.03816   0.99924   0.00734
           Z           -0.02295  -0.00647   0.99972
 This molecule is an asymmetric top.
 Rotational symmetry number  1.
 Warning -- assumption of classical behavior for rotation
           may cause significant error
 Rotational temperatures (Kelvin)      0.12027     0.07775     0.07057
 Rotational constants (GHZ):           2.50601     1.62015     1.47045
 Zero-point vibrational energy     422619.9 (Joules/Mol)
                                  101.00858 (Kcal/Mol)
 Warning -- explicit consideration of  11 degrees of freedom as
           vibrations may cause significant error
 Vibrational temperatures:    138.67   254.86   333.45   344.72   512.03
          (Kelvin)            600.35   656.87   767.26   786.57   835.26
                              879.74  1081.56  1103.96  1208.42  1247.06
                             1274.13  1329.15  1390.18  1424.79  1488.56
                             1521.84  1538.91  1562.90  1628.16  1650.78
                             1678.88  1719.17  1752.84  1782.71  1807.98
                             1855.94  1907.02  1962.47  1995.49  2001.87
                             2044.83  2099.45  2145.62  2153.83  2161.48
                             2668.10  4369.22  4388.54  4390.14  4410.89
                             4437.91  4442.98  4457.82  4480.28  4484.03
                             4499.20

 Zero-point correction=                           0.160967 (Hartree/Particle)
 Thermal correction to Energy=                    0.168586
 Thermal correction to Enthalpy=                  0.169530
 Thermal correction to Gibbs Free Energy=         0.129010
 Sum of electronic and zero-point Energies=           -423.062907
 Sum of electronic and thermal Energies=              -423.055288
 Sum of electronic and thermal Enthalpies=            -423.054344
 Sum of electronic and thermal Free Energies=         -423.094864

                     E (Thermal)             CV                S
                      KCal/Mol        Cal/Mol-Kelvin    Cal/Mol-Kelvin
 Total                  105.789             30.266             85.282
 Electronic               0.000              0.000              0.000
 Translational            0.889              2.981             40.409
 Rotational               0.889              2.981             28.378
 Vibrational            104.012             24.304             16.495
 Vibration     1          0.603              1.952              3.526
 Vibration     2          0.628              1.871              2.358
 Vibration     3          0.653              1.792              1.865
 Vibration     4          0.657              1.780              1.806
 Vibration     5          0.731              1.563              1.140
 Vibration     6          0.780              1.433              0.901
 Vibration     7          0.815              1.346              0.776
 Vibration     8          0.888              1.176              0.580
 Vibration     9          0.902              1.147              0.551
 Vibration    10          0.937              1.073              0.484
 Vibration    11          0.971              1.008              0.430

 Normal termination of Gaussian 09 at Mon Jan 27 23:53:02 2020.
