 Gaussian 09, Revision D.01,
 Gaussian 09:  ES64L-G09RevD.01 24-Apr-2013

 -----------------------------
 # b3lyp 6-31G(2df,p) opt Freq
 -----------------------------

 -----
 titel
 -----
 Symbolic Z-matrix:
 Charge =  0 Multiplicity = 1

 SCF Done:  E(RB3LYP) =  -423.190497167     A.U. after   14 cycles
 Optimization completed.
    -- Stationary point found.
 Normal termination of Gaussian 09 at Tue Jan 28 00:04:45 2020.

 ----------------------------------------------------------------------
 #N Geom=AllCheck Guess=TCheck SCRF=Check GenChk RB3LYP/6-31G(2df,p) Fr
 eq
 ----------------------------------------------------------------------

 Structure from the checkpoint file:  "/scratch/puck/g09_fc344dfb-5d63-429b-a62d-c8557efdfc46/Gau-82538.chk"
 -----
 titel
 -----
 Charge =  0 Multiplicity = 1

                         Standard orientation:
 ---------------------------------------------------------------------
 Center     Atomic      Atomic             Coordinates (Angstroms)
 Number     Number       Type             X           Y           Z
 ---------------------------------------------------------------------
      1          6           0       -1.695529    1.705045   -0.424045
      2          6           0       -0.316432    1.085700   -0.430555
      3          6           0        0.318093    0.600410    0.844416
      4          6           0        1.831526    0.492655    0.921034
      5          6           0        2.203539   -0.240850   -0.388634
      6          8           0        1.051976   -0.984220   -0.796060
      7          6           0       -0.091162   -0.414143   -0.211250
      8          6           0       -1.181431   -1.393896   -0.019735
      9          8           0       -2.224361   -1.175678    0.553002
     10          1           0       -2.353481    1.195849    0.281579
     11          1           0       -1.631806    2.763293   -0.147198
     12          1           0       -2.156374    1.644847   -1.415264
     13          1           0        0.362070    1.500607   -1.172834
     14          1           0       -0.264508    0.661212    1.757117
     15          1           0        2.337737    1.459732    0.995255
     16          1           0        2.109588   -0.100452    1.797799
     17          1           0        2.478590    0.476898   -1.172629
     18          1           0        3.033887   -0.942764   -0.272045
     19          1           0       -0.948257   -2.389569   -0.454710
 ---------------------------------------------------------------------

 SCF Done:  E(RB3LYP) =  -423.190497167     A.U. after    1 cycles

 The electronic state is 1-A.
 Alpha  occ. eigenvalues --  -19.15244 -19.13453 -10.26768 -10.24519 -10.23979
 Alpha  occ. eigenvalues --  -10.20693 -10.20523 -10.20073 -10.17786  -1.05752
 Alpha  occ. eigenvalues --   -1.03863  -0.86527  -0.77541  -0.72355  -0.66161
 Alpha  occ. eigenvalues --   -0.63285  -0.58009  -0.54020  -0.50710  -0.48432
 Alpha  occ. eigenvalues --   -0.46552  -0.45586  -0.42675  -0.42327  -0.40968
 Alpha  occ. eigenvalues --   -0.39721  -0.39385  -0.37375  -0.35841  -0.34107
 Alpha  occ. eigenvalues --   -0.32415  -0.29546  -0.25241  -0.23604
 Alpha virt. eigenvalues --   -0.02493   0.08439   0.09464   0.11395   0.12326
 Alpha virt. eigenvalues --    0.13057   0.13710   0.15417   0.16286   0.16774
 Alpha virt. eigenvalues --    0.17746   0.18304   0.19642   0.20919   0.22505

 Mulliken charges:
               1
     1  C   -0.435298
     2  C   -0.072600
     3  C   -0.113061
     4  C   -0.252132
     5  C   -0.098583
     6  O   -0.304487
     7  C    0.319854
     8  C    0.085245
     9  O   -0.275345
    10  H    0.156647
    11  H    0.116550
    12  H    0.121959
    13  H    0.095740
    14  H    0.112213
    15  H    0.113185
    16  H    0.116864
    17  H    0.106339
    18  H    0.116203
    19  H    0.090705
 Sum of Mulliken charges =   0.00000

 Dipole moment (field-independent basis, Debye):
    X=              2.6139    Y=              1.5822    Z=              0.0247  Tot=              3.0556
 Quadrupole moment (field-independent basis, Debye-Ang):
   XX=            -55.8135   YY=            -53.1082   ZZ=            -53.1754
   XY=             -1.5925   XZ=              3.2100   YZ=             -0.4373

  Exact polarizability:  88.083   0.019  78.106   0.084   0.679  63.962
 Approx polarizability: 121.908   3.093 114.658  -4.970   2.694 100.563

                      1                      2                      3
                      A                      A                      A
 Frequencies --    122.6002               178.9780               183.9023
 Red. masses --      4.1743                 2.3130                 2.0045
 Frc consts  --      0.0370                 0.0437                 0.0399
 IR Inten    --      4.7945                 5.8664                 0.1317

                      4                      5                      6
                      A                      A                      A
 Frequencies --    189.7930               219.3650               264.5759
 Red. masses --      1.3665                 2.4908                 3.0546
 Frc consts  --      0.0290                 0.0706                 0.1260
 IR Inten    --      1.9383                 7.9975                 0.5799

                      7                      8                      9
                      A                      A                      A
 Frequencies --    267.3339               373.2878               433.3745
 Red. masses --      2.2656                 3.9442                 3.2412
 Frc consts  --      0.0954                 0.3238                 0.3587
 IR Inten    --      0.4947                 2.0542                 0.3996

                     10                     11                     12
                      A                      A                      A
 Frequencies --    516.9264               664.4052               710.0647
 Red. masses --      6.2191                 2.8786                 4.6283
 Frc consts  --      0.9791                 0.7487                 1.3749
 IR Inten    --      1.9691                 5.4005                14.3997

                     13                     14                     15
                      A                      A                      A
 Frequencies --    729.3120               767.5408               866.9502
 Red. masses --      3.7769                 3.2060                 2.0303
 Frc consts  --      1.1836                 1.1128                 0.8991
 IR Inten    --     25.9948                 5.2545                12.5544

                     16                     17                     18
                      A                      A                      A
 Frequencies --    877.3964               937.1666               940.0228
 Red. masses --      2.0014                 1.6580                 2.1170
 Frc consts  --      0.9078                 0.8580                 1.1022
 IR Inten    --      8.6717                17.1468                10.1921

                     19                     20                     21
                      A                      A                      A
 Frequencies --   1010.9110              1026.0674              1042.8978
 Red. masses --      1.3055                 1.9952                 2.2035
 Frc consts  --      0.7860                 1.2376                 1.4121
 IR Inten    --      2.3177                14.5875                 9.2433

                     22                     23                     24
                      A                      A                      A
 Frequencies --   1063.8736              1089.7197              1114.3329
 Red. masses --      2.2044                 1.7993                 2.3751
 Frc consts  --      1.4700                 1.2589                 1.7377
 IR Inten    --     10.0929                30.2076                33.1899

                     25                     26                     27
                      A                      A                      A
 Frequencies --   1123.7877              1150.5068              1201.0670
 Red. masses --      2.1752                 2.0796                 2.2221
 Frc consts  --      1.6185                 1.6218                 1.8886
 IR Inten    --     68.4901                 3.9709                54.9461

                     28                     29                     30
                      A                      A                      A
 Frequencies --   1220.1099              1233.3772              1273.1522
 Red. masses --      1.2949                 1.3456                 1.4709
 Frc consts  --      1.1358                 1.2061                 1.4048
 IR Inten    --      4.3558                 7.0909                11.1279

                     31                     32                     33
                      A                      A                      A
 Frequencies --   1320.1071              1339.5612              1387.0587
 Red. masses --      1.6072                 1.4805                 1.2978
 Frc consts  --      1.6502                 1.5653                 1.4711
 IR Inten    --      2.3285                 6.2498                 2.4500

                     34                     35                     36
                      A                      A                      A
 Frequencies --   1416.0536              1423.5418              1432.3344
 Red. masses --      1.2833                 1.4651                 2.2446
 Frc consts  --      1.5162                 1.7493                 2.7132
 IR Inten    --      6.8589                18.7689                20.3802

                     37                     38                     39
                      A                      A                      A
 Frequencies --   1492.8563              1497.1038              1504.4354
 Red. masses --      1.0814                 1.0908                 1.0540
 Frc consts  --      1.4200                 1.4404                 1.4055
 IR Inten    --      4.1232                 3.1311                 1.8043

                     40                     41                     42
                      A                      A                      A
 Frequencies --   1532.2493              1804.4770              2906.2049
 Red. masses --      1.0894                10.0311                 1.0835
 Frc consts  --      1.5070                19.2443                 5.3918
 IR Inten    --      0.7286               149.5412               104.9915

                     43                     44                     45
                      A                      A                      A
 Frequencies --   3014.4358              3036.5672              3051.6817
 Red. masses --      1.0694                 1.0390                 1.0600
 Frc consts  --      5.7256                 5.6445                 5.8163
 IR Inten    --     45.6671                36.0163                26.4502

                     46                     47                     48
                      A                      A                      A
 Frequencies --   3083.2071              3094.7284              3098.7910
 Red. masses --      1.0951                 1.1005                 1.1057
 Frc consts  --      6.1334                 6.2100                 6.2554
 IR Inten    --     29.6330                20.9172                30.9849

                     49                     50                     51
                      A                      A                      A
 Frequencies --   3128.0070              3147.8756              3178.8350
 Red. masses --      1.0885                 1.0965                 1.0899
 Frc consts  --      6.2750                 6.4018                 6.4888
 IR Inten    --      5.9561                 7.8821                 5.0606

 - Thermochemistry -
 -------------------
 Temperature   298.150 Kelvin.  Pressure   1.00000 Atm.
 Atom     1 has atomic number  6 and mass  12.00000

 Molecular mass:   126.06808 amu.
 Principal axes and moments of inertia in atomic units:
                           1         2         3
     Eigenvalues --   699.615091220.929761542.42379
           X            0.99883  -0.04426   0.01948
           Y            0.04450   0.99894  -0.01162
           Z           -0.01895   0.01247   0.99974
 This molecule is an asymmetric top.
 Rotational symmetry number  1.
 Warning -- assumption of classical behavior for rotation
           may cause significant error
 Rotational temperatures (Kelvin)      0.12380     0.07094     0.05615
 Rotational constants (GHZ):           2.57962     1.47817     1.17007
 Zero-point vibrational energy     416796.4 (Joules/Mol)
                                   99.61672 (Kcal/Mol)
 Warning -- explicit consideration of  10 degrees of freedom as
           vibrations may cause significant error
 Vibrational temperatures:    176.39   257.51   264.59   273.07   315.62
          (Kelvin)            380.67   384.63   537.08   623.53   743.74
                              955.93  1021.62  1049.32  1104.32  1247.35
                             1262.38  1348.37  1352.48  1454.47  1476.28
                             1500.50  1530.67  1567.86  1603.27  1616.88
                             1655.32  1728.07  1755.46  1774.55  1831.78
                             1899.34  1927.33  1995.67  2037.38  2048.16
                             2060.81  2147.88  2154.00  2164.54  2204.56
                             2596.24  4181.38  4337.10  4368.94  4390.68
                             4436.04  4452.62  4458.46  4500.50  4529.09
                             4573.63

 Zero-point correction=                           0.158749 (Hartree/Particle)
 Thermal correction to Energy=                    0.167307
 Thermal correction to Enthalpy=                  0.168251
 Thermal correction to Gibbs Free Energy=         0.125819
 Sum of electronic and zero-point Energies=           -423.031748
 Sum of electronic and thermal Energies=              -423.023191
 Sum of electronic and thermal Enthalpies=            -423.022246
 Sum of electronic and thermal Free Energies=         -423.064678

                     E (Thermal)             CV                S
                      KCal/Mol        Cal/Mol-Kelvin    Cal/Mol-Kelvin
 Total                  104.986             32.211             89.305
 Electronic               0.000              0.000              0.000
 Translational            0.889              2.981             40.409
 Rotational               0.889              2.981             28.668
 Vibrational            103.209             26.249             20.229
 Vibration     1          0.610              1.930              3.059
 Vibration     2          0.629              1.868              2.339
 Vibration     3          0.631              1.862              2.288
 Vibration     4          0.633              1.854              2.230
 Vibration     5          0.647              1.812              1.964
 Vibration     6          0.671              1.738              1.631
 Vibration     7          0.672              1.733              1.613
 Vibration     8          0.745              1.527              1.066
 Vibration     9          0.794              1.398              0.848
 Vibration    10          0.872              1.213              0.617

 Normal termination of Gaussian 09 at Tue Jan 28 00:45:23 2020.
