 Gaussian 09, Revision D.01,
 Gaussian 09:  ES64L-G09RevD.01 24-Apr-2013

 -----------------------------
 # b3lyp 6-31G(2df,p) opt Freq
 -----------------------------

 -----
 titel
 -----
 Symbolic Z-matrix:
 Charge =  0 Multiplicity = 1

 SCF Done:  E(RB3LYP) =  -423.113124116     A.U. after   14 cycles
 Optimization completed.
    -- Stationary point found.
 Normal termination of Gaussian 09 at Tue Jan 28 08:21:23 2020.

 ----------------------------------------------------------------------
 #N Geom=AllCheck Guess=TCheck SCRF=Check GenChk RB3LYP/6-31G(2df,p) Fr
 eq
 ----------------------------------------------------------------------

 Structure from the checkpoint file:  "/scratch/puck/g09_28517e8e-3d9b-4d2c-bdb8-205173b1d36d/Gau-60071.chk"
 -----
 titel
 -----
 Charge =  0 Multiplicity = 1

                         Standard orientation:
 ---------------------------------------------------------------------
 Center     Atomic      Atomic             Coordinates (Angstroms)
 Number     Number       Type             X           Y           Z
 ---------------------------------------------------------------------
      1          8           0       -2.659396   -1.309201   -0.269406
      2          6           0       -1.402470   -1.188586    0.359858
      3          6           0       -0.539614   -0.032732   -0.194497
      4          6           0       -1.215641    1.255641   -0.061644
      5          6           0       -1.740684    2.327596    0.080192
      6          6           0        0.833598    0.002584    0.493568
      7          6           0        1.892394    0.959528   -0.095643
      8          8           0        2.796633   -0.133501   -0.365467
      9          6           0        1.849225   -1.102233    0.119269
     10          1           0       -2.514303   -1.510091   -1.199656
     11          1           0       -1.612491   -1.005711    1.418391
     12          1           0       -0.822054   -2.122414    0.291138
     13          1           0       -0.371014   -0.228615   -1.265734
     14          1           0       -2.220026    3.268353    0.193602
     15          1           0        0.696399    0.123125    1.571003
     16          1           0        1.586125    1.479859   -1.012125
     17          1           0        2.324771    1.688762    0.598598
     18          1           0        1.522443   -1.789920   -0.674129
     19          1           0        2.251405   -1.692515    0.951276
 ---------------------------------------------------------------------

 SCF Done:  E(RB3LYP) =  -423.113124116     A.U. after    1 cycles

 The electronic state is 1-A.
 Alpha  occ. eigenvalues --  -19.14350 -19.13355 -10.24020 -10.23569 -10.23201
 Alpha  occ. eigenvalues --  -10.22093 -10.20541 -10.18342 -10.17500  -1.03957
 Alpha  occ. eigenvalues --   -1.02652  -0.82503  -0.73946  -0.71061  -0.69443
 Alpha  occ. eigenvalues --   -0.64229  -0.56372  -0.54365  -0.51265  -0.50576
 Alpha  occ. eigenvalues --   -0.48712  -0.45615  -0.45046  -0.42783  -0.41359
 Alpha  occ. eigenvalues --   -0.40635  -0.37254  -0.34391  -0.32778  -0.31112
 Alpha  occ. eigenvalues --   -0.28501  -0.26769  -0.26164  -0.25000
 Alpha virt. eigenvalues --    0.04143   0.04743   0.07330   0.08014   0.09314
 Alpha virt. eigenvalues --    0.10495   0.12532   0.12756   0.14557   0.15490
 Alpha virt. eigenvalues --    0.16704   0.17272   0.18415   0.19755   0.22529

 Mulliken charges:
               1
     1  O   -0.409646
     2  C   -0.059735
     3  C   -0.244694
     4  C    0.347884
     5  C   -0.457370
     6  C   -0.024594
     7  C   -0.086968
     8  O   -0.271948
     9  C   -0.092199
    10  H    0.284265
    11  H    0.122115
    12  H    0.092479
    13  H    0.096792
    14  H    0.198364
    15  H    0.092497
    16  H    0.106840
    17  H    0.107356
    18  H    0.094153
    19  H    0.104409
 Sum of Mulliken charges =   0.00000

 Dipole moment (field-independent basis, Debye):
    X=             -0.2435    Y=             -0.3626    Z=             -0.0612  Tot=              0.4411
 Quadrupole moment (field-independent basis, Debye-Ang):
   XX=            -66.1357   YY=            -48.1000   ZZ=            -50.3700
   XY=             -1.8158   XZ=              4.2921   YZ=              1.9954

  Exact polarizability:  79.661  -9.362  90.194   1.225   1.300  60.795
 Approx polarizability: 106.094 -18.115 134.017  -0.990   4.844  94.219

                      1                      2                      3
                      A                      A                      A
 Frequencies --     49.2316                75.2014               105.1120
 Red. masses --      3.9551                 3.6429                 2.9698
 Frc consts  --      0.0056                 0.0121                 0.0193
 IR Inten    --      7.0080                 1.1498                 1.1202

                      4                      5                      6
                      A                      A                      A
 Frequencies --    125.7741               167.7669               205.5328
 Red. masses --      3.1069                 3.3794                 2.3802
 Frc consts  --      0.0290                 0.0560                 0.0592
 IR Inten    --      0.0092                 4.3693                11.9629

                      7                      8                      9
                      A                      A                      A
 Frequencies --    302.2638               325.1012               356.3336
 Red. masses --      1.3262                 3.2429                 3.6986
 Frc consts  --      0.0714                 0.2019                 0.2767
 IR Inten    --     81.4082                20.4796                 2.0547

                     10                     11                     12
                      A                      A                      A
 Frequencies --    422.8724               494.5247               571.9711
 Red. masses --      3.5532                 4.9259                 3.0994
 Frc consts  --      0.3744                 0.7098                 0.5974
 IR Inten    --      0.7242                 4.5753                10.4517

                     13                     14                     15
                      A                      A                      A
 Frequencies --    637.2832               642.8584               802.5781
 Red. masses --      1.2163                 1.2385                 3.1626
 Frc consts  --      0.2910                 0.3016                 1.2003
 IR Inten    --     42.9470                40.1068                 9.9071

                     16                     17                     18
                      A                      A                      A
 Frequencies --    834.7593               891.1399               899.4560
 Red. masses --      3.2883                 1.4992                 1.7866
 Frc consts  --      1.3500                 0.7015                 0.8516
 IR Inten    --      3.3691                 4.1425                 5.5557

                     19                     20                     21
                      A                      A                      A
 Frequencies --    968.8748               992.6504              1026.8743
 Red. masses --      2.5112                 3.6494                 2.7406
 Frc consts  --      1.3889                 2.1187                 1.7027
 IR Inten    --     10.3605                20.1665                65.6521

                     22                     23                     24
                      A                      A                      A
 Frequencies --   1043.4899              1090.0058              1097.0047
 Red. masses --     10.0287                 2.2757                 2.4778
 Frc consts  --      6.4338                 1.5930                 1.7569
 IR Inten    --     74.9842                 5.6893                 7.6273

                     25                     26                     27
                      A                      A                      A
 Frequencies --   1107.4732              1143.6364              1157.9271
 Red. masses --      4.1272                 1.8187                 1.2005
 Frc consts  --      2.9825                 1.4015                 0.9484
 IR Inten    --     49.3736                 4.5338                 8.2540

                     28                     29                     30
                      A                      A                      A
 Frequencies --   1166.4233              1206.6964              1262.6733
 Red. masses --      1.1134                 1.4314                 1.3478
 Frc consts  --      0.8925                 1.2280                 1.2661
 IR Inten    --      1.4301                12.7988                 1.5116

                     31                     32                     33
                      A                      A                      A
 Frequencies --   1274.9032              1311.5331              1344.5666
 Red. masses --      1.2850                 1.2777                 1.3116
 Frc consts  --      1.2306                 1.2950                 1.3970
 IR Inten    --      4.6500                 0.5507                 7.6102

                     34                     35                     36
                      A                      A                      A
 Frequencies --   1365.1463              1388.1671              1399.2461
 Red. masses --      1.3576                 1.3803                 1.4414
 Frc consts  --      1.4907                 1.5672                 1.6628
 IR Inten    --      9.0623                 0.8548                 3.2994

                     37                     38                     39
                      A                      A                      A
 Frequencies --   1419.5076              1500.6663              1513.2520
 Red. masses --      1.2244                 1.0869                 1.0795
 Frc consts  --      1.4536                 1.4422                 1.4565
 IR Inten    --     43.9159                 1.5196                 1.1979

                     40                     41                     42
                      A                      A                      A
 Frequencies --   1537.8605              2235.5796              2974.0646
 Red. masses --      1.1098                 5.9239                 1.0782
 Frc consts  --      1.5464                17.4438                 5.6190
 IR Inten    --      1.2379                 0.5840                20.2957

                     43                     44                     45
                      A                      A                      A
 Frequencies --   2978.6030              2995.4938              3018.1084
 Red. masses --      1.0713                 1.0598                 1.0591
 Frc consts  --      5.6001                 5.6028                 5.6843
 IR Inten    --     37.8559               109.8047                30.2128

                     46                     47                     48
                      A                      A                      A
 Frequencies --   3045.6538              3060.6044              3080.8269
 Red. masses --      1.1025                 1.1060                 1.0925
 Frc consts  --      6.0255                 6.1039                 6.1094
 IR Inten    --     38.4617                20.5518                 5.7716

                     49                     50                     51
                      A                      A                      A
 Frequencies --   3086.9684              3503.9849              3813.9631
 Red. masses --      1.0915                 1.1622                 1.0661
 Frc consts  --      6.1282                 8.4070                 9.1374
 IR Inten    --     62.9626                66.3136                18.6630

 - Thermochemistry -
 -------------------
 Temperature   298.150 Kelvin.  Pressure   1.00000 Atm.
 Atom     1 has atomic number  8 and mass  15.99491

 Molecular mass:   126.06808 amu.
 Principal axes and moments of inertia in atomic units:
                           1         2         3
     Eigenvalues --   725.520611648.191962237.45700
           X            0.99998  -0.00069   0.00593
           Y            0.00069   1.00000  -0.00011
           Z           -0.00593   0.00012   0.99998
 This molecule is an asymmetric top.
 Rotational symmetry number  1.
 Warning -- assumption of classical behavior for rotation
           may cause significant error
 Rotational temperatures (Kelvin)      0.11938     0.05255     0.03871
 Rotational constants (GHZ):           2.48751     1.09498     0.80660
 Zero-point vibrational energy     412844.4 (Joules/Mol)
                                   98.67217 (Kcal/Mol)
 Warning -- explicit consideration of  12 degrees of freedom as
           vibrations may cause significant error
 Vibrational temperatures:     70.83   108.20   151.23   180.96   241.38
          (Kelvin)            295.72   434.89   467.75   512.68   608.42
                              711.51   822.94   916.91   924.93  1154.73
                             1201.03  1282.15  1294.11  1393.99  1428.20
                             1477.44  1501.35  1568.27  1578.34  1593.41
                             1645.44  1666.00  1678.22  1736.16  1816.70
                             1834.30  1887.00  1934.53  1964.14  1997.26
                             2013.20  2042.35  2159.12  2177.23  2212.64
                             3216.50  4279.01  4285.54  4309.84  4342.38
                             4382.01  4403.52  4432.62  4441.45  5041.45
                             5487.44

 Zero-point correction=                           0.157244 (Hartree/Particle)
 Thermal correction to Energy=                    0.167047
 Thermal correction to Enthalpy=                  0.167991
 Thermal correction to Gibbs Free Energy=         0.121506
 Sum of electronic and zero-point Energies=           -422.955880
 Sum of electronic and thermal Energies=              -422.946077
 Sum of electronic and thermal Enthalpies=            -422.945133
 Sum of electronic and thermal Free Energies=         -422.991618

                     E (Thermal)             CV                S
                      KCal/Mol        Cal/Mol-Kelvin    Cal/Mol-Kelvin
 Total                  104.823             34.755             97.835
 Electronic               0.000              0.000              0.000
 Translational            0.889              2.981             40.409
 Rotational               0.889              2.981             29.371
 Vibrational            103.046             28.794             28.055
 Vibration     1          0.595              1.978              4.848
 Vibration     2          0.599              1.966              4.012
 Vibration     3          0.605              1.945              3.357
 Vibration     4          0.611              1.927              3.010
 Vibration     5          0.624              1.882              2.460
 Vibration     6          0.640              1.832              2.083
 Vibration     7          0.694              1.669              1.404
 Vibration     8          0.709              1.625              1.284
 Vibration     9          0.732              1.562              1.138
 Vibration    10          0.785              1.421              0.882
 Vibration    11          0.850              1.262              0.672
 Vibration    12          0.928              1.092              0.500

 Optimization completed.
    -- Stationary point found.
 Normal termination of Gaussian 09 at Tue Jan 28 10:07:28 2020.
