 Gaussian 09, Revision D.01,
 Gaussian 09:  ES64L-G09RevD.01 24-Apr-2013

 -----------------------------
 # b3lyp 6-31G(2df,p) opt Freq
 -----------------------------

 -----
 titel
 -----
 Symbolic Z-matrix:
 Charge =  0 Multiplicity = 1

 SCF Done:  E(RB3LYP) =  -423.133276958     A.U. after   13 cycles
 Optimization completed.
    -- Stationary point found.
 Normal termination of Gaussian 09 at Mon Jan 27 18:47:08 2020.

 ----------------------------------------------------------------------
 #N Geom=AllCheck Guess=TCheck SCRF=Check GenChk RB3LYP/6-31G(2df,p) Fr
 eq
 ----------------------------------------------------------------------

 Structure from the checkpoint file:  "/scratch/puck/g09_7a4f1c3f-bef8-4369-b711-d48a536d93c1/Gau-43345.chk"
 -----
 titel
 -----
 Charge =  0 Multiplicity = 1

                         Standard orientation:
 ---------------------------------------------------------------------
 Center     Atomic      Atomic             Coordinates (Angstroms)
 Number     Number       Type             X           Y           Z
 ---------------------------------------------------------------------
      1          6           0        2.228116   -1.190964    0.420929
      2          6           0        1.085515   -0.335336   -0.055351
      3          6           0       -0.076786   -0.974625   -0.871869
      4          6           0       -1.067441   -0.222499    0.032245
      5          6           0       -2.405967   -0.617039    0.471474
      6          8           0       -2.207784    0.478841   -0.433107
      7          6           0        0.051326    0.434479    0.839368
      8          6           0        0.628810    1.689373    0.166021
      9          8           0        1.522048    0.905882   -0.660977
     10          1           0        2.837434   -1.511471   -0.431734
     11          1           0        2.872525   -0.633855    1.107120
     12          1           0        1.860442   -2.086611    0.931843
     13          1           0       -0.084544   -0.672761   -1.921303
     14          1           0       -0.145558   -2.064253   -0.801026
     15          1           0       -2.878631   -1.498791    0.039401
     16          1           0       -2.755242   -0.343219    1.466760
     17          1           0        0.007409    0.398240    1.927727
     18          1           0       -0.078526    2.284878   -0.421760
     19          1           0        1.189149    2.349729    0.838741
 ---------------------------------------------------------------------

 SCF Done:  E(RB3LYP) =  -423.133276958     A.U. after    1 cycles

 The electronic state is 1-A.
 Alpha  occ. eigenvalues --  -19.15202 -19.12952 -10.24408 -10.24281 -10.23475
 Alpha  occ. eigenvalues --  -10.22931 -10.19164 -10.18324 -10.18130  -1.07345
 Alpha  occ. eigenvalues --   -1.03712  -0.82198  -0.74468  -0.70309  -0.66545
 Alpha  occ. eigenvalues --   -0.62861  -0.58183  -0.51315  -0.50459  -0.49492
 Alpha  occ. eigenvalues --   -0.47770  -0.45782  -0.43752  -0.41366  -0.40728
 Alpha  occ. eigenvalues --   -0.40653  -0.38267  -0.34995  -0.34272  -0.32801
 Alpha  occ. eigenvalues --   -0.29462  -0.28208  -0.26371  -0.24395
 Alpha virt. eigenvalues --    0.06261   0.08001   0.10078   0.10818   0.11665
 Alpha virt. eigenvalues --    0.13690   0.14349   0.15134   0.15409   0.16257
 Alpha virt. eigenvalues --    0.16622   0.17061   0.19412   0.20294   0.21253

 Mulliken charges:
               1
     1  C   -0.476147
     2  C    0.449798
     3  C   -0.368968
     4  C    0.461102
     5  C   -0.273014
     6  O   -0.268855
     7  C   -0.237442
     8  C   -0.088922
     9  O   -0.328147
    10  H    0.132039
    11  H    0.124601
    12  H    0.116682
    13  H    0.124221
    14  H    0.104061
    15  H    0.116247
    16  H    0.114760
    17  H    0.078125
    18  H    0.118862
    19  H    0.100998
 Sum of Mulliken charges =   0.00000

 Dipole moment (field-independent basis, Debye):
    X=             -0.0435    Y=             -1.7143    Z=              2.0002  Tot=              2.6347
 Quadrupole moment (field-independent basis, Debye-Ang):
   XX=            -56.5207   YY=            -51.0244   ZZ=            -52.6638
   XY=              1.2980   XZ=             -0.5069   YZ=              2.0880

  Exact polarizability:  84.826   1.868  75.557  -1.658   2.821  65.598
 Approx polarizability: 111.816   1.727 109.046  -3.633   0.438 100.960

                      1                      2                      3
                      A                      A                      A
 Frequencies --     66.3206               198.6077               213.8055
 Red. masses --      3.7120                 2.4579                 1.0773
 Frc consts  --      0.0096                 0.0571                 0.0290
 IR Inten    --      0.9484                 4.7620                 0.3105

                      4                      5                      6
                      A                      A                      A
 Frequencies --    237.4130               277.7860               315.1626
 Red. masses --      3.4003                 2.5993                 2.8112
 Frc consts  --      0.1129                 0.1182                 0.1645
 IR Inten    --      1.3153                 0.9944                 1.1936

                      7                      8                      9
                      A                      A                      A
 Frequencies --    371.1524               393.2698               505.1042
 Red. masses --      3.0459                 2.2667                 2.6613
 Frc consts  --      0.2472                 0.2065                 0.4000
 IR Inten    --      3.4929                 2.9999                 0.5771

                     10                     11                     12
                      A                      A                      A
 Frequencies --    530.6732               653.6026               727.8094
 Red. masses --      4.4541                 3.2119                 2.9666
 Frc consts  --      0.7390                 0.8084                 0.9258
 IR Inten    --      7.6052                 0.9339                 3.1385

                     13                     14                     15
                      A                      A                      A
 Frequencies --    811.7390               835.6140               864.4421
 Red. masses --      2.2783                 2.8087                 1.8538
 Frc consts  --      0.8845                 1.1555                 0.8162
 IR Inten    --     13.8497                22.9627                 8.9239

                     16                     17                     18
                      A                      A                      A
 Frequencies --    913.1943               919.1408               929.5782
 Red. masses --      2.6445                 2.2358                 1.9332
 Frc consts  --      1.2993                 1.1129                 0.9843
 IR Inten    --      5.3149                10.5485                14.8863

                     19                     20                     21
                      A                      A                      A
 Frequencies --    956.2368               994.1857              1004.4359
 Red. masses --      2.2224                 2.0787                 6.3109
 Frc consts  --      1.1973                 1.2105                 3.7513
 IR Inten    --     12.5159                18.0115                62.1889

                     22                     23                     24
                      A                      A                      A
 Frequencies --   1054.6266              1103.1377              1120.6356
 Red. masses --      1.8287                 1.7341                 1.5680
 Frc consts  --      1.1984                 1.2433                 1.1601
 IR Inten    --      2.5890                 2.5228                 8.4615

                     25                     26                     27
                      A                      A                      A
 Frequencies --   1128.9634              1149.9206              1162.6804
 Red. masses --      1.4574                 2.0958                 1.3704
 Frc consts  --      1.0944                 1.6328                 1.0915
 IR Inten    --      6.1745                 2.5386                 3.7657

                     28                     29                     30
                      A                      A                      A
 Frequencies --   1173.7318              1182.8720              1215.0810
 Red. masses --      1.3996                 1.7130                 1.6187
 Frc consts  --      1.1360                 1.4121                 1.4081
 IR Inten    --      7.7757                 7.5043                 7.8110

                     31                     32                     33
                      A                      A                      A
 Frequencies --   1225.6637              1274.6116              1325.7305
 Red. masses --      2.5002                 1.9800                 2.2594
 Frc consts  --      2.2130                 1.8953                 2.3397
 IR Inten    --     21.8419                18.6792                13.5590

                     34                     35                     36
                      A                      A                      A
 Frequencies --   1348.3445              1410.3878              1430.5901
 Red. masses --      1.5338                 1.4043                 1.8257
 Frc consts  --      1.6429                 1.6458                 2.2015
 IR Inten    --      8.7549                13.5987                17.8649

                     37                     38                     39
                      A                      A                      A
 Frequencies --   1459.5239              1480.2652              1489.7726
 Red. masses --      1.2835                 1.0528                 1.0516
 Frc consts  --      1.6110                 1.3592                 1.3752
 IR Inten    --      4.3515                 2.1061                 2.8479

                     40                     41                     42
                      A                      A                      A
 Frequencies --   1521.5274              1535.1440              3020.2765
 Red. masses --      1.1153                 1.5366                 1.0572
 Frc consts  --      1.5212                 2.1336                 5.6819
 IR Inten    --      0.4800                 5.8512                73.8972

                     43                     44                     45
                      A                      A                      A
 Frequencies --   3032.6066              3056.5522              3070.5023
 Red. masses --      1.0356                 1.0603                 1.1083
 Frc consts  --      5.6113                 5.8365                 6.1561
 IR Inten    --     14.9578                19.3774                25.9301

                     46                     47                     48
                      A                      A                      A
 Frequencies --   3075.5038              3100.8773              3112.9572
 Red. masses --      1.0508                 1.1002                 1.0907
 Frc consts  --      5.8558                 6.2329                 6.2273
 IR Inten    --     26.8642                13.3716                29.3924

                     49                     50                     51
                      A                      A                      A
 Frequencies --   3113.7286              3123.0453              3161.7934
 Red. masses --      1.1011                 1.1056                 1.1194
 Frc consts  --      6.2899                 6.3534                 6.5933
 IR Inten    --     14.0831                10.6304                22.7588

 - Thermochemistry -
 -------------------
 Temperature   298.150 Kelvin.  Pressure   1.00000 Atm.
 Atom     1 has atomic number  6 and mass  12.00000

 Molecular mass:   126.06808 amu.
 Principal axes and moments of inertia in atomic units:
                           1         2         3
     Eigenvalues --   569.478851286.075331526.42632
           X            0.99995  -0.00922   0.00319
           Y            0.00912   0.99949   0.03058
           Z           -0.00347  -0.03055   0.99953
 This molecule is an asymmetric top.
 Rotational symmetry number  1.
 Warning -- assumption of classical behavior for rotation
           may cause significant error
 Rotational temperatures (Kelvin)      0.15209     0.06735     0.05674
 Rotational constants (GHZ):           3.16911     1.40329     1.18233
 Zero-point vibrational energy     414986.5 (Joules/Mol)
                                   99.18416 (Kcal/Mol)
 Warning -- explicit consideration of  10 degrees of freedom as
           vibrations may cause significant error
 Vibrational temperatures:     95.42   285.75   307.62   341.58   399.67
          (Kelvin)            453.45   534.00   565.83   726.73   763.52
                              940.39  1047.15  1167.91  1202.26  1243.74
                             1313.88  1322.44  1337.45  1375.81  1430.41
                             1445.16  1517.37  1587.17  1612.34  1624.32
                             1654.48  1672.84  1688.74  1701.89  1748.23
                             1763.45  1833.88  1907.43  1939.96  2029.23
                             2058.30  2099.93  2129.77  2143.45  2189.14
                             2208.73  4345.50  4363.24  4397.69  4417.76
                             4424.96  4461.47  4478.85  4479.96  4493.36
                             4549.11

 Zero-point correction=                           0.158060 (Hartree/Particle)
 Thermal correction to Energy=                    0.166213
 Thermal correction to Enthalpy=                  0.167157
 Thermal correction to Gibbs Free Energy=         0.125403
 Sum of electronic and zero-point Energies=           -422.975217
 Sum of electronic and thermal Energies=              -422.967064
 Sum of electronic and thermal Enthalpies=            -422.966120
 Sum of electronic and thermal Free Energies=         -423.007874

                     E (Thermal)             CV                S
                      KCal/Mol        Cal/Mol-Kelvin    Cal/Mol-Kelvin
 Total                  104.300             31.660             87.878
 Electronic               0.000              0.000              0.000
 Translational            0.889              2.981             40.409
 Rotational               0.889              2.981             28.504
 Vibrational            102.523             25.699             18.965
 Vibration     1          0.598              1.970              4.260
 Vibration     2          0.637              1.842              2.146
 Vibration     3          0.644              1.820              2.011
 Vibration     4          0.656              1.783              1.822
 Vibration     5          0.679              1.715              1.547
 Vibration     6          0.703              1.645              1.335
 Vibration     7          0.743              1.531              1.075
 Vibration     8          0.760              1.485              0.988
 Vibration     9          0.860              1.239              0.645
 Vibration    10          0.886              1.182              0.586

 Optimization completed.
    -- Stationary point found.
 Normal termination of Gaussian 09 at Mon Jan 27 19:49:53 2020.
