 Gaussian 09, Revision D.01,
 Gaussian 09:  ES64L-G09RevD.01 24-Apr-2013

 -----------------------------
 # b3lyp 6-31G(2df,p) opt Freq
 -----------------------------

 -----
 titel
 -----
 Symbolic Z-matrix:
 Charge =  0 Multiplicity = 1

 SCF Done:  E(RB3LYP) =  -423.189457104     A.U. after   13 cycles
 Optimization completed.
    -- Stationary point found.
 Normal termination of Gaussian 09 at Mon Jan 27 18:16:30 2020.

 ----------------------------------------------------------------------
 #N Geom=AllCheck Guess=TCheck SCRF=Check GenChk RB3LYP/6-31G(2df,p) Fr
 eq
 ----------------------------------------------------------------------

 Structure from the checkpoint file:  "/scratch/puck/g09_8708257c-6771-4e0f-bb28-2f4dbf6a502f/Gau-181935.chk"
 -----
 titel
 -----
 Charge =  0 Multiplicity = 1

                         Standard orientation:
 ---------------------------------------------------------------------
 Center     Atomic      Atomic             Coordinates (Angstroms)
 Number     Number       Type             X           Y           Z
 ---------------------------------------------------------------------
      1          6           0        2.332991   -0.008382    0.488406
      2          6           0        0.898640    0.083853    0.044418
      3          6           0        0.351790    1.337595   -0.671157
      4          6           0       -1.097711    0.802774   -0.640990
      5          6           0       -1.321982    0.856552    0.889672
      6          6           0       -0.285316   -0.253779    1.125664
      7          8           0       -0.979972   -1.324822    0.467286
      8          6           0       -0.816078   -0.783087   -0.832790
      9          8           0        0.584794   -0.869406   -0.994774
     10          1           0        2.548773   -1.001566    0.892822
     11          1           0        3.010017    0.173448   -0.351974
     12          1           0        2.542918    0.735156    1.263502
     13          1           0        0.459887    2.282927   -0.134386
     14          1           0        0.801820    1.422814   -1.661349
     15          1           0       -1.840588    1.247755   -1.299602
     16          1           0       -1.088763    1.836296    1.311794
     17          1           0       -2.303911    0.530041    1.234284
     18          1           0        0.015041   -0.537514    2.132413
     19          1           0       -1.357774   -1.348679   -1.586934
 ---------------------------------------------------------------------

 SCF Done:  E(RB3LYP) =  -423.189457104     A.U. after    1 cycles

 The electronic state is 1-A.
 Alpha  occ. eigenvalues --  -19.13825 -19.13703 -10.27347 -10.24094 -10.23446
 Alpha  occ. eigenvalues --  -10.19529 -10.18309 -10.18172 -10.18151  -1.09721
 Alpha  occ. eigenvalues --   -0.99164  -0.82984  -0.76051  -0.70679  -0.67352
 Alpha  occ. eigenvalues --   -0.60258  -0.57484  -0.56166  -0.51357  -0.50516
 Alpha  occ. eigenvalues --   -0.44563  -0.44371  -0.43148  -0.40642  -0.40412
 Alpha  occ. eigenvalues --   -0.37507  -0.37191  -0.35868  -0.34580  -0.32929
 Alpha  occ. eigenvalues --   -0.32223  -0.30208  -0.26775  -0.25191
 Alpha virt. eigenvalues --    0.09446   0.10296   0.11332   0.12457   0.12889
 Alpha virt. eigenvalues --    0.14804   0.14914   0.15234   0.16124   0.16908
 Alpha virt. eigenvalues --    0.17199   0.18640   0.20669   0.21570   0.22196

 Mulliken charges:
               1
     1  C   -0.505292
     2  C    0.382368
     3  C   -0.236499
     4  C   -0.113679
     5  C   -0.209341
     6  C   -0.000291
     7  O   -0.244934
     8  C    0.171183
     9  O   -0.272360
    10  H    0.134229
    11  H    0.130084
    12  H    0.119508
    13  H    0.092967
    14  H    0.103851
    15  H    0.071682
    16  H    0.094942
    17  H    0.107353
    18  H    0.080393
    19  H    0.093833
 Sum of Mulliken charges =   0.00000

 Dipole moment (field-independent basis, Debye):
    X=              0.0766    Y=              2.0658    Z=              0.4637  Tot=              2.1186
 Quadrupole moment (field-independent basis, Debye-Ang):
   XX=            -51.8362   YY=            -55.7153   ZZ=            -51.5279
   XY=             -0.0824   XZ=              3.0865   YZ=              0.4747

  Exact polarizability:  78.306   0.383  69.116   1.605   0.570  71.058
 Approx polarizability: 108.415   2.597 106.937   0.685   2.617 109.271

                      1                      2                      3
                      A                      A                      A
 Frequencies --    208.0914               250.4360               268.5373
 Red. masses --      1.0331                 2.6669                 2.5559
 Frc consts  --      0.0264                 0.0985                 0.1086
 IR Inten    --      0.0176                 1.1781                 0.6056

                      4                      5                      6
                      A                      A                      A
 Frequencies --    410.9934               534.5434               547.3548
 Red. masses --      2.4932                 2.8383                 2.3927
 Frc consts  --      0.2481                 0.4778                 0.4223
 IR Inten    --      0.7503                 0.4659                 0.5414

                      7                      8                      9
                      A                      A                      A
 Frequencies --    591.2540               618.8821               641.2663
 Red. masses --      3.9677                 5.3731                 3.6669
 Frc consts  --      0.8172                 1.2125                 0.8884
 IR Inten    --      3.4971                 4.2270                 1.1967

                     10                     11                     12
                      A                      A                      A
 Frequencies --    698.9043               760.0855               832.2561
 Red. masses --      6.9371                 3.3003                 4.3360
 Frc consts  --      1.9965                 1.1234                 1.7695
 IR Inten    --      4.9810                11.7108                 0.8785

                     13                     14                     15
                      A                      A                      A
 Frequencies --    851.6491               868.5288               898.5866
 Red. masses --      4.4403                 2.6423                 2.0665
 Frc consts  --      1.8975                 1.1744                 0.9831
 IR Inten    --     10.0224                19.9470                 5.1830

                     16                     17                     18
                      A                      A                      A
 Frequencies --    921.3782               931.8663               939.1988
 Red. masses --      2.8463                 2.4111                 3.2766
 Frc consts  --      1.4237                 1.2336                 1.7029
 IR Inten    --     38.4645                16.0637                46.5958

                     19                     20                     21
                      A                      A                      A
 Frequencies --    955.8410               964.6862              1002.8202
 Red. masses --      2.1038                 1.6744                 2.3107
 Frc consts  --      1.1325                 0.9181                 1.3691
 IR Inten    --     10.4536                 1.8816                19.2955

                     22                     23                     24
                      A                      A                      A
 Frequencies --   1032.0483              1053.4925              1084.7699
 Red. masses --      1.6065                 2.1799                 1.2708
 Frc consts  --      1.0082                 1.4255                 0.8810
 IR Inten    --     20.5776                34.4905                 9.9447

                     25                     26                     27
                      A                      A                      A
 Frequencies --   1128.8404              1161.4232              1174.2742
 Red. masses --      1.8266                 2.2485                 1.5650
 Frc consts  --      1.3714                 1.7870                 1.2715
 IR Inten    --     13.7399                12.9171                 5.6514

                     28                     29                     30
                      A                      A                      A
 Frequencies --   1182.4027              1225.9889              1246.5515
 Red. masses --      1.7961                 1.4620                 1.3267
 Frc consts  --      1.4795                 1.2947                 1.2146
 IR Inten    --      0.6268                 4.8236                 0.1124

                     31                     32                     33
                      A                      A                      A
 Frequencies --   1254.3838              1271.0640              1287.2123
 Red. masses --      1.7255                 1.6244                 1.5079
 Frc consts  --      1.5997                 1.5463                 1.4720
 IR Inten    --     10.1879                 1.7784                 7.9422

                     34                     35                     36
                      A                      A                      A
 Frequencies --   1306.1584              1339.8884              1349.4978
 Red. masses --      1.5327                 1.5195                 2.2610
 Frc consts  --      1.5406                 1.6073                 2.4260
 IR Inten    --      9.1613                10.1892                10.7059

                     37                     38                     39
                      A                      A                      A
 Frequencies --   1417.9886              1482.3200              1482.6490
 Red. masses --      1.4717                 1.0790                 1.0775
 Frc consts  --      1.7435                 1.3968                 1.3955
 IR Inten    --      8.1318                 0.5263                 3.7116

                     40                     41                     42
                      A                      A                      A
 Frequencies --   1495.8773              1514.8564              3040.2989
 Red. masses --      1.0483                 1.1030                 1.0352
 Frc consts  --      1.3821                 1.4914                 5.6377
 IR Inten    --      3.3214                 4.6664                17.3654

                     43                     44                     45
                      A                      A                      A
 Frequencies --   3068.7621              3079.1453              3111.0895
 Red. masses --      1.0599                 1.0586                 1.1013
 Frc consts  --      5.8811                 5.9134                 6.2803
 IR Inten    --     17.7424                29.8522                10.9149

                     46                     47                     48
                      A                      A                      A
 Frequencies --   3115.9816              3126.9440              3134.1113
 Red. masses --      1.1017                 1.1060                 1.1062
 Frc consts  --      6.3023                 6.3713                 6.4019
 IR Inten    --     13.0569                26.2974                24.0698

                     49                     50                     51
                      A                      A                      A
 Frequencies --   3141.7251              3145.6284              3164.8144
 Red. masses --      1.0919                 1.0913                 1.0931
 Frc consts  --      6.3498                 6.3625                 6.4506
 IR Inten    --     31.0296                22.7436                30.6611

 - Thermochemistry -
 -------------------
 Temperature   298.150 Kelvin.  Pressure   1.00000 Atm.
 Atom     1 has atomic number  6 and mass  12.00000

 Molecular mass:   126.06808 amu.
 Principal axes and moments of inertia in atomic units:
                           1         2         3
     Eigenvalues --   661.51099 926.81461 996.59565
           X            0.99915  -0.02007   0.03593
           Y            0.02052   0.99972  -0.01217
           Z           -0.03568   0.01290   0.99928
 This molecule is an asymmetric top.
 Rotational symmetry number  1.
 Warning -- assumption of classical behavior for rotation
           may cause significant error
 Rotational temperatures (Kelvin)      0.13093     0.09345     0.08691
 Rotational constants (GHZ):           2.72821     1.94725     1.81091
 Zero-point vibrational energy     426572.5 (Joules/Mol)
                                  101.95327 (Kcal/Mol)
 Warning -- explicit consideration of   8 degrees of freedom as
           vibrations may cause significant error
 Vibrational temperatures:    299.40   360.32   386.36   591.33   769.09
          (Kelvin)            787.52   850.68   890.43   922.64  1005.57
                             1093.59  1197.43  1225.33  1249.62  1292.86
                             1325.66  1340.75  1351.30  1375.24  1387.97
                             1442.83  1484.89  1515.74  1560.74  1624.15
                             1671.03  1689.52  1701.21  1763.92  1793.51
                             1804.78  1828.78  1852.01  1879.27  1927.80
                             1941.62  2040.17  2132.73  2133.20  2152.23
                             2179.54  4374.31  4415.26  4430.20  4476.16
                             4483.20  4498.97  4509.28  4520.24  4525.85
                             4553.46

 Zero-point correction=                           0.162473 (Hartree/Particle)
 Thermal correction to Energy=                    0.168954
 Thermal correction to Enthalpy=                  0.169898
 Thermal correction to Gibbs Free Energy=         0.132066
 Sum of electronic and zero-point Energies=           -423.026984
 Sum of electronic and thermal Energies=              -423.020503
 Sum of electronic and thermal Enthalpies=            -423.019559
 Sum of electronic and thermal Free Energies=         -423.057391

                     E (Thermal)             CV                S
                      KCal/Mol        Cal/Mol-Kelvin    Cal/Mol-Kelvin
 Total                  106.020             27.946             79.625
 Electronic               0.000              0.000              0.000
 Translational            0.889              2.981             40.409
 Rotational               0.889              2.981             27.904
 Vibrational            104.243             21.985             11.312
 Vibration     1          0.641              1.828              2.060
 Vibration     2          0.663              1.762              1.728
 Vibration     3          0.673              1.731              1.606
 Vibration     4          0.775              1.446              0.923
 Vibration     5          0.890              1.174              0.577
 Vibration     6          0.903              1.145              0.550
 Vibration     7          0.949              1.050              0.465
 Vibration     8          0.979              0.992              0.418

 Optimization completed.
    -- Stationary point found.
 Normal termination of Gaussian 09 at Mon Jan 27 19:04:42 2020.
