 Gaussian 09, Revision D.01,
 Gaussian 09:  ES64L-G09RevD.01 24-Apr-2013

 -----------------------------
 # b3lyp 6-31G(2df,p) opt Freq
 -----------------------------

 -----
 titel
 -----
 Symbolic Z-matrix:
 Charge =  0 Multiplicity = 1

 SCF Done:  E(RB3LYP) =  -423.154945300     A.U. after   14 cycles
 Optimization completed.
    -- Stationary point found.
 Normal termination of Gaussian 09 at Mon Jan 27 22:58:21 2020.

 ----------------------------------------------------------------------
 #N Geom=AllCheck Guess=TCheck SCRF=Check GenChk RB3LYP/6-31G(2df,p) Fr
 eq
 ----------------------------------------------------------------------

 Structure from the checkpoint file:  "/scratch/puck/g09_ec986c63-e1aa-4c0b-88db-f1b207b03c9d/Gau-65327.chk"
 -----
 titel
 -----
 Charge =  0 Multiplicity = 1

                         Standard orientation:
 ---------------------------------------------------------------------
 Center     Atomic      Atomic             Coordinates (Angstroms)
 Number     Number       Type             X           Y           Z
 ---------------------------------------------------------------------
      1          6           0       -2.602969    0.318086   -0.370769
      2          6           0       -1.265934   -0.276500   -0.101914
      3          6           0       -0.804525   -1.533776   -0.119847
      4          6           0        0.685998   -1.380458    0.195277
      5          6           0        0.645602   -0.336024    1.360998
      6          6           0        0.005393    0.529733    0.223529
      7          8           0       -0.022422    1.925588    0.218264
      8          6           0        1.013658   -0.170534   -0.751702
      9          8           0        2.338052    0.287525   -0.665256
     10          1           0       -2.993324    0.850747    0.506545
     11          1           0       -2.550301    1.057000   -1.179414
     12          1           0       -3.331588   -0.448201   -0.649514
     13          1           0       -1.325072   -2.454901   -0.344089
     14          1           0        1.321496   -2.262299    0.229798
     15          1           0        0.019167   -0.574454    2.223769
     16          1           0        1.636173    0.015923    1.653269
     17          1           0       -0.353719    2.234003    1.067792
     18          1           0        0.679356   -0.273661   -1.792516
     19          1           0        2.309440    1.247775   -0.753144
 ---------------------------------------------------------------------

 SCF Done:  E(RB3LYP) =  -423.154945300     A.U. after    1 cycles

 The electronic state is 1-A.
 Alpha  occ. eigenvalues --  -19.15094 -19.13355 -10.23763 -10.22745 -10.19127
 Alpha  occ. eigenvalues --  -10.18382 -10.18121 -10.17813 -10.17181  -1.03864
 Alpha  occ. eigenvalues --   -1.01527  -0.88347  -0.75613  -0.68510  -0.65529
 Alpha  occ. eigenvalues --   -0.64597  -0.55536  -0.53821  -0.50702  -0.48851
 Alpha  occ. eigenvalues --   -0.46419  -0.43889  -0.41921  -0.41149  -0.39985
 Alpha  occ. eigenvalues --   -0.38044  -0.36506  -0.34655  -0.34115  -0.33036
 Alpha  occ. eigenvalues --   -0.30442  -0.27069  -0.25684  -0.21958
 Alpha virt. eigenvalues --    0.01947   0.06199   0.10535   0.12427   0.13015
 Alpha virt. eigenvalues --    0.14331   0.14980   0.15487   0.16021   0.17456
 Alpha virt. eigenvalues --    0.18339   0.19392   0.20285   0.22573   0.23020

 Mulliken charges:
               1
     1  C   -0.516238
     2  C    0.275029
     3  C   -0.209481
     4  C   -0.100798
     5  C   -0.286857
     6  C    0.258380
     7  O   -0.494403
     8  C    0.148240
     9  O   -0.456607
    10  H    0.118362
    11  H    0.136389
    12  H    0.126383
    13  H    0.097172
    14  H    0.072507
    15  H    0.084498
    16  H    0.108672
    17  H    0.285359
    18  H    0.063246
    19  H    0.290146
 Sum of Mulliken charges =   0.00000

 Dipole moment (field-independent basis, Debye):
    X=             -1.5644    Y=              0.6999    Z=              0.9942  Tot=              1.9813
 Quadrupole moment (field-independent basis, Debye-Ang):
   XX=            -55.3208   YY=            -50.2595   ZZ=            -51.7015
   XY=              1.0410   XZ=              0.1962   YZ=              2.3000

  Exact polarizability:  84.109  -2.279  80.329   2.062   1.153  64.678
 Approx polarizability: 115.431  -6.447 130.396   0.801   1.676  98.139

                      1                      2                      3
                      A                      A                      A
 Frequencies --    143.2397               154.1692               159.8816
 Red. masses --      1.9008                 1.7147                 1.4158
 Frc consts  --      0.0230                 0.0240                 0.0213
 IR Inten    --      2.4214                34.8351                11.1411

                      4                      5                      6
                      A                      A                      A
 Frequencies --    201.1760               225.3842               303.6192
 Red. masses --      1.1834                 3.4272                 1.6555
 Frc consts  --      0.0282                 0.1026                 0.0899
 IR Inten    --     76.2720                 3.7435                63.5949

                      7                      8                      9
                      A                      A                      A
 Frequencies --    320.0080               396.5731               455.1062
 Red. masses --      3.2434                 3.2459                 3.6563
 Frc consts  --      0.1957                 0.3008                 0.4462
 IR Inten    --      4.7037                18.5198                 2.2836

                     10                     11                     12
                      A                      A                      A
 Frequencies --    482.6485               531.9747               580.1957
 Red. masses --      2.2023                 4.2279                 2.9224
 Frc consts  --      0.3023                 0.7049                 0.5796
 IR Inten    --      0.5016                 4.0541                 7.7010

                     13                     14                     15
                      A                      A                      A
 Frequencies --    624.4904               669.9825               784.3439
 Red. masses --      3.7343                 4.4943                 1.4668
 Frc consts  --      0.8581                 1.1886                 0.5316
 IR Inten    --      0.0528                 7.7795                20.5154

                     16                     17                     18
                      A                      A                      A
 Frequencies --    811.3080               860.8242               889.9557
 Red. masses --      2.8617                 2.6742                 3.4480
 Frc consts  --      1.1098                 1.1676                 1.6090
 IR Inten    --      9.1747                 7.1969                12.5533

                     19                     20                     21
                      A                      A                      A
 Frequencies --    935.6932               957.9943               971.3976
 Red. masses --      2.0277                 2.3796                 2.4480
 Frc consts  --      1.0460                 1.2867                 1.3610
 IR Inten    --      0.0932                 5.6023                 1.2317

                     22                     23                     24
                      A                      A                      A
 Frequencies --   1008.6699              1049.9813              1063.3735
 Red. masses --      1.6037                 1.6597                 1.5065
 Frc consts  --      0.9613                 1.0780                 1.0037
 IR Inten    --     14.0829                 8.8072                 2.5067

                     25                     26                     27
                      A                      A                      A
 Frequencies --   1090.3741              1128.3335              1148.4770
 Red. masses --      1.6560                 2.1051                 1.5343
 Frc consts  --      1.1600                 1.5791                 1.1923
 IR Inten    --     19.6684               132.0413                 8.4982

                     28                     29                     30
                      A                      A                      A
 Frequencies --   1170.7300              1204.5783              1234.9852
 Red. masses --      1.9365                 1.5546                 1.8305
 Frc consts  --      1.5638                 1.3291                 1.6449
 IR Inten    --     24.9922                23.2668                15.6814

                     31                     32                     33
                      A                      A                      A
 Frequencies --   1247.7425              1258.9315              1294.6979
 Red. masses --      1.4663                 2.6215                 1.9535
 Frc consts  --      1.3450                 2.4480                 1.9293
 IR Inten    --      8.3252                79.7706                45.2473

                     34                     35                     36
                      A                      A                      A
 Frequencies --   1334.9137              1357.0511              1384.4260
 Red. masses --      1.3315                 2.2710                 1.3750
 Frc consts  --      1.3980                 2.4641                 1.5527
 IR Inten    --     34.1839                36.3069                 0.5465

                     37                     38                     39
                      A                      A                      A
 Frequencies --   1412.7737              1476.0719              1481.8992
 Red. masses --      1.2686                 1.0461                 1.1557
 Frc consts  --      1.4918                 1.3429                 1.4954
 IR Inten    --      0.4119                 6.8307                 6.7287

                     40                     41                     42
                      A                      A                      A
 Frequencies --   1484.8757              1690.0136              3015.4338
 Red. masses --      1.0642                 7.2861                 1.0402
 Frc consts  --      1.3824                12.2611                 5.5726
 IR Inten    --     10.0496                 1.8713                32.7514

                     43                     44                     45
                      A                      A                      A
 Frequencies --   3019.5590              3062.6615              3066.4298
 Red. masses --      1.0858                 1.0951                 1.0563
 Frc consts  --      5.8328                 6.0519                 5.8521
 IR Inten    --     65.6555                14.8918                35.8352

                     46                     47                     48
                      A                      A                      A
 Frequencies --   3109.9240              3141.7655              3146.4243
 Red. masses --      1.0996                 1.1086                 1.0915
 Frc consts  --      6.2657                 6.4473                 6.3668
 IR Inten    --     17.4150                20.1972                30.9565

                     49                     50                     51
                      A                      A                      A
 Frequencies --   3219.5825              3788.8937              3817.2630
 Red. masses --      1.0975                 1.0657                 1.0661
 Frc consts  --      6.7028                 9.0143                 9.1528
 IR Inten    --     10.4780                33.0982                29.5610

 - Thermochemistry -
 -------------------
 Temperature   298.150 Kelvin.  Pressure   1.00000 Atm.
 Atom     1 has atomic number  6 and mass  12.00000

 Molecular mass:   126.06808 amu.
 Principal axes and moments of inertia in atomic units:
                           1         2         3
     Eigenvalues --   692.559311115.415371417.08832
           X            0.99974  -0.01308   0.01848
           Y            0.01298   0.99990   0.00532
           Z           -0.01854  -0.00508   0.99982
 This molecule is an asymmetric top.
 Rotational symmetry number  1.
 Warning -- assumption of classical behavior for rotation
           may cause significant error
 Rotational temperatures (Kelvin)      0.12506     0.07765     0.06112
 Rotational constants (GHZ):           2.60590     1.61800     1.27356
 Zero-point vibrational energy     414929.5 (Joules/Mol)
                                   99.17054 (Kcal/Mol)
 Warning -- explicit consideration of  12 degrees of freedom as
           vibrations may cause significant error
 Vibrational temperatures:    206.09   221.81   230.03   289.45   324.28
          (Kelvin)            436.84   460.42   570.58   654.80   694.42
                              765.39   834.77   898.50   963.95  1128.49
                             1167.29  1238.53  1280.45  1346.25  1378.34
                             1397.62  1451.25  1510.69  1529.96  1568.80
                             1623.42  1652.40  1684.42  1733.12  1776.87
                             1795.22  1811.32  1862.78  1920.64  1952.49
                             1991.88  2032.66  2123.74  2132.12  2136.40
                             2431.55  4338.53  4344.47  4406.48  4411.90
                             4474.48  4520.29  4527.00  4632.26  5451.37
                             5492.18

 Zero-point correction=                           0.158038 (Hartree/Particle)
 Thermal correction to Energy=                    0.166847
 Thermal correction to Enthalpy=                  0.167792
 Thermal correction to Gibbs Free Energy=         0.125189
 Sum of electronic and zero-point Energies=           -422.996907
 Sum of electronic and thermal Energies=              -422.988098
 Sum of electronic and thermal Enthalpies=            -422.987154
 Sum of electronic and thermal Free Energies=         -423.029756

                     E (Thermal)             CV                S
                      KCal/Mol        Cal/Mol-Kelvin    Cal/Mol-Kelvin
 Total                  104.698             34.152             89.665
 Electronic               0.000              0.000              0.000
 Translational            0.889              2.981             40.409
 Rotational               0.889              2.981             28.484
 Vibrational            102.921             28.191             20.773
 Vibration     1          0.616              1.910              2.760
 Vibration     2          0.620              1.898              2.620
 Vibration     3          0.622              1.891              2.551
 Vibration     4          0.638              1.838              2.122
 Vibration     5          0.650              1.802              1.915
 Vibration     6          0.695              1.667              1.397
 Vibration     7          0.706              1.635              1.310
 Vibration     8          0.763              1.477              0.975
 Vibration     9          0.813              1.350              0.780
 Vibration    10          0.839              1.289              0.703
 Vibration    11          0.887              1.179              0.583
 Vibration    12          0.937              1.074              0.485

 Optimization completed.
    -- Stationary point found.
 Normal termination of Gaussian 09 at Mon Jan 27 23:43:22 2020.
