 Gaussian 09, Revision D.01,
 Gaussian 09:  ES64L-G09RevD.01 24-Apr-2013

 -----------------------------
 # b3lyp 6-31G(2df,p) opt Freq
 -----------------------------

 -----
 titel
 -----
 Symbolic Z-matrix:
 Charge =  0 Multiplicity = 1

 SCF Done:  E(RB3LYP) =  -423.036279861     A.U. after   13 cycles
 Optimization completed.
    -- Stationary point found.
 Normal termination of Gaussian 09 at Mon Jan 27 22:04:10 2020.

 ----------------------------------------------------------------------
 #N Geom=AllCheck Guess=TCheck SCRF=Check GenChk RB3LYP/6-31G(2df,p) Fr
 eq
 ----------------------------------------------------------------------

 Structure from the checkpoint file:  "/scratch/puck/g09_c90ee451-70d8-4cfb-a5ca-0955494649cd/Gau-189472.chk"
 -----
 titel
 -----
 Charge =  0 Multiplicity = 1

                         Standard orientation:
 ---------------------------------------------------------------------
 Center     Atomic      Atomic             Coordinates (Angstroms)
 Number     Number       Type             X           Y           Z
 ---------------------------------------------------------------------
      1          6           0       -2.317981   -1.349922    0.027286
      2          6           0       -1.085373   -0.540730    0.394406
      3          6           0       -0.808942    0.801678   -0.467299
      4          8           0       -1.291058    2.040731   -0.055834
      5          6           0        0.665564    0.398986   -0.313416
      6          6           0        1.416376    0.425396    1.059733
      7          6           0        1.797094   -0.827288    0.277506
      8          8           0        1.968672    0.041742   -0.958982
      9          6           0        0.303056   -1.059787   -0.135025
     10          1           0       -3.229314   -0.771000    0.212077
     11          1           0       -2.307712   -1.629107   -1.031645
     12          1           0       -2.375140   -2.270810    0.616892
     13          1           0       -1.097339   -0.294314    1.458849
     14          1           0       -1.163056    0.642942   -1.490245
     15          1           0       -0.926932    2.231457    0.815788
     16          1           0        2.200420    1.178547    1.131478
     17          1           0        0.849554    0.308547    1.985409
     18          1           0        2.606227   -1.544215    0.438015
     19          1           0        0.203622   -1.601832   -1.077230
 ---------------------------------------------------------------------

 SCF Done:  E(RB3LYP) =  -423.036279861     A.U. after    1 cycles

 The electronic state is 1-A.
 Alpha  occ. eigenvalues --  -19.15290 -19.13353 -10.26121 -10.25312 -10.24710
 Alpha  occ. eigenvalues --  -10.21071 -10.19613 -10.18550 -10.18388  -1.04948
 Alpha  occ. eigenvalues --   -1.03554  -0.85167  -0.76298  -0.71476  -0.66982
 Alpha  occ. eigenvalues --   -0.61722  -0.59988  -0.53504  -0.52946  -0.47854
 Alpha  occ. eigenvalues --   -0.45607  -0.44144  -0.43600  -0.40610  -0.39612
 Alpha  occ. eigenvalues --   -0.38075  -0.37717  -0.36277  -0.34819  -0.33887
 Alpha  occ. eigenvalues --   -0.31472  -0.27068  -0.25756  -0.22935
 Alpha virt. eigenvalues --    0.05653   0.06597   0.08891   0.09664   0.10532
 Alpha virt. eigenvalues --    0.11143   0.12766   0.13900   0.15001   0.15853
 Alpha virt. eigenvalues --    0.16431   0.17359   0.18210   0.19355   0.20631

 Mulliken charges:
               1
     1  C   -0.419421
     2  C   -0.076066
     3  C    0.028290
     4  O   -0.418101
     5  C    0.329399
     6  C   -0.278819
     7  C    0.007447
     8  O   -0.378507
     9  C   -0.040234
    10  H    0.125857
    11  H    0.120450
    12  H    0.122642
    13  H    0.081385
    14  H    0.116370
    15  H    0.287238
    16  H    0.112520
    17  H    0.097802
    18  H    0.092784
    19  H    0.088965
 Sum of Mulliken charges =   0.00000

 Dipole moment (field-independent basis, Debye):
    X=             -0.9600    Y=             -0.8664    Z=              2.2952  Tot=              2.6344
 Quadrupole moment (field-independent basis, Debye-Ang):
   XX=            -56.8417   YY=            -54.1891   ZZ=            -52.3988
   XY=              1.1907   XZ=              3.1285   YZ=              3.1877

  Exact polarizability:  89.299  -0.076  73.141   2.233   3.395  66.947
 Approx polarizability: 125.043  -4.100 111.400  -1.691   2.588 109.591

                      1                      2                      3
                      A                      A                      A
 Frequencies --    140.4467               201.2268               222.5035
 Red. masses --      3.5658                 1.6159                 2.6727
 Frc consts  --      0.0414                 0.0386                 0.0780
 IR Inten    --      0.9077                 0.6345                 2.4768

                      4                      5                      6
                      A                      A                      A
 Frequencies --    233.4720               258.3781               346.6685
 Red. masses --      1.8502                 2.5644                 1.4683
 Frc consts  --      0.0594                 0.1009                 0.1040
 IR Inten    --      2.5150                 6.9846                47.3594

                      7                      8                      9
                      A                      A                      A
 Frequencies --    394.1238               431.4662               495.5646
 Red. masses --      2.6170                 3.7985                 2.9753
 Frc consts  --      0.2395                 0.4166                 0.4305
 IR Inten    --     23.6861                16.6289                 1.0597

                     10                     11                     12
                      A                      A                      A
 Frequencies --    578.3251               582.6219               646.2149
 Red. masses --      3.4995                 3.9856                 3.8344
 Frc consts  --      0.6896                 0.7971                 0.9434
 IR Inten    --      2.2442                18.0109                 9.1076

                     13                     14                     15
                      A                      A                      A
 Frequencies --    691.2621               774.4855               824.7435
 Red. masses --      3.2429                 3.2592                 3.0557
 Frc consts  --      0.9130                 1.1518                 1.2246
 IR Inten    --     15.2704                 4.8412                19.0033

                     16                     17                     18
                      A                      A                      A
 Frequencies --    844.7131               918.1922               938.5535
 Red. masses --      4.0053                 3.1943                 2.0762
 Frc consts  --      1.6839                 1.5867                 1.0776
 IR Inten    --     11.1821                 9.2038                13.4597

                     19                     20                     21
                      A                      A                      A
 Frequencies --    965.1270               990.9518              1024.7506
 Red. masses --      3.2157                 1.8347                 1.3117
 Frc consts  --      1.7648                 1.0615                 0.8115
 IR Inten    --      6.0623                 8.1309                 2.5622

                     22                     23                     24
                      A                      A                      A
 Frequencies --   1050.1677              1067.9184              1087.1634
 Red. masses --      1.4877                 1.4276                 1.8771
 Frc consts  --      0.9667                 0.9593                 1.3072
 IR Inten    --      5.3340                 5.3531                11.3674

                     25                     26                     27
                      A                      A                      A
 Frequencies --   1107.0910              1126.0266              1153.2501
 Red. masses --      2.0471                 2.4697                 1.9933
 Frc consts  --      1.4782                 1.8450                 1.5620
 IR Inten    --     94.2903                23.1870                70.7145

                     28                     29                     30
                      A                      A                      A
 Frequencies --   1170.5759              1191.4724              1195.2307
 Red. masses --      1.4586                 1.5286                 1.4398
 Frc consts  --      1.1775                 1.2785                 1.2119
 IR Inten    --      3.0544                40.3851                 6.8358

                     31                     32                     33
                      A                      A                      A
 Frequencies --   1214.2455              1235.4226              1269.2530
 Red. masses --      1.4941                 2.0872                 2.9669
 Frc consts  --      1.2979                 1.8769                 2.8161
 IR Inten    --     15.2818                 8.8001                 1.9073

                     34                     35                     36
                      A                      A                      A
 Frequencies --   1297.9142              1320.4315              1376.4337
 Red. masses --      1.4693                 1.3583                 1.5195
 Frc consts  --      1.4584                 1.3953                 1.6962
 IR Inten    --      1.8273                 4.1597                 0.9179

                     37                     38                     39
                      A                      A                      A
 Frequencies --   1408.0432              1429.8989              1490.3521
 Red. masses --      1.2403                 1.2430                 1.0835
 Frc consts  --      1.4488                 1.4974                 1.4180
 IR Inten    --      3.7064                78.3099                 2.2413

                     40                     41                     42
                      A                      A                      A
 Frequencies --   1494.9960              1495.8983              3029.4808
 Red. masses --      1.1340                 1.0468                 1.0347
 Frc consts  --      1.4932                 1.3801                 5.5951
 IR Inten    --      8.0108                 3.4764                25.2899

                     43                     44                     45
                      A                      A                      A
 Frequencies --   3067.2153              3075.1937              3081.9865
 Red. masses --      1.0691                 1.0794                 1.0863
 Frc consts  --      5.9262                 6.0141                 6.0797
 IR Inten    --     10.2203                38.9977                 6.3708

                     46                     47                     48
                      A                      A                      A
 Frequencies --   3085.3569              3098.1167              3100.2774
 Red. masses --      1.0839                 1.0925                 1.1006
 Frc consts  --      6.0793                 6.1782                 6.2327
 IR Inten    --     56.1172                 7.4027                25.5827

                     49                     50                     51
                      A                      A                      A
 Frequencies --   3105.7885              3155.2364              3803.0994
 Red. masses --      1.0945                 1.1094                 1.0657
 Frc consts  --      6.2203                 6.5071                 9.0813
 IR Inten    --     58.9543                22.0545                17.6193

 - Thermochemistry -
 -------------------
 Temperature   298.150 Kelvin.  Pressure   1.00000 Atm.
 Atom     1 has atomic number  6 and mass  12.00000

 Molecular mass:   126.06808 amu.
 Principal axes and moments of inertia in atomic units:
                           1         2         3
     Eigenvalues --   691.044751178.849141527.47930
           X            0.99825   0.05545   0.02060
           Y           -0.05618   0.99775   0.03659
           Z           -0.01852  -0.03768   0.99912
 This molecule is an asymmetric top.
 Rotational symmetry number  1.
 Warning -- assumption of classical behavior for rotation
           may cause significant error
 Rotational temperatures (Kelvin)      0.12534     0.07347     0.05670
 Rotational constants (GHZ):           2.61161     1.53093     1.18152
 Zero-point vibrational energy     414430.3 (Joules/Mol)
                                   99.05121 (Kcal/Mol)
 Warning -- explicit consideration of  11 degrees of freedom as
           vibrations may cause significant error
 Vibrational temperatures:    202.07   289.52   320.13   335.91   371.75
          (Kelvin)            498.78   567.06   620.78   713.01   832.08
                              838.26   929.76   994.57  1114.31  1186.62
                             1215.35  1321.07  1350.37  1388.60  1425.76
                             1474.39  1510.96  1536.49  1564.18  1592.85
                             1620.10  1659.27  1684.20  1714.26  1719.67
                             1747.03  1777.50  1826.17  1867.41  1899.80
                             1980.38  2025.86  2057.30  2144.28  2150.96
                             2152.26  4358.74  4413.03  4424.51  4434.29
                             4439.13  4457.49  4460.60  4468.53  4539.68
                             5471.80

 Zero-point correction=                           0.157848 (Hartree/Particle)
 Thermal correction to Energy=                    0.165935
 Thermal correction to Enthalpy=                  0.166879
 Thermal correction to Gibbs Free Energy=         0.125712
 Sum of electronic and zero-point Energies=           -422.878432
 Sum of electronic and thermal Energies=              -422.870345
 Sum of electronic and thermal Enthalpies=            -422.869401
 Sum of electronic and thermal Free Energies=         -422.910568

                     E (Thermal)             CV                S
                      KCal/Mol        Cal/Mol-Kelvin    Cal/Mol-Kelvin
 Total                  104.126             32.390             86.643
 Electronic               0.000              0.000              0.000
 Translational            0.889              2.981             40.409
 Rotational               0.889              2.981             28.611
 Vibrational            102.348             26.428             17.624
 Vibration     1          0.615              1.913              2.798
 Vibration     2          0.638              1.838              2.122
 Vibration     3          0.648              1.807              1.939
 Vibration     4          0.654              1.790              1.852
 Vibration     5          0.667              1.749              1.673
 Vibration     6          0.725              1.582              1.181
 Vibration     7          0.761              1.483              0.985
 Vibration     8          0.793              1.402              0.854
 Vibration     9          0.851              1.260              0.669
 Vibration    10          0.935              1.078              0.488
 Vibration    11          0.939              1.069              0.481

 Normal termination of Gaussian 09 at Mon Jan 27 22:49:28 2020.
