 Gaussian 09, Revision D.01,
 Gaussian 09:  ES64L-G09RevD.01 24-Apr-2013

 -----------------------------
 # b3lyp 6-31G(2df,p) opt Freq
 -----------------------------

 -----
 titel
 -----
 Symbolic Z-matrix:
 Charge =  0 Multiplicity = 1

 SCF Done:  E(RB3LYP) =  -423.182988391     A.U. after   14 cycles
 Optimization completed.
    -- Stationary point found.
 Normal termination of Gaussian 09 at Tue Jan 28 03:55:32 2020.

 ----------------------------------------------------------------------
 #N Geom=AllCheck Guess=TCheck SCRF=Check GenChk RB3LYP/6-31G(2df,p) Fr
 eq
 ----------------------------------------------------------------------

 Structure from the checkpoint file:  "/scratch/puck/g09_bb9f48f0-7117-46e6-a8c8-887f6514388e/Gau-196261.chk"
 -----
 titel
 -----
 Charge =  0 Multiplicity = 1

                         Standard orientation:
 ---------------------------------------------------------------------
 Center     Atomic      Atomic             Coordinates (Angstroms)
 Number     Number       Type             X           Y           Z
 ---------------------------------------------------------------------
      1          6           0        2.598129   -0.047565    0.010518
      2          6           0        1.186083    0.440234   -0.044223
      3          6           0        0.735367    1.694480    0.078912
      4          6           0       -0.769678    1.798600    0.054329
      5          6           0       -1.209529    0.397546   -0.449806
      6          8           0       -2.379365   -0.129915    0.122352
      7          6           0        0.023049   -0.480883   -0.180858
      8          6           0        0.045295   -1.908199   -0.503088
      9          8           0       -0.162779   -1.485460    0.854250
     10          1           0        2.710819   -0.808399    0.792037
     11          1           0        2.901173   -0.513264   -0.935378
     12          1           0        3.293457    0.768092    0.224186
     13          1           0        1.377728    2.559292    0.212706
     14          1           0       -1.176700    1.981606    1.057264
     15          1           0       -1.136537    2.606416   -0.587606
     16          1           0       -1.367673    0.451932   -1.534607
     17          1           0       -2.080103   -0.716437    0.833071
     18          1           0       -0.825780   -2.350410   -0.985383
     19          1           0        0.988480   -2.421101   -0.683804
 ---------------------------------------------------------------------

 SCF Done:  E(RB3LYP) =  -423.182988391     A.U. after    1 cycles

 The electronic state is 1-A.
 Alpha  occ. eigenvalues --  -19.16015 -19.12748 -10.24266 -10.23750 -10.23207
 Alpha  occ. eigenvalues --  -10.19376 -10.18825 -10.18821 -10.18270  -1.07514
 Alpha  occ. eigenvalues --   -1.01086  -0.84311  -0.74980  -0.69508  -0.66525
 Alpha  occ. eigenvalues --   -0.65492  -0.57860  -0.54182  -0.52124  -0.47292
 Alpha  occ. eigenvalues --   -0.46773  -0.44385  -0.42760  -0.41997  -0.40473
 Alpha  occ. eigenvalues --   -0.38956  -0.37743  -0.36978  -0.36002  -0.32686
 Alpha  occ. eigenvalues --   -0.31706  -0.27927  -0.25896  -0.24281
 Alpha virt. eigenvalues --    0.00581   0.09099   0.09195   0.09606   0.12478
 Alpha virt. eigenvalues --    0.13653   0.14223   0.14955   0.15454   0.16568
 Alpha virt. eigenvalues --    0.17098   0.19109   0.20430   0.21839   0.22850

 Mulliken charges:
               1
     1  C   -0.512561
     2  C    0.274659
     3  C   -0.177954
     4  C   -0.302634
     5  C    0.069273
     6  O   -0.444649
     7  C    0.291231
     8  C   -0.246054
     9  O   -0.289878
    10  H    0.142008
    11  H    0.127486
    12  H    0.127030
    13  H    0.095236
    14  H    0.118956
    15  H    0.107015
    16  H    0.091508
    17  H    0.290602
    18  H    0.122695
    19  H    0.116033
 Sum of Mulliken charges =   0.00000

 Dipole moment (field-independent basis, Debye):
    X=              2.0638    Y=              0.2456    Z=             -1.0304  Tot=              2.3198
 Quadrupole moment (field-independent basis, Debye-Ang):
   XX=            -56.4685   YY=            -49.9157   ZZ=            -53.3154
   XY=              0.1977   XZ=             -0.6080   YZ=              2.2678

  Exact polarizability:  82.836  -4.575  93.033  -0.237   3.613  56.891
 Approx polarizability: 110.438  -8.729 141.332  -2.261   2.083  94.046

                      1                      2                      3
                      A                      A                      A
 Frequencies --     74.6812               179.3629               216.8537
 Red. masses --      4.0547                 1.0934                 2.9479
 Frc consts  --      0.0133                 0.0207                 0.0817
 IR Inten    --      1.0867                 0.3327                 4.2859

                      4                      5                      6
                      A                      A                      A
 Frequencies --    244.6345               255.0178               294.5964
 Red. masses --      2.5801                 2.9131                 3.5558
 Frc consts  --      0.0910                 0.1116                 0.1818
 IR Inten    --      0.2557                 1.6083                15.4617

                      7                      8                      9
                      A                      A                      A
 Frequencies --    303.0565               446.2349               470.3943
 Red. masses --      2.9891                 2.4935                 1.2813
 Frc consts  --      0.1617                 0.2925                 0.1670
 IR Inten    --      8.1439                21.9596                36.1574

                     10                     11                     12
                      A                      A                      A
 Frequencies --    489.4028               565.0432               605.5729
 Red. masses --      3.8632                 3.2288                 3.6037
 Frc consts  --      0.5452                 0.6074                 0.7786
 IR Inten    --     11.3047                 4.0634                 5.9495

                     13                     14                     15
                      A                      A                      A
 Frequencies --    656.0426               684.8118               827.4429
 Red. masses --      4.5213                 4.0315                 3.5590
 Frc consts  --      1.1465                 1.1139                 1.4357
 IR Inten    --      9.3990                17.1382                14.5601

                     16                     17                     18
                      A                      A                      A
 Frequencies --    842.3097               855.5019               943.5340
 Red. masses --      1.3937                 1.5746                 2.0106
 Frc consts  --      0.5826                 0.6790                 1.0546
 IR Inten    --      8.8574                 4.2820                 1.2555

                     19                     20                     21
                      A                      A                      A
 Frequencies --    966.9960               994.0025              1030.1414
 Red. masses --      6.6641                 1.7791                 1.6395
 Frc consts  --      3.6715                 1.0357                 1.0251
 IR Inten    --     41.5206                 1.2925                11.3271

                     22                     23                     24
                      A                      A                      A
 Frequencies --   1040.8557              1070.0585              1094.6154
 Red. masses --      3.0644                 1.5552                 2.2304
 Frc consts  --      1.9561                 1.0492                 1.5746
 IR Inten    --      8.1631                 0.6549                62.6811

                     25                     26                     27
                      A                      A                      A
 Frequencies --   1125.9925              1143.4225              1167.6667
 Red. masses --      1.2519                 2.6888                 1.2920
 Frc consts  --      0.9351                 2.0712                 1.0379
 IR Inten    --      1.9556                27.5318                31.4549

                     28                     29                     30
                      A                      A                      A
 Frequencies --   1176.8447              1233.3850              1268.6983
 Red. masses --      1.3465                 1.4198                 1.6334
 Frc consts  --      1.0987                 1.2726                 1.5490
 IR Inten    --      3.0007                 7.2860                 6.4504

                     31                     32                     33
                      A                      A                      A
 Frequencies --   1313.0276              1335.5320              1360.3799
 Red. masses --      1.6295                 2.5902                 1.3939
 Frc consts  --      1.6552                 2.7221                 1.5198
 IR Inten    --      4.3461                 1.9821                 6.5227

                     34                     35                     36
                      A                      A                      A
 Frequencies --   1410.9768              1422.4550              1447.3960
 Red. masses --      1.3133                 2.4672                 1.3354
 Frc consts  --      1.5404                 2.9412                 1.6483
 IR Inten    --      0.9547                 5.9631                86.0076

                     37                     38                     39
                      A                      A                      A
 Frequencies --   1478.6130              1486.1614              1493.9537
 Red. masses --      1.0456                 1.0997                 1.0834
 Frc consts  --      1.3468                 1.4310                 1.4247
 IR Inten    --      7.6628                 0.5463                 9.8378

                     40                     41                     42
                      A                      A                      A
 Frequencies --   1522.5345              1707.6615              3021.6818
 Red. masses --      1.3971                 7.1898                 1.0847
 Frc consts  --      1.9082                12.3530                 5.8350
 IR Inten    --      2.0421                 0.2505                21.1316

                     43                     44                     45
                      A                      A                      A
 Frequencies --   3023.4092              3028.5690              3071.5724
 Red. masses --      1.0380                 1.0635                 1.0990
 Frc consts  --      5.5905                 5.7472                 6.1092
 IR Inten    --     19.9604                32.5415                32.4401

                     46                     47                     48
                      A                      A                      A
 Frequencies --   3074.2487              3084.6969              3116.6107
 Red. masses --      1.0978                 1.0511                 1.0995
 Frc consts  --      6.1128                 5.8927                 6.2924
 IR Inten    --      9.6699                27.5009                16.6910

                     49                     50                     51
                      A                      A                      A
 Frequencies --   3172.5254              3181.1743              3716.9071
 Red. masses --      1.1190                 1.0934                 1.0650
 Frc consts  --      6.6359                 6.5193                 8.6685
 IR Inten    --     14.7314                16.9929                47.6763

 - Thermochemistry -
 -------------------
 Temperature   298.150 Kelvin.  Pressure   1.00000 Atm.
 Atom     1 has atomic number  6 and mass  12.00000

 Molecular mass:   126.06808 amu.
 Principal axes and moments of inertia in atomic units:
                           1         2         3
     Eigenvalues --   771.588841016.743381606.87652
           X            0.99937  -0.03537   0.00117
           Y            0.03534   0.99912   0.02264
           Z           -0.00197  -0.02259   0.99974
 This molecule is an asymmetric top.
 Rotational symmetry number  1.
 Warning -- assumption of classical behavior for rotation
           may cause significant error
 Rotational temperatures (Kelvin)      0.11225     0.08519     0.05390
 Rotational constants (GHZ):           2.33899     1.77502     1.12314
 Zero-point vibrational energy     417121.4 (Joules/Mol)
                                   99.69442 (Kcal/Mol)
 Warning -- explicit consideration of  12 degrees of freedom as
           vibrations may cause significant error
 Vibrational temperatures:    107.45   258.06   312.00   351.97   366.91
          (Kelvin)            423.86   436.03   642.03   676.79   704.14
                              812.97   871.28   943.90   985.29  1190.50
                             1211.89  1230.87  1357.53  1391.29  1430.15
                             1482.14  1497.56  1539.57  1574.91  1620.05
                             1645.13  1680.01  1693.21  1774.56  1825.37
                             1889.15  1921.53  1957.28  2030.08  2046.59
                             2082.48  2127.39  2138.25  2149.46  2190.58
                             2456.94  4347.52  4350.01  4357.43  4419.30
                             4423.15  4438.19  4484.10  4564.55  4576.99
                             5347.79

 Zero-point correction=                           0.158873 (Hartree/Particle)
 Thermal correction to Energy=                    0.167393
 Thermal correction to Enthalpy=                  0.168338
 Thermal correction to Gibbs Free Energy=         0.125982
 Sum of electronic and zero-point Energies=           -423.024115
 Sum of electronic and thermal Energies=              -423.015595
 Sum of electronic and thermal Enthalpies=            -423.014651
 Sum of electronic and thermal Free Energies=         -423.057007

                     E (Thermal)             CV                S
                      KCal/Mol        Cal/Mol-Kelvin    Cal/Mol-Kelvin
 Total                  105.041             32.940             89.145
 Electronic               0.000              0.000              0.000
 Translational            0.889              2.981             40.409
 Rotational               0.889              2.981             28.624
 Vibrational            103.264             26.978             20.113
 Vibration     1          0.599              1.966              4.026
 Vibration     2          0.629              1.868              2.335
 Vibration     3          0.646              1.815              1.985
 Vibration     4          0.660              1.772              1.769
 Vibration     5          0.665              1.754              1.696
 Vibration     6          0.689              1.684              1.447
 Vibration     7          0.695              1.668              1.400
 Vibration     8          0.805              1.369              0.807
 Vibration     9          0.827              1.316              0.736
 Vibration    10          0.845              1.274              0.685
 Vibration    11          0.921              1.107              0.514
 Vibration    12          0.964              1.020              0.440

 Normal termination of Gaussian 09 at Tue Jan 28 04:41:36 2020.
