 Gaussian 09, Revision D.01,
 Gaussian 09:  ES64L-G09RevD.01 24-Apr-2013

 -----------------------------
 # b3lyp 6-31G(2df,p) opt Freq
 -----------------------------

 -----
 titel
 -----
 Symbolic Z-matrix:
 Charge =  0 Multiplicity = 1

 SCF Done:  E(RB3LYP) =  -423.141531401     A.U. after   14 cycles
 Optimization completed.
    -- Stationary point found.
 Normal termination of Gaussian 09 at Mon Jan 27 17:05:43 2020.

 ----------------------------------------------------------------------
 #N Geom=AllCheck Guess=TCheck SCRF=Check GenChk RB3LYP/6-31G(2df,p) Fr
 eq
 ----------------------------------------------------------------------

 Structure from the checkpoint file:  "/scratch/puck/g09_08dfeec7-cd47-4f50-97f7-2b8572fd0e3a/Gau-62505.chk"
 -----
 titel
 -----
 Charge =  0 Multiplicity = 1

                         Standard orientation:
 ---------------------------------------------------------------------
 Center     Atomic      Atomic             Coordinates (Angstroms)
 Number     Number       Type             X           Y           Z
 ---------------------------------------------------------------------
      1          6           0       -2.492096   -0.624946    0.100210
      2          6           0       -1.024761   -0.283235   -0.011250
      3          6           0       -0.025055   -1.095348   -0.919013
      4          6           0        1.028868   -0.397626   -0.005936
      5          8           0        2.320528   -0.914221    0.038568
      6          6           0       -0.009332   -0.544593    1.142922
      7          6           0        0.823153    1.074420   -0.455691
      8          8           0        0.136344    1.921068    0.482583
      9          6           0       -0.632950    1.151908   -0.457689
     10          1           0       -2.979970   -0.017046    0.870100
     11          1           0       -3.014462   -0.443641   -0.846563
     12          1           0       -2.636453   -1.677700    0.362901
     13          1           0       -0.075583   -2.175259   -0.757448
     14          1           0       -0.002353   -0.866692   -1.989064
     15          1           0        2.825883   -0.412921    0.687786
     16          1           0       -0.061269   -1.578264    1.490175
     17          1           0        0.021359    0.159843    1.972656
     18          1           0        1.495680    1.556105   -1.158364
     19          1           0       -1.234770    1.717319   -1.162703
 ---------------------------------------------------------------------

 SCF Done:  E(RB3LYP) =  -423.141531401     A.U. after    1 cycles

 The electronic state is 1-A.
 Alpha  occ. eigenvalues --  -19.15021 -19.14485 -10.24463 -10.23245 -10.22953
 Alpha  occ. eigenvalues --  -10.20537 -10.18541 -10.17951 -10.17714  -1.07223
 Alpha  occ. eigenvalues --   -1.02923  -0.87102  -0.73629  -0.68420  -0.65578
 Alpha  occ. eigenvalues --   -0.64652  -0.57212  -0.55038  -0.50977  -0.48956
 Alpha  occ. eigenvalues --   -0.47442  -0.43482  -0.42314  -0.41436  -0.39024
 Alpha  occ. eigenvalues --   -0.38829  -0.37347  -0.35606  -0.34301  -0.32344
 Alpha  occ. eigenvalues --   -0.30464  -0.28620  -0.27421  -0.24445
 Alpha virt. eigenvalues --    0.06881   0.09527   0.09819   0.11267   0.11650
 Alpha virt. eigenvalues --    0.13547   0.14303   0.14961   0.16126   0.16595
 Alpha virt. eigenvalues --    0.17707   0.20114   0.21021   0.21417   0.22095

 Mulliken charges:
               1
     1  C   -0.502398
     2  C    0.283157
     3  C   -0.288230
     4  C    0.379448
     5  O   -0.486938
     6  C   -0.328753
     7  C   -0.053935
     8  O   -0.259746
     9  C    0.012074
    10  H    0.124930
    11  H    0.115833
    12  H    0.117337
    13  H    0.102376
    14  H    0.091696
    15  H    0.282674
    16  H    0.096895
    17  H    0.111760
    18  H    0.103120
    19  H    0.098699
 Sum of Mulliken charges =   0.00000

 Dipole moment (field-independent basis, Debye):
    X=             -0.4863    Y=             -0.3211    Z=             -0.3804  Tot=              0.6959
 Quadrupole moment (field-independent basis, Debye-Ang):
   XX=            -50.6219   YY=            -57.4608   ZZ=            -51.8502
   XY=              2.8584   XZ=              2.8110   YZ=             -3.1990

  Exact polarizability:  81.981   1.291  72.292   0.928  -1.136  67.250
 Approx polarizability: 115.255  -0.564 109.156   1.744   3.604 104.755

                      1                      2                      3
                      A                      A                      A
 Frequencies --    209.5544               236.7602               240.0989
 Red. masses --      1.0545                 2.6412                 1.8737
 Frc consts  --      0.0273                 0.0872                 0.0636
 IR Inten    --      0.2610                 2.3818                16.4442

                      4                      5                      6
                      A                      A                      A
 Frequencies --    277.5101               292.2601               375.9374
 Red. masses --      3.0687                 1.5984                 3.2126
 Frc consts  --      0.1392                 0.0804                 0.2675
 IR Inten    --     19.5603                59.6354                 8.1305

                      7                      8                      9
                      A                      A                      A
 Frequencies --    406.9813               476.4500               523.8428
 Red. masses --      3.4902                 2.9113                 2.1821
 Frc consts  --      0.3406                 0.3894                 0.3528
 IR Inten    --     14.3775                 3.2121                 2.6402

                     10                     11                     12
                      A                      A                      A
 Frequencies --    576.5071               594.4491               608.6277
 Red. masses --      3.9947                 4.1701                 3.2636
 Frc consts  --      0.7822                 0.8682                 0.7123
 IR Inten    --      2.1900                 6.0089                 3.7005

                     13                     14                     15
                      A                      A                      A
 Frequencies --    698.2423               801.5899               820.2322
 Red. masses --      3.1367                 2.2873                 3.5479
 Frc consts  --      0.9010                 0.8659                 1.4063
 IR Inten    --      0.0552                 8.1505                 0.7549

                     16                     17                     18
                      A                      A                      A
 Frequencies --    860.0926               891.5261               898.4586
 Red. masses --      4.2723                 2.2425                 2.0105
 Frc consts  --      1.8621                 1.0502                 0.9562
 IR Inten    --      8.3491                10.0629                17.5013

                     19                     20                     21
                      A                      A                      A
 Frequencies --    945.2535               970.2253               990.9562
 Red. masses --      2.1604                 2.7964                 1.8766
 Frc consts  --      1.1373                 1.5509                 1.0858
 IR Inten    --     11.4944                13.8253                11.0438

                     22                     23                     24
                      A                      A                      A
 Frequencies --   1005.5709              1036.2492              1043.9043
 Red. masses --      1.5470                 1.5552                 1.1325
 Frc consts  --      0.9217                 0.9839                 0.7271
 IR Inten    --      4.9746                 2.7115                 1.1196

                     25                     26                     27
                      A                      A                      A
 Frequencies --   1088.6766              1136.4453              1144.5764
 Red. masses --      1.3382                 1.9774                 1.9052
 Frc consts  --      0.9345                 1.5047                 1.4705
 IR Inten    --     22.5107                27.6902                 5.0585

                     28                     29                     30
                      A                      A                      A
 Frequencies --   1195.5635              1206.1616              1223.2622
 Red. masses --      1.5393                 1.9953                 1.4615
 Frc consts  --      1.2963                 1.7103                 1.2885
 IR Inten    --      0.4358                 1.7048                53.9890

                     31                     32                     33
                      A                      A                      A
 Frequencies --   1237.9887              1248.0784              1304.4834
 Red. masses --      1.8244                 1.6223                 4.1709
 Frc consts  --      1.6474                 1.4889                 4.1818
 IR Inten    --      1.2841                 8.2736                71.9923

                     34                     35                     36
                      A                      A                      A
 Frequencies --   1330.7065              1354.5750              1407.4441
 Red. masses --      2.0009                 1.8562                 2.5546
 Frc consts  --      2.0876                 2.0067                 2.9815
 IR Inten    --     93.3717                 1.3272                13.5935

                     37                     38                     39
                      A                      A                      A
 Frequencies --   1417.6705              1472.6284              1492.7431
 Red. masses --      1.4543                 1.1080                 1.0487
 Frc consts  --      1.7221                 1.4157                 1.3768
 IR Inten    --      0.8946                 2.8937                 3.8092

                     40                     41                     42
                      A                      A                      A
 Frequencies --   1494.7679              1518.0932              3025.5285
 Red. masses --      1.0483                 1.2193                 1.0361
 Frc consts  --      1.3800                 1.6557                 5.5879
 IR Inten    --      4.6570                 7.4826                29.8011

                     43                     44                     45
                      A                      A                      A
 Frequencies --   3049.3193              3083.2286              3088.0415
 Red. masses --      1.0572                 1.0586                 1.1001
 Frc consts  --      5.7918                 5.9291                 6.1810
 IR Inten    --     36.9660                14.2436                21.0974

                     46                     47                     48
                      A                      A                      A
 Frequencies --   3099.7697              3115.6041              3155.8974
 Red. masses --      1.1012                 1.1074                 1.1082
 Frc consts  --      6.2340                 6.3337                 6.5031
 IR Inten    --     17.2443                35.6426                14.3680

                     49                     50                     51
                      A                      A                      A
 Frequencies --   3158.5919              3173.4069              3805.5181
 Red. masses --      1.0879                 1.0970                 1.0659
 Frc consts  --      6.3949                 6.5089                 9.0946
 IR Inten    --     15.7748                18.5563                26.8524

 - Thermochemistry -
 -------------------
 Temperature   298.150 Kelvin.  Pressure   1.00000 Atm.
 Atom     1 has atomic number  6 and mass  12.00000

 Molecular mass:   126.06808 amu.
 Principal axes and moments of inertia in atomic units:
                           1         2         3
     Eigenvalues --   693.384181022.560361357.94005
           X            0.99837   0.05707   0.00278
           Y           -0.05695   0.99789  -0.03120
           Z           -0.00456   0.03099   0.99951
 This molecule is an asymmetric top.
 Rotational symmetry number  1.
 Warning -- assumption of classical behavior for rotation
           may cause significant error
 Rotational temperatures (Kelvin)      0.12491     0.08470     0.06378
 Rotational constants (GHZ):           2.60280     1.76492     1.32903
 Zero-point vibrational energy     417556.8 (Joules/Mol)
                                   99.79848 (Kcal/Mol)
 Warning -- explicit consideration of  12 degrees of freedom as
           vibrations may cause significant error
 Vibrational temperatures:    301.50   340.64   345.45   399.27   420.50
          (Kelvin)            540.89   585.55   685.50   753.69   829.46
                              855.28   875.68  1004.61  1153.31  1180.13
                             1237.48  1282.71  1292.68  1360.01  1395.94
                             1425.76  1446.79  1490.93  1501.94  1566.36
                             1635.09  1646.79  1720.15  1735.40  1760.00
                             1781.19  1795.70  1876.86  1914.59  1948.93
                             2025.00  2039.71  2118.78  2147.72  2150.63
                             2184.19  4353.06  4387.28  4436.07  4443.00
                             4459.87  4482.65  4540.63  4544.50  4565.82
                             5475.28

 Zero-point correction=                           0.159039 (Hartree/Particle)
 Thermal correction to Energy=                    0.166750
 Thermal correction to Enthalpy=                  0.167694
 Thermal correction to Gibbs Free Energy=         0.127598
 Sum of electronic and zero-point Energies=           -422.982492
 Sum of electronic and thermal Energies=              -422.974782
 Sum of electronic and thermal Enthalpies=            -422.973837
 Sum of electronic and thermal Free Energies=         -423.013934

                     E (Thermal)             CV                S
                      KCal/Mol        Cal/Mol-Kelvin    Cal/Mol-Kelvin
 Total                  104.637             31.973             84.390
 Electronic               0.000              0.000              0.000
 Translational            0.889              2.981             40.409
 Rotational               0.889              2.981             28.356
 Vibrational            102.860             26.011             15.625
 Vibration     1          0.642              1.826              2.048
 Vibration     2          0.656              1.784              1.827
 Vibration     3          0.657              1.779              1.802
 Vibration     4          0.678              1.715              1.549
 Vibration     5          0.688              1.688              1.461
 Vibration     6          0.747              1.521              1.055
 Vibration     7          0.772              1.455              0.937
 Vibration     8          0.833              1.302              0.720
 Vibration     9          0.879              1.197              0.601
 Vibration    10          0.933              1.082              0.492
 Vibration    11          0.952              1.044              0.459
 Vibration    12          0.968              1.014              0.435

 Optimization completed.
    -- Stationary point found.
 Normal termination of Gaussian 09 at Mon Jan 27 17:49:24 2020.
