 Gaussian 09, Revision D.01,
 Gaussian 09:  ES64L-G09RevD.01 24-Apr-2013

 -----------------------------
 # b3lyp 6-31G(2df,p) opt Freq
 -----------------------------

 -----
 titel
 -----
 Symbolic Z-matrix:
 Charge =  0 Multiplicity = 1

 SCF Done:  E(RB3LYP) =  -423.160707728     A.U. after   14 cycles
 Optimization completed.
    -- Stationary point found.
 Normal termination of Gaussian 09 at Mon Jan 27 18:48:09 2020.

 ----------------------------------------------------------------------
 #N Geom=AllCheck Guess=TCheck SCRF=Check GenChk RB3LYP/6-31G(2df,p) Fr
 eq
 ----------------------------------------------------------------------

 Structure from the checkpoint file:  "/scratch/puck/g09_b7577971-54d7-49e9-9b40-e2608062dfe1/Gau-19957.chk"
 -----
 titel
 -----
 Charge =  0 Multiplicity = 1

                         Standard orientation:
 ---------------------------------------------------------------------
 Center     Atomic      Atomic             Coordinates (Angstroms)
 Number     Number       Type             X           Y           Z
 ---------------------------------------------------------------------
      1          6           0       -0.942224   -1.523947    1.025473
      2          6           0       -0.594433   -0.511947   -0.056377
      3          6           0        0.575904   -0.971659   -0.930161
      4          8           0        1.750022   -0.798326   -0.137446
      5          6           0        2.091360    0.547090    0.175174
      6          6           0        0.902479    1.450706    0.394122
      7          6           0       -0.304265    0.910558    0.345858
      8          6           0       -1.708082    1.262065   -0.070910
      9          8           0       -1.804375   -0.033974   -0.731896
     10          1           0       -1.622435   -1.098451    1.768268
     11          1           0       -1.431635   -2.391670    0.570048
     12          1           0       -0.032697   -1.858869    1.531549
     13          1           0        0.545654   -2.035529   -1.182742
     14          1           0        0.606487   -0.380239   -1.855915
     15          1           0        2.742062    0.487448    1.055948
     16          1           0        2.697655    0.981103   -0.640071
     17          1           0        1.080231    2.521490    0.442056
     18          1           0       -2.450431    1.355928    0.733601
     19          1           0       -1.824503    2.099997   -0.767077
 ---------------------------------------------------------------------

 SCF Done:  E(RB3LYP) =  -423.160707728     A.U. after    1 cycles

 The electronic state is 1-A.
 Alpha  occ. eigenvalues --  -19.14551 -19.13549 -10.23812 -10.23810 -10.23527
 Alpha  occ. eigenvalues --  -10.22720 -10.19055 -10.18861 -10.17371  -1.04312
 Alpha  occ. eigenvalues --   -1.02836  -0.79549  -0.77360  -0.71495  -0.68440
 Alpha  occ. eigenvalues --   -0.62037  -0.61025  -0.50863  -0.50298  -0.49240
 Alpha  occ. eigenvalues --   -0.47087  -0.46382  -0.43495  -0.42039  -0.40598
 Alpha  occ. eigenvalues --   -0.39779  -0.38149  -0.36521  -0.35400  -0.31651
 Alpha  occ. eigenvalues --   -0.29997  -0.27418  -0.25177  -0.23879
 Alpha virt. eigenvalues --    0.00979   0.07608   0.09471   0.11336   0.13048
 Alpha virt. eigenvalues --    0.13499   0.14875   0.15133   0.15971   0.16833
 Alpha virt. eigenvalues --    0.17255   0.17936   0.18610   0.20067   0.21380

 Mulliken charges:
               1
     1  C   -0.439917
     2  C    0.387769
     3  C   -0.151211
     4  O   -0.260070
     5  C   -0.097536
     6  C   -0.244877
     7  C    0.192048
     8  C   -0.166245
     9  O   -0.348547
    10  H    0.115005
    11  H    0.122817
    12  H    0.134182
    13  H    0.106408
    14  H    0.098725
    15  H    0.122715
    16  H    0.104047
    17  H    0.098156
    18  H    0.108461
    19  H    0.118070
 Sum of Mulliken charges =   0.00000

 Dipole moment (field-independent basis, Debye):
    X=              0.4931    Y=              1.4566    Z=              0.5407  Tot=              1.6301
 Quadrupole moment (field-independent basis, Debye-Ang):
   XX=            -55.3084   YY=            -49.8602   ZZ=            -53.7465
   XY=              1.3170   XZ=             -2.1182   YZ=              0.0450

  Exact polarizability:  90.914   4.002  80.530  -0.284   0.349  61.453
 Approx polarizability: 134.633   8.602 115.014   3.688   2.532  93.383

                      1                      2                      3
                      A                      A                      A
 Frequencies --    135.5917               221.7032               230.6174
 Red. masses --      2.7645                 2.6907                 3.0701
 Frc consts  --      0.0299                 0.0779                 0.0962
 IR Inten    --      1.0981                 5.4331                 0.5163

                      4                      5                      6
                      A                      A                      A
 Frequencies --    247.7766               266.6319               354.7553
 Red. masses --      1.0814                 2.1102                 4.0735
 Frc consts  --      0.0391                 0.0884                 0.3020
 IR Inten    --      0.5494                 6.4469                 3.6846

                      7                      8                      9
                      A                      A                      A
 Frequencies --    369.4206               435.1804               472.7437
 Red. masses --      2.0269                 3.3035                 6.0769
 Frc consts  --      0.1630                 0.3686                 0.8002
 IR Inten    --      1.8342                 3.2924                 0.3070

                     10                     11                     12
                      A                      A                      A
 Frequencies --    539.4443               640.9571               736.1229
 Red. masses --      3.5704                 3.9329                 3.1007
 Frc consts  --      0.6122                 0.9520                 0.9900
 IR Inten    --      5.6387                 2.2160                 7.2589

                     13                     14                     15
                      A                      A                      A
 Frequencies --    791.6825               815.6962               876.7431
 Red. masses --      3.7604                 1.3325                 3.7812
 Frc consts  --      1.3886                 0.5224                 1.7125
 IR Inten    --      3.4334                19.8733                24.9889

                     16                     17                     18
                      A                      A                      A
 Frequencies --    901.7108               954.9605               963.7354
 Red. masses --      2.2155                 4.3707                 2.3151
 Frc consts  --      1.0613                 2.3484                 1.2669
 IR Inten    --     10.5908                75.5447                 2.5165

                     19                     20                     21
                      A                      A                      A
 Frequencies --    975.0563               991.3187              1022.5080
 Red. masses --      2.0112                 2.0396                 1.6604
 Frc consts  --      1.1266                 1.1809                 1.0228
 IR Inten    --      7.0079                 1.8017                 4.2879

                     22                     23                     24
                      A                      A                      A
 Frequencies --   1042.2910              1091.6414              1117.8478
 Red. masses --      1.8638                 3.3362                 3.0653
 Frc consts  --      1.1930                 2.3424                 2.2568
 IR Inten    --     16.7257                25.1374                63.4773

                     25                     26                     27
                      A                      A                      A
 Frequencies --   1138.9410              1146.9264              1211.7331
 Red. masses --      1.1581                 3.2279                 2.1790
 Frc consts  --      0.8851                 2.5017                 1.8850
 IR Inten    --      2.5618                 7.1618                 8.7309

                     28                     29                     30
                      A                      A                      A
 Frequencies --   1234.7638              1254.7099              1291.6271
 Red. masses --      2.2877                 1.3318                 1.2368
 Frc consts  --      2.0550                 1.2353                 1.2157
 IR Inten    --     18.3848                 7.3724                 8.7067

                     31                     32                     33
                      A                      A                      A
 Frequencies --   1318.6408              1348.4309              1364.8142
 Red. masses --      1.4703                 1.5796                 1.6904
 Frc consts  --      1.5063                 1.6922                 1.8552
 IR Inten    --      6.8583                 1.0309                 8.5637

                     34                     35                     36
                      A                      A                      A
 Frequencies --   1392.7239              1405.6425              1485.0290
 Red. masses --      1.3302                 1.2876                 1.0578
 Frc consts  --      1.5202                 1.4989                 1.3744
 IR Inten    --      9.5962                 4.2560                 1.0446

                     37                     38                     39
                      A                      A                      A
 Frequencies --   1486.6919              1493.7389              1501.8767
 Red. masses --      1.0778                 1.0652                 1.0905
 Frc consts  --      1.4035                 1.4003                 1.4492
 IR Inten    --      1.1631                 4.2541                 1.9177

                     40                     41                     42
                      A                      A                      A
 Frequencies --   1512.0426              1785.2208              2947.8563
 Red. masses --      1.1011                 8.8751                 1.0724
 Frc consts  --      1.4833                16.6650                 5.4908
 IR Inten    --      0.6466                 3.9282                65.0325

                     43                     44                     45
                      A                      A                      A
 Frequencies --   3003.8719              3009.2226              3038.0605
 Red. masses --      1.0621                 1.0634                 1.0354
 Frc consts  --      5.6467                 5.6734                 5.6308
 IR Inten    --     68.7068                46.8054                16.8042

                     46                     47                     48
                      A                      A                      A
 Frequencies --   3045.6266              3063.6696              3089.5138
 Red. masses --      1.0876                 1.1017                 1.1013
 Frc consts  --      5.9438                 6.0926                 6.1934
 IR Inten    --     29.2493                34.7535                31.1205

                     49                     50                     51
                      A                      A                      A
 Frequencies --   3109.4340              3125.5721              3167.2502
 Red. masses --      1.1006                 1.1020                 1.0917
 Frc consts  --      6.2694                 6.3428                 6.4524
 IR Inten    --     19.9931                13.9767                13.5217

 - Thermochemistry -
 -------------------
 Temperature   298.150 Kelvin.  Pressure   1.00000 Atm.
 Atom     1 has atomic number  6 and mass  12.00000

 Molecular mass:   126.06808 amu.
 Principal axes and moments of inertia in atomic units:
                           1         2         3
     Eigenvalues --   672.004521065.719141387.47942
           X            0.99931   0.03009  -0.02156
           Y           -0.03073   0.99908  -0.03006
           Z            0.02064   0.03070   0.99932
 This molecule is an asymmetric top.
 Rotational symmetry number  1.
 Warning -- assumption of classical behavior for rotation
           may cause significant error
 Rotational temperatures (Kelvin)      0.12889     0.08127     0.06243
 Rotational constants (GHZ):           2.68561     1.69345     1.30073
 Zero-point vibrational energy     419708.4 (Joules/Mol)
                                  100.31272 (Kcal/Mol)
 Warning -- explicit consideration of  10 degrees of freedom as
           vibrations may cause significant error
 Vibrational temperatures:    195.09   318.98   331.81   356.49   383.62
          (Kelvin)            510.41   531.51   626.13   680.17   776.14
                              922.19  1059.12  1139.05  1173.60  1261.44
                             1297.36  1373.97  1386.60  1402.89  1426.28
                             1471.16  1499.62  1570.63  1608.33  1638.68
                             1650.17  1743.41  1776.55  1805.25  1858.36
                             1897.23  1940.09  1963.66  2003.82  2022.40
                             2136.62  2139.02  2149.15  2160.86  2175.49
                             2568.53  4241.30  4321.90  4329.59  4371.09
                             4381.97  4407.93  4445.12  4473.78  4497.00
                             4556.96

 Zero-point correction=                           0.159858 (Hartree/Particle)
 Thermal correction to Energy=                    0.167721
 Thermal correction to Enthalpy=                  0.168665
 Thermal correction to Gibbs Free Energy=         0.127957
 Sum of electronic and zero-point Energies=           -423.000849
 Sum of electronic and thermal Energies=              -422.992987
 Sum of electronic and thermal Enthalpies=            -422.992043
 Sum of electronic and thermal Free Energies=         -423.032751

                     E (Thermal)             CV                S
                      KCal/Mol        Cal/Mol-Kelvin    Cal/Mol-Kelvin
 Total                  105.246             31.057             85.678
 Electronic               0.000              0.000              0.000
 Translational            0.889              2.981             40.409
 Rotational               0.889              2.981             28.387
 Vibrational            103.469             25.095             16.882
 Vibration     1          0.613              1.918              2.865
 Vibration     2          0.648              1.808              1.945
 Vibration     3          0.652              1.794              1.874
 Vibration     4          0.661              1.766              1.746
 Vibration     5          0.672              1.734              1.618
 Vibration     6          0.731              1.565              1.145
 Vibration     7          0.742              1.535              1.082
 Vibration     8          0.796              1.394              0.842
 Vibration     9          0.830              1.311              0.730
 Vibration    10          0.894              1.163              0.566

 Normal termination of Gaussian 09 at Mon Jan 27 20:32:32 2020.
