 Gaussian 09, Revision D.01,
 Gaussian 09:  ES64L-G09RevD.01 24-Apr-2013

 -----------------------------
 # b3lyp 6-31G(2df,p) opt Freq
 -----------------------------

 -----
 titel
 -----
 Symbolic Z-matrix:
 Charge =  0 Multiplicity = 1

 SCF Done:  E(RB3LYP) =  -423.191672484     A.U. after   14 cycles
 Optimization completed.
    -- Stationary point found.
 Normal termination of Gaussian 09 at Mon Jan 27 17:12:38 2020.

 ----------------------------------------------------------------------
 #N Geom=AllCheck Guess=TCheck SCRF=Check GenChk RB3LYP/6-31G(2df,p) Fr
 eq
 ----------------------------------------------------------------------

 Structure from the checkpoint file:  "/scratch/puck/g09_7d39795d-9779-4288-9580-3b9da1f14da0/Gau-86292.chk"
 -----
 titel
 -----
 Charge =  0 Multiplicity = 1

                         Standard orientation:
 ---------------------------------------------------------------------
 Center     Atomic      Atomic             Coordinates (Angstroms)
 Number     Number       Type             X           Y           Z
 ---------------------------------------------------------------------
      1          6           0       -2.440948    0.135958    0.159163
      2          6           0       -0.939368   -0.007299    0.030389
      3          6           0       -0.179016   -0.548033    1.259219
      4          6           0        1.189763   -0.751509    0.591209
      5          8           0        1.755137    0.556075    0.370579
      6          6           0        0.968651    1.342853   -0.501009
      7          8           0       -0.414061    1.324267   -0.210286
      8          6           0        0.780393   -1.400845   -0.730972
      9          6           0       -0.437306   -0.965105   -1.056326
     10          1           0       -2.870968    0.526639   -0.768086
     11          1           0       -2.898467   -0.833859    0.376742
     12          1           0       -2.688781    0.829532    0.967542
     13          1           0       -0.144596    0.174413    2.077015
     14          1           0       -0.601388   -1.495846    1.604791
     15          1           0        1.930891   -1.299720    1.173886
     16          1           0        1.301472    2.375808   -0.375934
     17          1           0        1.133881    1.022543   -1.540076
     18          1           0        1.434681   -2.019471   -1.333001
     19          1           0       -0.978353   -1.158898   -1.975264
 ---------------------------------------------------------------------

 SCF Done:  E(RB3LYP) =  -423.191672484     A.U. after    1 cycles

 The electronic state is 1-A.
 Alpha  occ. eigenvalues --  -19.13942 -19.13793 -10.26383 -10.24307 -10.23753
 Alpha  occ. eigenvalues --  -10.18993 -10.18897 -10.17666 -10.17664  -1.06384
 Alpha  occ. eigenvalues --   -0.99429  -0.84711  -0.74767  -0.71981  -0.66882
 Alpha  occ. eigenvalues --   -0.64142  -0.55822  -0.54792  -0.51244  -0.48298
 Alpha  occ. eigenvalues --   -0.46813  -0.44757  -0.44342  -0.41553  -0.39987
 Alpha  occ. eigenvalues --   -0.38231  -0.37413  -0.36891  -0.35081  -0.33539
 Alpha  occ. eigenvalues --   -0.30506  -0.26453  -0.25534  -0.25304
 Alpha virt. eigenvalues --   -0.00722   0.10350   0.11944   0.12566   0.13898
 Alpha virt. eigenvalues --    0.14857   0.15329   0.15523   0.16348   0.16939
 Alpha virt. eigenvalues --    0.17406   0.18606   0.20782   0.21274   0.21606

 Mulliken charges:
               1
     1  C   -0.468534
     2  C    0.379998
     3  C   -0.240611
     4  C    0.063568
     5  O   -0.276182
     6  C    0.027297
     7  O   -0.308979
     8  C   -0.109514
     9  C   -0.120143
    10  H    0.122776
    11  H    0.117096
    12  H    0.127669
    13  H    0.103793
    14  H    0.095248
    15  H    0.077634
    16  H    0.114988
    17  H    0.085726
    18  H    0.105623
    19  H    0.102549
 Sum of Mulliken charges =   0.00000

 Dipole moment (field-independent basis, Debye):
    X=             -0.6268    Y=             -1.5437    Z=             -0.5171  Tot=              1.7445
 Quadrupole moment (field-independent basis, Debye-Ang):
   XX=            -53.9339   YY=            -52.9444   ZZ=            -51.3630
   XY=             -0.2721   XZ=             -1.0307   YZ=             -0.3213

  Exact polarizability:  82.238  -2.323  72.175   1.122   0.741  69.110
 Approx polarizability: 123.171  -6.065 109.584   6.865   0.703 101.954

                      1                      2                      3
                      A                      A                      A
 Frequencies --    210.1369               223.5528               284.7723
 Red. masses --      1.1914                 2.7361                 2.6231
 Frc consts  --      0.0310                 0.0806                 0.1253
 IR Inten    --      0.1472                 0.1360                 0.5837

                      4                      5                      6
                      A                      A                      A
 Frequencies --    329.0004               341.8520               403.7943
 Red. masses --      2.5976                 2.4580                 3.2762
 Frc consts  --      0.1657                 0.1692                 0.3147
 IR Inten    --      1.2123                 3.4006                 6.9798

                      7                      8                      9
                      A                      A                      A
 Frequencies --    435.2736               493.0804               584.1467
 Red. masses --      2.9933                 2.2291                 4.0952
 Frc consts  --      0.3341                 0.3193                 0.8233
 IR Inten    --      6.6784                 5.7768                 1.6930

                     10                     11                     12
                      A                      A                      A
 Frequencies --    591.7358               675.4716               778.8247
 Red. masses --      3.9758                 3.9487                 1.6523
 Frc consts  --      0.8202                 1.0615                 0.5905
 IR Inten    --      3.9052                 0.4768                11.3596

                     13                     14                     15
                      A                      A                      A
 Frequencies --    798.8837               818.4248               855.1356
 Red. masses --      4.1192                 4.8284                 2.4393
 Frc consts  --      1.5489                 1.9055                 1.0510
 IR Inten    --      6.4449                10.9430                12.2183

                     16                     17                     18
                      A                      A                      A
 Frequencies --    867.5222               912.8034               947.5362
 Red. masses --      2.6367                 2.3200                 2.4902
 Frc consts  --      1.1692                 1.1389                 1.3172
 IR Inten    --      6.7525                 9.0228                 8.0212

                     19                     20                     21
                      A                      A                      A
 Frequencies --    963.1048               978.7335              1008.4305
 Red. masses --      1.4283                 1.8712                 1.5690
 Frc consts  --      0.7806                 1.0561                 0.9401
 IR Inten    --      2.5302                11.8187                 3.4347

                     22                     23                     24
                      A                      A                      A
 Frequencies --   1014.0708              1083.7151              1098.1821
 Red. masses --      4.7104                 2.1534                 1.3089
 Frc consts  --      2.8539                 1.4901                 0.9300
 IR Inten    --     67.2087                51.4857                29.7970

                     25                     26                     27
                      A                      A                      A
 Frequencies --   1132.2713              1159.6829              1173.4404
 Red. masses --      1.7372                 2.7217                 1.9497
 Frc consts  --      1.3122                 2.1566                 1.5818
 IR Inten    --     33.0710               128.9095                 7.5726

                     28                     29                     30
                      A                      A                      A
 Frequencies --   1221.8621              1243.8344              1277.7471
 Red. masses --      1.8036                 2.0353                 1.4473
 Frc consts  --      1.5865                 1.8552                 1.3922
 IR Inten    --      7.1680                11.8010                 7.6828

                     31                     32                     33
                      A                      A                      A
 Frequencies --   1300.5930              1305.0618              1359.1323
 Red. masses --      1.4678                 1.5511                 1.3471
 Frc consts  --      1.4628                 1.5565                 1.4661
 IR Inten    --      5.1741                 5.2308                 4.4695

                     34                     35                     36
                      A                      A                      A
 Frequencies --   1370.9344              1411.6181              1442.5645
 Red. masses --      1.7534                 1.3779                 1.1823
 Frc consts  --      1.9416                 1.6177                 1.4496
 IR Inten    --     38.0165                 9.7879                 8.0151

                     37                     38                     39
                      A                      A                      A
 Frequencies --   1472.4584              1480.5194              1495.1832
 Red. masses --      1.1142                 1.0512                 1.0516
 Frc consts  --      1.4232                 1.3576                 1.3851
 IR Inten    --      2.1007                 3.5490                 2.4297

                     40                     41                     42
                      A                      A                      A
 Frequencies --   1514.2161              1654.1722              2991.0014
 Red. masses --      1.0872                 6.4527                 1.0687
 Frc consts  --      1.4686                10.4028                 5.6331
 IR Inten    --      0.6790                 0.3052                77.0120

                     43                     44                     45
                      A                      A                      A
 Frequencies --   3040.8889              3061.4308              3102.1854
 Red. masses --      1.0351                 1.0594                 1.0949
 Frc consts  --      5.6392                 5.8500                 6.2082
 IR Inten    --     15.3710                21.9154                41.4692

                     46                     47                     48
                      A                      A                      A
 Frequencies --   3109.0504              3114.3496              3118.9328
 Red. masses --      1.0898                 1.1017                 1.1021
 Frc consts  --      6.2064                 6.2955                 6.3167
 IR Inten    --     35.2583                19.6113                 7.5475

                     49                     50                     51
                      A                      A                      A
 Frequencies --   3126.3823              3191.0619              3217.2898
 Red. masses --      1.1057                 1.0857                 1.1059
 Frc consts  --      6.3676                 6.5140                 6.7445
 IR Inten    --     27.4484                 5.6859                12.2327

 - Thermochemistry -
 -------------------
 Temperature   298.150 Kelvin.  Pressure   1.00000 Atm.
 Atom     1 has atomic number  6 and mass  12.00000

 Molecular mass:   126.06808 amu.
 Principal axes and moments of inertia in atomic units:
                           1         2         3
     Eigenvalues --   661.62747 978.252171158.11905
           X            0.99980  -0.00512  -0.01926
           Y            0.00475   0.99981  -0.01896
           Z            0.01935   0.01886   0.99963
 This molecule is an asymmetric top.
 Rotational symmetry number  1.
 Warning -- assumption of classical behavior for rotation
           may cause significant error
 Rotational temperatures (Kelvin)      0.13091     0.08854     0.07479
 Rotational constants (GHZ):           2.72773     1.84486     1.55834
 Zero-point vibrational energy     423394.6 (Joules/Mol)
                                  101.19374 (Kcal/Mol)
 Warning -- explicit consideration of  10 degrees of freedom as
           vibrations may cause significant error
 Vibrational temperatures:    302.34   321.64   409.72   473.36   491.85
          (Kelvin)            580.97   626.26   709.43   840.46   851.37
                              971.85  1120.55  1149.41  1177.53  1230.35
                             1248.17  1313.32  1363.29  1385.69  1408.18
                             1450.90  1459.02  1559.22  1580.04  1629.08
                             1668.52  1688.32  1757.98  1789.60  1838.39
                             1871.26  1877.69  1955.49  1972.47  2031.00
                             2075.53  2118.54  2130.13  2151.23  2178.62
                             2379.98  4303.38  4375.16  4404.71  4463.35
                             4473.22  4480.85  4487.44  4498.16  4591.22
                             4628.96

 Zero-point correction=                           0.161262 (Hartree/Particle)
 Thermal correction to Energy=                    0.168468
 Thermal correction to Enthalpy=                  0.169412
 Thermal correction to Gibbs Free Energy=         0.130281
 Sum of electronic and zero-point Energies=           -423.030410
 Sum of electronic and thermal Energies=              -423.023204
 Sum of electronic and thermal Enthalpies=            -423.022260
 Sum of electronic and thermal Free Energies=         -423.061392

                     E (Thermal)             CV                S
                      KCal/Mol        Cal/Mol-Kelvin    Cal/Mol-Kelvin
 Total                  105.715             30.050             82.360
 Electronic               0.000              0.000              0.000
 Translational            0.889              2.981             40.409
 Rotational               0.889              2.981             28.107
 Vibrational            103.938             24.089             13.844
 Vibration     1          0.642              1.825              2.042
 Vibration     2          0.649              1.805              1.930
 Vibration     3          0.683              1.702              1.505
 Vibration     4          0.712              1.618              1.265
 Vibration     5          0.721              1.592              1.203
 Vibration     6          0.769              1.462              0.949
 Vibration     7          0.796              1.393              0.842
 Vibration     8          0.849              1.265              0.676
 Vibration     9          0.941              1.066              0.478
 Vibration    10          0.949              1.049              0.464

 Optimization completed.
    -- Stationary point found.
 Normal termination of Gaussian 09 at Mon Jan 27 18:01:09 2020.
