 Gaussian 09, Revision D.01,
 Gaussian 09:  ES64L-G09RevD.01 24-Apr-2013

 -----------------------------
 # b3lyp 6-31G(2df,p) opt Freq
 -----------------------------

 -----
 titel
 -----
 Symbolic Z-matrix:
 Charge =  0 Multiplicity = 1

 SCF Done:  E(RB3LYP) =  -423.128854521     A.U. after   14 cycles
 Optimization completed.
    -- Stationary point found.
 Normal termination of Gaussian 09 at Mon Jan 27 14:14:51 2020.

 ----------------------------------------------------------------------
 #N Geom=AllCheck Guess=TCheck SCRF=Check GenChk RB3LYP/6-31G(2df,p) Fr
 eq
 ----------------------------------------------------------------------

 Structure from the checkpoint file:  "/scratch/puck/g09_4fb94449-a778-4a36-8976-f32620130002/Gau-78373.chk"
 -----
 titel
 -----
 Charge =  0 Multiplicity = 1

                         Standard orientation:
 ---------------------------------------------------------------------
 Center     Atomic      Atomic             Coordinates (Angstroms)
 Number     Number       Type             X           Y           Z
 ---------------------------------------------------------------------
      1          8           0       -1.008429    1.785038    0.272308
      2          6           0       -1.027944    0.362802    0.466259
      3          6           0       -2.291447   -0.229090    0.025614
      4          6           0       -3.314582   -0.705480   -0.389387
      5          6           0        0.184322   -0.264749   -0.215953
      6          6           0        0.671529   -1.698517    0.125949
      7          6           0        2.131836   -1.167553    0.021268
      8          6           0        1.574262    0.253265    0.234846
      9          8           0        2.190003    1.278333   -0.499033
     10          1           0       -1.354852    1.956275   -0.610787
     11          1           0       -0.929030    0.230849    1.551598
     12          1           0       -4.225444   -1.128306   -0.735592
     13          1           0        0.096690   -0.143808   -1.301740
     14          1           0        0.413074   -1.982897    1.150755
     15          1           0        0.371780   -2.504690   -0.544476
     16          1           0        2.874897   -1.540073    0.728802
     17          1           0        2.520648   -1.266189   -0.995874
     18          1           0        1.544305    0.492992    1.310115
     19          1           0        1.667490    2.074799   -0.350576
 ---------------------------------------------------------------------

 SCF Done:  E(RB3LYP) =  -423.128854521     A.U. after    1 cycles

 The electronic state is 1-A.
 Alpha  occ. eigenvalues --  -19.15192 -19.13100 -10.26012 -10.22837 -10.18912
 Alpha  occ. eigenvalues --  -10.18767 -10.18687 -10.18498 -10.17997  -1.03237
 Alpha  occ. eigenvalues --   -1.01536  -0.84536  -0.77379  -0.71397  -0.64853
 Alpha  occ. eigenvalues --   -0.63443  -0.56475  -0.55259  -0.51776  -0.50948
 Alpha  occ. eigenvalues --   -0.48513  -0.46078  -0.43255  -0.40295  -0.39448
 Alpha  occ. eigenvalues --   -0.36643  -0.34755  -0.34230  -0.32686  -0.31648
 Alpha  occ. eigenvalues --   -0.29167  -0.27997  -0.26906  -0.25225
 Alpha virt. eigenvalues --    0.02314   0.04446   0.08523   0.08926   0.10358
 Alpha virt. eigenvalues --    0.11766   0.12401   0.13554   0.15200   0.17035
 Alpha virt. eigenvalues --    0.18204   0.18951   0.19279   0.21503   0.21741

 Mulliken charges:
               1
     1  O   -0.427266
     2  C   -0.098256
     3  C    0.290975
     4  C   -0.434688
     5  C    0.006105
     6  C   -0.258715
     7  C   -0.250940
     8  C    0.152769
     9  O   -0.437892
    10  H    0.287555
    11  H    0.114189
    12  H    0.201879
    13  H    0.077587
    14  H    0.104930
    15  H    0.109596
    16  H    0.100680
    17  H    0.114834
    18  H    0.063888
    19  H    0.282770
 Sum of Mulliken charges =   0.00000

 Dipole moment (field-independent basis, Debye):
    X=             -1.3710    Y=             -0.6735    Z=             -0.3702  Tot=              1.5717
 Quadrupole moment (field-independent basis, Debye-Ang):
   XX=            -54.5676   YY=            -52.0629   ZZ=            -51.9050
   XY=             -0.1386   XZ=              4.9488   YZ=             -1.5996

  Exact polarizability:  96.737   6.013  74.693   6.430   0.608  62.216
 Approx polarizability: 131.084  15.532 108.522  12.814   3.330  99.606

                      1                      2                      3
                      A                      A                      A
 Frequencies --     64.1100                94.9565               125.3732
 Red. masses --      4.5852                 4.9735                 2.7103
 Frc consts  --      0.0111                 0.0264                 0.0251
 IR Inten    --      0.4185                 3.9585                 1.7561

                      4                      5                      6
                      A                      A                      A
 Frequencies --    186.6666               220.6961               266.0305
 Red. masses --      3.8874                 2.6363                 1.2004
 Frc consts  --      0.0798                 0.0757                 0.0501
 IR Inten    --      2.3953                11.2821               119.1333

                      7                      8                      9
                      A                      A                      A
 Frequencies --    309.5666               345.0289               397.7727
 Red. masses --      3.0410                 3.5710                 2.0319
 Frc consts  --      0.1717                 0.2505                 0.1894
 IR Inten    --      5.9979                16.0652                35.3949

                     10                     11                     12
                      A                      A                      A
 Frequencies --    412.2360               474.7537               534.5648
 Red. masses --      1.7878                 3.4517                 3.4622
 Frc consts  --      0.1790                 0.4584                 0.5829
 IR Inten    --     51.8429                10.4900                 9.8678

                     13                     14                     15
                      A                      A                      A
 Frequencies --    579.9061               626.1272               644.0915
 Red. masses --      5.5894                 1.3501                 2.0878
 Frc consts  --      1.1075                 0.3118                 0.5103
 IR Inten    --      9.0092                30.9099                16.2003

                     16                     17                     18
                      A                      A                      A
 Frequencies --    676.5789               799.3871               831.0301
 Red. masses --      1.2486                 1.4504                 1.8080
 Frc consts  --      0.3368                 0.5461                 0.7357
 IR Inten    --     33.2598                 0.6341                14.3762

                     19                     20                     21
                      A                      A                      A
 Frequencies --    918.9659               935.6645               944.2897
 Red. masses --      2.8042                 2.4200                 2.1436
 Frc consts  --      1.3953                 1.2483                 1.1262
 IR Inten    --     14.4478                 3.7250                11.9225

                     22                     23                     24
                      A                      A                      A
 Frequencies --    995.5857              1036.1208              1084.5570
 Red. masses --      3.1451                 2.7645                 2.0469
 Frc consts  --      1.8367                 1.7486                 1.4186
 IR Inten    --     32.0123                28.0537                48.7823

                     25                     26                     27
                      A                      A                      A
 Frequencies --   1099.6708              1128.3098              1153.5740
 Red. masses --      2.6308                 3.6681                 2.3241
 Frc consts  --      1.8744                 2.7514                 1.8222
 IR Inten    --     15.5807                47.9694                63.7229

                     28                     29                     30
                      A                      A                      A
 Frequencies --   1208.9051              1220.9882              1243.0530
 Red. masses --      1.3492                 1.2862                 1.2838
 Frc consts  --      1.1617                 1.1298                 1.1688
 IR Inten    --      3.6862                 0.3922                 4.5158

                     31                     32                     33
                      A                      A                      A
 Frequencies --   1253.1356              1261.4133              1269.9577
 Red. masses --      1.2727                 1.3934                 1.3000
 Frc consts  --      1.1775                 1.3063                 1.2353
 IR Inten    --      4.0086                 0.4119                32.3650

                     34                     35                     36
                      A                      A                      A
 Frequencies --   1295.3101              1347.2888              1385.4187
 Red. masses --      1.3200                 1.3591                 1.4292
 Frc consts  --      1.3049                 1.4535                 1.6163
 IR Inten    --     52.2254                32.7118                 4.6899

                     37                     38                     39
                      A                      A                      A
 Frequencies --   1415.4924              1432.5420              1483.2948
 Red. masses --      1.2768                 1.4006                 1.0868
 Frc consts  --      1.5073                 1.6935                 1.4088
 IR Inten    --     60.7135                11.4001                 2.5166

                     40                     41                     42
                      A                      A                      A
 Frequencies --   1502.6039              2231.2632              2968.9262
 Red. masses --      1.1647                 5.9154                 1.0829
 Frc consts  --      1.5494                17.3514                 5.6239
 IR Inten    --      6.3776                 1.0876                42.4256

                     43                     44                     45
                      A                      A                      A
 Frequencies --   3026.0248              3050.9902              3061.1354
 Red. masses --      1.0818                 1.0826                 1.0647
 Frc consts  --      5.8361                 5.9377                 5.8784
 IR Inten    --      7.6023                16.2643                37.3937

                     46                     47                     48
                      A                      A                      A
 Frequencies --   3067.9555              3118.9042              3130.4991
 Red. masses --      1.0589                 1.1051                 1.1066
 Frc consts  --      5.8723                 6.3335                 6.3897
 IR Inten    --     31.4699                14.8572                38.6206

                     49                     50                     51
                      A                      A                      A
 Frequencies --   3501.8127              3801.0005              3805.0602
 Red. masses --      1.1623                 1.0656                 1.0662
 Frc consts  --      8.3972                 9.0703                 9.0953
 IR Inten    --     67.1420                28.7901                25.4619

 - Thermochemistry -
 -------------------
 Temperature   298.150 Kelvin.  Pressure   1.00000 Atm.
 Atom     1 has atomic number  8 and mass  15.99491

 Molecular mass:   126.06808 amu.
 Principal axes and moments of inertia in atomic units:
                           1         2         3
     Eigenvalues --   653.066651616.411852119.03745
           X            0.99989  -0.01223   0.00889
           Y            0.01228   0.99991  -0.00505
           Z           -0.00883   0.00516   0.99995
 This molecule is an asymmetric top.
 Rotational symmetry number  1.
 Warning -- assumption of classical behavior for rotation
           may cause significant error
 Rotational temperatures (Kelvin)      0.13263     0.05358     0.04087
 Rotational constants (GHZ):           2.76349     1.11651     0.85168
 Zero-point vibrational energy     412523.8 (Joules/Mol)
                                   98.59555 (Kcal/Mol)
 Warning -- explicit consideration of  13 degrees of freedom as
           vibrations may cause significant error
 Vibrational temperatures:     92.24   136.62   180.38   268.57   317.53
          (Kelvin)            382.76   445.40   496.42   572.31   593.11
                              683.06   769.12   834.35   900.86   926.70
                              973.44  1150.14  1195.67  1322.19  1346.21
                             1358.62  1432.42  1490.74  1560.43  1582.18
                             1623.38  1659.73  1739.34  1756.73  1788.47
                             1802.98  1814.89  1827.18  1863.66  1938.45
                             1993.31  2036.58  2061.11  2134.13  2161.91
                             3210.29  4271.62  4353.77  4389.69  4404.29
                             4414.10  4487.40  4504.08  5038.32  5468.79
                             5474.63

 Zero-point correction=                           0.157122 (Hartree/Particle)
 Thermal correction to Energy=                    0.166764
 Thermal correction to Enthalpy=                  0.167708
 Thermal correction to Gibbs Free Energy=         0.122479
 Sum of electronic and zero-point Energies=           -422.971733
 Sum of electronic and thermal Energies=              -422.962090
 Sum of electronic and thermal Enthalpies=            -422.961146
 Sum of electronic and thermal Free Energies=         -423.006375

                     E (Thermal)             CV                S
                      KCal/Mol        Cal/Mol-Kelvin    Cal/Mol-Kelvin
 Total                  104.646             35.950             95.192
 Electronic               0.000              0.000              0.000
 Translational            0.889              2.981             40.409
 Rotational               0.889              2.981             29.194
 Vibrational            102.869             29.988             25.590
 Vibration     1          0.597              1.971              4.327
 Vibration     2          0.603              1.953              3.555
 Vibration     3          0.610              1.928              3.016
 Vibration     4          0.632              1.858              2.261
 Vibration     5          0.647              1.810              1.953
 Vibration     6          0.672              1.735              1.622
 Vibration     7          0.699              1.655              1.365
 Vibration     8          0.723              1.585              1.189
 Vibration     9          0.764              1.475              0.971
 Vibration    10          0.776              1.444              0.919
 Vibration    11          0.831              1.306              0.724
 Vibration    12          0.890              1.174              0.577
 Vibration    13          0.937              1.075              0.486

 Optimization completed.
    -- Stationary point found.
 Normal termination of Gaussian 09 at Mon Jan 27 14:57:35 2020.
