 Gaussian 09, Revision D.01,
 Gaussian 09:  ES64L-G09RevD.01 24-Apr-2013

 -----------------------------
 # b3lyp 6-31G(2df,p) opt Freq
 -----------------------------

 -----
 titel
 -----
 Symbolic Z-matrix:
 Charge =  0 Multiplicity = 1

 SCF Done:  E(RB3LYP) =  -423.122297656     A.U. after   14 cycles
 Optimization completed.
    -- Stationary point found.
 Normal termination of Gaussian 09 at Mon Jan 27 16:25:49 2020.

 ----------------------------------------------------------------------
 #N Geom=AllCheck Guess=TCheck SCRF=Check GenChk RB3LYP/6-31G(2df,p) Fr
 eq
 ----------------------------------------------------------------------

 Structure from the checkpoint file:  "/scratch/puck/g09_cceaac8b-71d8-4961-b0cd-2fd325f7aec0/Gau-177103.chk"
 -----
 titel
 -----
 Charge =  0 Multiplicity = 1

                         Standard orientation:
 ---------------------------------------------------------------------
 Center     Atomic      Atomic             Coordinates (Angstroms)
 Number     Number       Type             X           Y           Z
 ---------------------------------------------------------------------
      1          8           0        0.775550    1.702616    0.112262
      2          6           0        0.060387    0.499378    0.030012
      3          6           0        0.964761   -0.694819   -0.033224
      4          6           0        2.274503   -0.690269    0.628531
      5          8           0        2.170360   -0.468759   -0.787092
      6          6           0       -1.237307    0.617796   -0.743680
      7          6           0       -2.016190   -0.700471   -0.788064
      8          6           0       -1.991620   -0.752641    0.777774
      9          6           0       -1.221560    0.572779    0.799102
     10          1           0        1.454349    1.645300   -0.574254
     11          1           0        0.495739   -1.655208   -0.233115
     12          1           0        2.568096    0.180370    1.209211
     13          1           0        2.737576   -1.633316    0.913096
     14          1           0       -1.381212    1.473720   -1.391478
     15          1           0       -3.030338   -0.573106   -1.172647
     16          1           0       -1.552131   -1.531542   -1.329158
     17          1           0       -2.992499   -0.656849    1.203114
     18          1           0       -1.504057   -1.613548    1.246289
     19          1           0       -1.360662    1.382802    1.504873
 ---------------------------------------------------------------------

 SCF Done:  E(RB3LYP) =  -423.122297656     A.U. after    1 cycles

 The electronic state is 1-A.
 Alpha  occ. eigenvalues --  -19.15674 -19.14092 -10.24218 -10.24026 -10.23410
 Alpha  occ. eigenvalues --  -10.19121 -10.19001 -10.18884 -10.18852  -1.07547
 Alpha  occ. eigenvalues --   -1.02615  -0.88759  -0.73108  -0.68581  -0.65797
 Alpha  occ. eigenvalues --   -0.64743  -0.56083  -0.54040  -0.52650  -0.51505
 Alpha  occ. eigenvalues --   -0.48042  -0.45636  -0.43172  -0.41502  -0.40552
 Alpha  occ. eigenvalues --   -0.38138  -0.36549  -0.34334  -0.33254  -0.32939
 Alpha  occ. eigenvalues --   -0.30957  -0.28334  -0.25717  -0.24029
 Alpha virt. eigenvalues --    0.07843   0.09026   0.09422   0.10375   0.11068
 Alpha virt. eigenvalues --    0.12322   0.13742   0.14849   0.16200   0.16973
 Alpha virt. eigenvalues --    0.18079   0.19031   0.20339   0.21018   0.22447

 Mulliken charges:
               1
     1  O   -0.483876
     2  C    0.411064
     3  C   -0.007358
     4  C   -0.187105
     5  O   -0.257747
     6  C   -0.120050
     7  C   -0.248942
     8  C   -0.246935
     9  C   -0.099181
    10  H    0.291260
    11  H    0.100018
    12  H    0.128156
    13  H    0.116568
    14  H    0.091302
    15  H    0.108929
    16  H    0.099902
    17  H    0.110015
    18  H    0.097939
    19  H    0.096042
 Sum of Mulliken charges =   0.00000

 Dipole moment (field-independent basis, Debye):
    X=             -0.8427    Y=             -1.0849    Z=              0.5923  Tot=              1.4960
 Quadrupole moment (field-independent basis, Debye-Ang):
   XX=            -51.5980   YY=            -53.5198   ZZ=            -53.4131
   XY=              0.0410   XZ=              2.6044   YZ=             -2.4801

  Exact polarizability:  88.783   0.988  69.970   3.714  -1.025  67.114
 Approx polarizability: 117.463   2.181 102.641   2.019  -0.850 108.027

                      1                      2                      3
                      A                      A                      A
 Frequencies --     89.6577               171.7992               183.0961
 Red. masses --      3.6051                 3.1003                 2.9774
 Frc consts  --      0.0171                 0.0539                 0.0588
 IR Inten    --      3.0115                 3.7385                 0.5539

                      4                      5                      6
                      A                      A                      A
 Frequencies --    279.4907               289.3870               317.6375
 Red. masses --      3.9340                 2.1033                 3.7920
 Frc consts  --      0.1811                 0.1038                 0.2254
 IR Inten    --     12.2792                 4.7449                13.7233

                      7                      8                      9
                      A                      A                      A
 Frequencies --    433.0835               468.0337               491.3221
 Red. masses --      1.7150                 3.0268                 2.3088
 Frc consts  --      0.1895                 0.3907                 0.3284
 IR Inten    --     32.9065                19.9536                68.9936

                     10                     11                     12
                      A                      A                      A
 Frequencies --    541.9916               704.5413               735.5499
 Red. masses --      3.1615                 2.6255                 4.2232
 Frc consts  --      0.5472                 0.7679                 1.3462
 IR Inten    --      4.2045                 5.6254                 8.1100

                     13                     14                     15
                      A                      A                      A
 Frequencies --    778.9462               833.8275               850.1765
 Red. masses --      1.2072                 2.3188                 3.3265
 Frc consts  --      0.4316                 0.9499                 1.4166
 IR Inten    --      4.1503                10.7115                17.9748

                     16                     17                     18
                      A                      A                      A
 Frequencies --    884.8096               896.7801               930.4600
 Red. masses --      2.7719                 1.9646                 2.6305
 Frc consts  --      1.2786                 0.9309                 1.3418
 IR Inten    --     11.5234                24.0325                10.4307

                     19                     20                     21
                      A                      A                      A
 Frequencies --    971.3352               978.7448              1003.8034
 Red. masses --      2.6915                 1.7405                 1.3766
 Frc consts  --      1.4962                 0.9823                 0.8172
 IR Inten    --      8.0653                 2.1341                 2.6549

                     22                     23                     24
                      A                      A                      A
 Frequencies --   1024.1153              1030.8853              1095.7882
 Red. masses --      1.9321                 1.8170                 2.0807
 Frc consts  --      1.1939                 1.1377                 1.4720
 IR Inten    --      0.1191                10.0007                 2.6396

                     25                     26                     27
                      A                      A                      A
 Frequencies --   1101.5302              1116.3124              1150.6349
 Red. masses --      1.2169                 1.7120                 1.6348
 Frc consts  --      0.8700                 1.2569                 1.2753
 IR Inten    --      1.4496                 9.4094                34.4388

                     28                     29                     30
                      A                      A                      A
 Frequencies --   1163.3679              1169.9868              1218.0125
 Red. masses --      1.4743                 1.3238                 1.2123
 Frc consts  --      1.1756                 1.0676                 1.0597
 IR Inten    --     22.5872                 1.6534                 0.1340

                     31                     32                     33
                      A                      A                      A
 Frequencies --   1240.1465              1250.1462              1274.8543
 Red. masses --      1.5600                 1.4420                 2.0430
 Frc consts  --      1.4135                 1.3278                 1.9563
 IR Inten    --      6.0159                 0.7271                 3.8503

                     34                     35                     36
                      A                      A                      A
 Frequencies --   1284.6618              1297.6237              1335.1191
 Red. masses --      1.7369                 1.9003                 1.5694
 Frc consts  --      1.6889                 1.8852                 1.6482
 IR Inten    --      6.3556                 7.9360                65.3897

                     37                     38                     39
                      A                      A                      A
 Frequencies --   1396.3809              1482.2095              1487.6651
 Red. masses --      2.0553                 1.2521                 1.5013
 Frc consts  --      2.3612                 1.6207                 1.9576
 IR Inten    --     13.7230                 2.8214                 5.2336

                     40                     41                     42
                      A                      A                      A
 Frequencies --   1506.1308              1518.0975              3044.1628
 Red. masses --      1.1364                 1.5909                 1.0626
 Frc consts  --      1.5189                 2.1601                 5.8015
 IR Inten    --      1.1029                 2.1071                40.7812

                     43                     44                     45
                      A                      A                      A
 Frequencies --   3051.8610              3096.0547              3097.7995
 Red. masses --      1.0645                 1.1019                 1.0513
 Frc consts  --      5.8417                 6.2233                 5.9440
 IR Inten    --     47.8558                 3.8496                26.0807

                     46                     47                     48
                      A                      A                      A
 Frequencies --   3114.2727              3142.6425              3183.2139
 Red. masses --      1.1017                 1.0889                 1.0885
 Frc consts  --      6.2953                 6.3361                 6.4985
 IR Inten    --     43.4369                14.2647                12.7230

                     49                     50                     51
                      A                      A                      A
 Frequencies --   3193.5401              3193.9495              3755.4461
 Red. masses --      1.1055                 1.1089                 1.0649
 Frc consts  --      6.6427                 6.6649                 8.8491
 IR Inten    --      0.7209                26.0498                44.0645

 - Thermochemistry -
 -------------------
 Temperature   298.150 Kelvin.  Pressure   1.00000 Atm.
 Atom     1 has atomic number  8 and mass  15.99491

 Molecular mass:   126.06808 amu.
 Principal axes and moments of inertia in atomic units:
                           1         2         3
     Eigenvalues --   573.151231396.472611563.61861
           X            0.99981   0.01052   0.01617
           Y           -0.00987   0.99915  -0.04003
           Z           -0.01658   0.03986   0.99907
 This molecule is an asymmetric top.
 Rotational symmetry number  1.
 Warning -- assumption of classical behavior for rotation
           may cause significant error
 Rotational temperatures (Kelvin)      0.15112     0.06202     0.05539
 Rotational constants (GHZ):           3.14880     1.29236     1.15421
 Zero-point vibrational energy     417802.3 (Joules/Mol)
                                   99.85714 (Kcal/Mol)
 Warning -- explicit consideration of  10 degrees of freedom as
           vibrations may cause significant error
 Vibrational temperatures:    129.00   247.18   263.43   402.12   416.36
          (Kelvin)            457.01   623.11   673.40   706.90   779.80
                             1013.68  1058.29  1120.73  1199.69  1223.21
                             1273.04  1290.26  1338.72  1397.53  1408.19
                             1444.25  1473.47  1483.21  1576.59  1584.85
                             1606.12  1655.50  1673.82  1683.35  1752.45
                             1784.29  1798.68  1834.23  1848.34  1866.99
                             1920.94  2009.08  2132.57  2140.42  2166.98
                             2184.20  4379.87  4390.94  4454.53  4457.04
                             4480.74  4521.56  4579.93  4594.79  4595.38
                             5403.24

 Zero-point correction=                           0.159132 (Hartree/Particle)
 Thermal correction to Energy=                    0.167166
 Thermal correction to Enthalpy=                  0.168110
 Thermal correction to Gibbs Free Energy=         0.126674
 Sum of electronic and zero-point Energies=           -422.963165
 Sum of electronic and thermal Energies=              -422.955132
 Sum of electronic and thermal Enthalpies=            -422.954187
 Sum of electronic and thermal Free Energies=         -422.995624

                     E (Thermal)             CV                S
                      KCal/Mol        Cal/Mol-Kelvin    Cal/Mol-Kelvin
 Total                  104.898             31.730             87.211
 Electronic               0.000              0.000              0.000
 Translational            0.889              2.981             40.409
 Rotational               0.889              2.981             28.617
 Vibrational            103.121             25.768             18.186
 Vibration     1          0.602              1.956              3.668
 Vibration     2          0.626              1.877              2.416
 Vibration     3          0.631              1.863              2.297
 Vibration     4          0.680              1.712              1.537
 Vibration     5          0.686              1.693              1.478
 Vibration     6          0.704              1.640              1.322
 Vibration     7          0.794              1.398              0.849
 Vibration     8          0.825              1.321              0.743
 Vibration     9          0.847              1.269              0.680
 Vibration    10          0.897              1.157              0.561

 Normal termination of Gaussian 09 at Mon Jan 27 17:09:49 2020.
