 Gaussian 09, Revision D.01,
 Gaussian 09:  ES64L-G09RevD.01 24-Apr-2013

 -----------------------------
 # b3lyp 6-31G(2df,p) opt Freq
 -----------------------------

 -----
 titel
 -----
 Symbolic Z-matrix:
 Charge =  0 Multiplicity = 1

 SCF Done:  E(RB3LYP) =  -423.143592839     A.U. after   13 cycles
 Optimization completed.
    -- Stationary point found.
 Normal termination of Gaussian 09 at Mon Jan 27 12:05:27 2020.

 ----------------------------------------------------------------------
 #N Geom=AllCheck Guess=TCheck SCRF=Check GenChk RB3LYP/6-31G(2df,p) Fr
 eq
 ----------------------------------------------------------------------

 Structure from the checkpoint file:  "/scratch/puck/g09_556d3bf8-95be-4596-97f8-607dfee6631b/Gau-71339.chk"
 -----
 titel
 -----
 Charge =  0 Multiplicity = 1

                         Standard orientation:
 ---------------------------------------------------------------------
 Center     Atomic      Atomic             Coordinates (Angstroms)
 Number     Number       Type             X           Y           Z
 ---------------------------------------------------------------------
      1          6           0       -2.388343    0.417825    0.637767
      2          8           0       -2.335462   -0.629545   -0.332904
      3          6           0       -1.417781    0.455766   -0.464715
      4          6           0        0.025798    0.150471   -0.240614
      5          6           0        0.756326   -1.053787   -0.889965
      6          6           0        1.580771   -0.849752    0.394989
      7          6           0        2.300892    0.496519    0.166455
      8          6           0        1.061523    1.298229   -0.346805
      9          8           0        0.353524   -0.420422    1.067771
     10          1           0       -3.272856    1.051854    0.596739
     11          1           0       -2.038370    0.145006    1.629986
     12          1           0       -1.616862    1.110895   -1.314516
     13          1           0        0.137991   -1.949780   -0.849603
     14          1           0        1.237494   -0.927152   -1.863287
     15          1           0        2.107117   -1.655341    0.905776
     16          1           0        2.703623    0.896933    1.098798
     17          1           0        3.110803    0.428988   -0.564837
     18          1           0        0.796476    2.132381    0.306552
     19          1           0        1.174971    1.674329   -1.367212
 ---------------------------------------------------------------------

 SCF Done:  E(RB3LYP) =  -423.143592839     A.U. after    1 cycles

 The electronic state is 1-A.
 Alpha  occ. eigenvalues --  -19.14866 -19.13207 -10.24296 -10.23812 -10.23716
 Alpha  occ. eigenvalues --  -10.23145 -10.18740 -10.18574 -10.18517  -1.07182
 Alpha  occ. eigenvalues --   -1.04539  -0.79695  -0.73672  -0.71462  -0.66173
 Alpha  occ. eigenvalues --   -0.62828  -0.57365  -0.54175  -0.52411  -0.49141
 Alpha  occ. eigenvalues --   -0.46544  -0.46022  -0.43582  -0.41727  -0.39548
 Alpha  occ. eigenvalues --   -0.37172  -0.35654  -0.34978  -0.34518  -0.33251
 Alpha  occ. eigenvalues --   -0.31793  -0.29277  -0.26565  -0.24854
 Alpha virt. eigenvalues --    0.07730   0.09282   0.10517   0.11138   0.12507
 Alpha virt. eigenvalues --    0.13187   0.14699   0.15091   0.15540   0.16584
 Alpha virt. eigenvalues --    0.17337   0.17976   0.18311   0.18999   0.21260

 Mulliken charges:
               1
     1  C   -0.171977
     2  O   -0.235788
     3  C   -0.071403
     4  C    0.435203
     5  C   -0.272900
     6  C    0.072252
     7  C   -0.217185
     8  C   -0.267590
     9  O   -0.329588
    10  H    0.112525
    11  H    0.137204
    12  H    0.092178
    13  H    0.126871
    14  H    0.091151
    15  H    0.080790
    16  H    0.109391
    17  H    0.099986
    18  H    0.108935
    19  H    0.099946
 Sum of Mulliken charges =   0.00000

 Dipole moment (field-independent basis, Debye):
    X=              1.4221    Y=              1.4939    Z=             -0.7777  Tot=              2.2043
 Quadrupole moment (field-independent basis, Debye-Ang):
   XX=            -52.1936   YY=            -52.5764   ZZ=            -53.0886
   XY=             -4.7975   XZ=             -1.9390   YZ=             -0.2694

  Exact polarizability:  86.445  -2.936  68.872  -2.732  -0.426  68.039
 Approx polarizability: 112.394  -1.520 103.497  -5.509  -0.940 108.577

                      1                      2                      3
                      A                      A                      A
 Frequencies --     76.4203               169.4053               184.9267
 Red. masses --      3.6581                 4.8639                 2.7740
 Frc consts  --      0.0126                 0.0822                 0.0559
 IR Inten    --      2.9409                 1.6487                 3.4023

                      4                      5                      6
                      A                      A                      A
 Frequencies --    294.2119               373.5800               430.3685
 Red. masses --      1.8931                 3.5295                 2.7481
 Frc consts  --      0.0965                 0.2902                 0.2999
 IR Inten    --      0.6487                 3.0102                 0.4273

                      7                      8                      9
                      A                      A                      A
 Frequencies --    474.9689               567.2398               645.5353
 Red. masses --      2.8427                 3.1445                 3.0299
 Frc consts  --      0.3778                 0.5961                 0.7439
 IR Inten    --      5.1708                 9.0666                11.7594

                     10                     11                     12
                      A                      A                      A
 Frequencies --    710.7495               828.6714               830.1875
 Red. masses --      3.7890                 1.5093                 3.5825
 Frc consts  --      1.1277                 0.6106                 1.4547
 IR Inten    --      4.5242                 1.9706                25.3909

                     13                     14                     15
                      A                      A                      A
 Frequencies --    845.9638               858.4487               879.7834
 Red. masses --      2.5069                 5.3065                 2.5224
 Frc consts  --      1.0571                 2.3040                 1.1503
 IR Inten    --      1.5416                14.1774                16.5151

                     16                     17                     18
                      A                      A                      A
 Frequencies --    906.5690               918.3674               948.6170
 Red. masses --      2.7572                 2.1708                 2.6376
 Frc consts  --      1.3351                 1.0787                 1.3984
 IR Inten    --     32.4031                13.6118                 0.7964

                     19                     20                     21
                      A                      A                      A
 Frequencies --    969.0658              1001.1543              1003.4146
 Red. masses --      2.5325                 1.8678                 2.2534
 Frc consts  --      1.4012                 1.1030                 1.3368
 IR Inten    --     16.9810                17.3074                12.9371

                     22                     23                     24
                      A                      A                      A
 Frequencies --   1047.1375              1086.5438              1106.2434
 Red. masses --      1.5368                 1.3023                 1.4724
 Frc consts  --      0.9928                 0.9059                 1.0616
 IR Inten    --      7.6173                 0.8294                 1.4519

                     25                     26                     27
                      A                      A                      A
 Frequencies --   1156.7395              1159.1397              1162.7530
 Red. masses --      1.4418                 1.5972                 1.6768
 Frc consts  --      1.1366                 1.2644                 1.3357
 IR Inten    --      2.5904                 5.9144                 6.4096

                     28                     29                     30
                      A                      A                      A
 Frequencies --   1167.0452              1186.3460              1224.0660
 Red. masses --      1.4222                 1.5072                 1.5010
 Frc consts  --      1.1412                 1.2498                 1.3251
 IR Inten    --      1.6087                 0.7318                10.7894

                     31                     32                     33
                      A                      A                      A
 Frequencies --   1237.6719              1275.2283              1284.3734
 Red. masses --      1.1970                 2.2908                 1.3989
 Frc consts  --      1.0804                 2.1949                 1.3597
 IR Inten    --      0.2530                18.9223                 4.9410

                     34                     35                     36
                      A                      A                      A
 Frequencies --   1293.2657              1308.2698              1340.6116
 Red. masses --      1.6415                 1.5443                 1.7955
 Frc consts  --      1.6176                 1.5573                 1.9012
 IR Inten    --      3.1144                 5.8671                 6.7231

                     37                     38                     39
                      A                      A                      A
 Frequencies --   1448.6902              1481.3859              1482.9561
 Red. masses --      1.9406                 1.1080                 1.1332
 Frc consts  --      2.3996                 1.4326                 1.4683
 IR Inten    --      1.0033                 1.6119                 1.9563

                     40                     41                     42
                      A                      A                      A
 Frequencies --   1508.2870              1521.3609              3061.5845
 Red. masses --      1.1376                 1.4491                 1.0587
 Frc consts  --      1.5248                 1.9762                 5.8465
 IR Inten    --      2.0459                 2.1456                25.5853

                     43                     44                     45
                      A                      A                      A
 Frequencies --   3066.1370              3072.4915              3091.1301
 Red. masses --      1.0611                 1.0604                 1.0572
 Frc consts  --      5.8772                 5.8979                 5.9517
 IR Inten    --     23.9459                32.5438                25.7334

                     46                     47                     48
                      A                      A                      A
 Frequencies --   3099.6371              3108.3658              3125.3396
 Red. masses --      1.0814                 1.1066                 1.1055
 Frc consts  --      6.1216                 6.2996                 6.3620
 IR Inten    --     30.7950                 0.7928                37.1807

                     49                     50                     51
                      A                      A                      A
 Frequencies --   3129.5081              3156.2455              3192.5937
 Red. masses --      1.0925                 1.1057                 1.1181
 Frc consts  --      6.3040                 6.4900                 6.7146
 IR Inten    --     45.1331                14.6298                14.4850

 - Thermochemistry -
 -------------------
 Temperature   298.150 Kelvin.  Pressure   1.00000 Atm.
 Atom     1 has atomic number  6 and mass  12.00000

 Molecular mass:   126.06808 amu.
 Principal axes and moments of inertia in atomic units:
                           1         2         3
     Eigenvalues --   471.219861403.668311484.90898
           X            0.99985  -0.01079  -0.01366
           Y            0.01103   0.99979   0.01752
           Z            0.01346  -0.01767   0.99975
 This molecule is an asymmetric top.
 Rotational symmetry number  1.
 Warning -- assumption of classical behavior for rotation
           may cause significant error
 Rotational temperatures (Kelvin)      0.18381     0.06171     0.05833
 Rotational constants (GHZ):           3.82993     1.28573     1.21539
 Zero-point vibrational energy     421676.4 (Joules/Mol)
                                  100.78309 (Kcal/Mol)
 Warning -- explicit consideration of   8 degrees of freedom as
           vibrations may cause significant error
 Vibrational temperatures:    109.95   243.74   266.07   423.30   537.50
          (Kelvin)            619.20   683.37   816.13   928.78  1022.61
                             1192.27  1194.45  1217.15  1235.11  1265.81
                             1304.35  1321.32  1364.85  1394.27  1440.44
                             1443.69  1506.60  1563.29  1591.64  1664.29
                             1667.74  1672.94  1679.12  1706.89  1761.16
                             1780.73  1834.77  1847.92  1860.72  1882.31
                             1928.84  2084.34  2131.38  2133.64  2170.09
                             2188.90  4404.93  4411.48  4420.62  4447.44
                             4459.68  4472.24  4496.66  4502.66  4541.13
                             4593.42

 Zero-point correction=                           0.160608 (Hartree/Particle)
 Thermal correction to Energy=                    0.168007
 Thermal correction to Enthalpy=                  0.168952
 Thermal correction to Gibbs Free Energy=         0.128563
 Sum of electronic and zero-point Energies=           -422.982985
 Sum of electronic and thermal Energies=              -422.975585
 Sum of electronic and thermal Enthalpies=            -422.974641
 Sum of electronic and thermal Free Energies=         -423.015030

                     E (Thermal)             CV                S
                      KCal/Mol        Cal/Mol-Kelvin    Cal/Mol-Kelvin
 Total                  105.426             29.413             85.006
 Electronic               0.000              0.000              0.000
 Translational            0.889              2.981             40.409
 Rotational               0.889              2.981             28.376
 Vibrational            103.649             23.451             16.222
 Vibration     1          0.599              1.965              3.981
 Vibration     2          0.625              1.880              2.442
 Vibration     3          0.631              1.860              2.278
 Vibration     4          0.689              1.685              1.450
 Vibration     5          0.745              1.526              1.065
 Vibration     6          0.792              1.404              0.857
 Vibration     7          0.832              1.306              0.724
 Vibration     8          0.923              1.102              0.510

 Optimization completed.
    -- Stationary point found.
 Normal termination of Gaussian 09 at Mon Jan 27 12:49:12 2020.
