 Gaussian 09, Revision D.01,
 Gaussian 09:  ES64L-G09RevD.01 24-Apr-2013

 -----------------------------
 # b3lyp 6-31G(2df,p) opt Freq
 -----------------------------

 -----
 titel
 -----
 Symbolic Z-matrix:
 Charge =  0 Multiplicity = 1

 SCF Done:  E(RB3LYP) =  -423.087211720     A.U. after   13 cycles
 SCF Done:  E(RB3LYP) =  -423.087212134     A.U. after    6 cycles
 Optimization completed.
    -- Stationary point found.
 Normal termination of Gaussian 09 at Tue Jan 28 09:23:05 2020.

 ----------------------------------------------------------------------
 #N Geom=AllCheck Guess=TCheck SCRF=Check GenChk RB3LYP/6-31G(2df,p) Fr
 eq
 ----------------------------------------------------------------------

 Structure from the checkpoint file:  "/scratch/puck/g09_e0f6ee2b-f750-46c7-8da0-48ac956718e8/Gau-46295.chk"
 -----
 titel
 -----
 Charge =  0 Multiplicity = 1

                         Standard orientation:
 ---------------------------------------------------------------------
 Center     Atomic      Atomic             Coordinates (Angstroms)
 Number     Number       Type             X           Y           Z
 ---------------------------------------------------------------------
      1          6           0        2.768682   -0.335108    0.020276
      2          8           0        1.667625    0.341696   -0.568562
      3          6           0        0.455367   -0.010102   -0.026421
      4          6           0       -0.029892    0.510776    1.316066
      5          6           0       -0.832984    0.782053    0.073783
      6          8           0       -1.173550    2.078619   -0.250777
      7          6           0       -1.634667   -0.456502   -0.439364
      8          6           0       -1.450087   -1.715216    0.369868
      9          6           0       -0.344785   -1.250890   -0.541948
     10          1           0        2.688355   -1.423801   -0.105413
     11          1           0        3.668511    0.016937   -0.489001
     12          1           0        2.845798   -0.111247    1.092916
     13          1           0       -0.365791   -0.102706    2.146064
     14          1           0        0.525580    1.396710    1.612571
     15          1           0       -1.131788    2.170571   -1.209705
     16          1           0       -2.411620   -0.357286   -1.187984
     17          1           0       -1.354624   -1.702483    1.449496
     18          1           0       -2.010274   -2.570894    0.001316
     19          1           0        0.003451   -1.828392   -1.389108
 ---------------------------------------------------------------------

 SCF Done:  E(RB3LYP) =  -423.087212134     A.U. after    1 cycles

 The electronic state is 1-A.
 Alpha  occ. eigenvalues --  -19.14924 -19.14882 -10.23830 -10.23404 -10.22487
 Alpha  occ. eigenvalues --  -10.19123 -10.19048 -10.19028 -10.18050  -1.04649
 Alpha  occ. eigenvalues --   -1.03070  -0.90570  -0.79756  -0.69677  -0.64136
 Alpha  occ. eigenvalues --   -0.61777  -0.55923  -0.55014  -0.52867  -0.49814
 Alpha  occ. eigenvalues --   -0.47485  -0.45043  -0.44087  -0.41528  -0.39622
 Alpha  occ. eigenvalues --   -0.38658  -0.37764  -0.36332  -0.33111  -0.31562
 Alpha  occ. eigenvalues --   -0.29335  -0.27482  -0.24683  -0.20485
 Alpha virt. eigenvalues --    0.07486   0.08418   0.09802   0.10408   0.11777
 Alpha virt. eigenvalues --    0.13835   0.14688   0.15602   0.16059   0.17214
 Alpha virt. eigenvalues --    0.18281   0.18800   0.19610   0.21348   0.23298

 Mulliken charges:
               1
     1  C   -0.255516
     2  O   -0.277686
     3  C    0.344432
     4  C   -0.408241
     5  C    0.312172
     6  O   -0.447738
     7  C   -0.128901
     8  C   -0.300121
     9  C   -0.121305
    10  H    0.113580
    11  H    0.126679
    12  H    0.114362
    13  H    0.106704
    14  H    0.124204
    15  H    0.289186
    16  H    0.087646
    17  H    0.115881
    18  H    0.112341
    19  H    0.092319
 Sum of Mulliken charges =   0.00000

 Dipole moment (field-independent basis, Debye):
    X=              0.4413    Y=             -1.4144    Z=             -0.6112  Tot=              1.6027
 Quadrupole moment (field-independent basis, Debye-Ang):
   XX=            -51.1082   YY=            -54.4673   ZZ=            -50.2097
   XY=              0.8155   XZ=              3.5436   YZ=             -1.7964

  Exact polarizability:  82.879   1.869  74.940   1.662   0.324  68.482
 Approx polarizability: 113.032  -2.363 109.057   0.112  -1.454 106.455

                      1                      2                      3
                      A                      A                      A
 Frequencies --     87.9651               126.7536               173.3238
 Red. masses --      2.9144                 3.0574                 1.0981
 Frc consts  --      0.0133                 0.0289                 0.0194
 IR Inten    --      2.6853                 5.7530                 0.6241

                      4                      5                      6
                      A                      A                      A
 Frequencies --    212.2837               286.9765               333.0175
 Red. masses --      2.8368                 2.0475                 1.6707
 Frc consts  --      0.0753                 0.0994                 0.1092
 IR Inten    --      2.4396                12.5572                87.6298

                      7                      8                      9
                      A                      A                      A
 Frequencies --    357.8378               360.7410               458.6266
 Red. masses --      3.0184                 4.2974                 3.2298
 Frc consts  --      0.2277                 0.3295                 0.4003
 IR Inten    --      2.0127                 2.7423                 1.6792

                     10                     11                     12
                      A                      A                      A
 Frequencies --    479.9186               544.0051               594.5039
 Red. masses --      2.1267                 3.9838                 3.1066
 Frc consts  --      0.2886                 0.6946                 0.6469
 IR Inten    --      1.3546                 5.8895                 7.4074

                     13                     14                     15
                      A                      A                      A
 Frequencies --    717.4785               767.1951               789.8314
 Red. masses --      4.1701                 1.1884                 4.3692
 Frc consts  --      1.2648                 0.4121                 1.6059
 IR Inten    --      8.5544                 9.6826                 5.6094

                     16                     17                     18
                      A                      A                      A
 Frequencies --    824.8758               857.7080               900.6789
 Red. masses --      1.5121                 3.9298                 4.0746
 Frc consts  --      0.6062                 1.7033                 1.9475
 IR Inten    --     11.7627                18.2158                 4.8008

                     19                     20                     21
                      A                      A                      A
 Frequencies --    930.3726               982.9336               987.4415
 Red. masses --      2.1094                 1.8223                 1.6266
 Frc consts  --      1.0758                 1.0374                 0.9344
 IR Inten    --      8.3345                 2.9786                 4.5341

                     22                     23                     24
                      A                      A                      A
 Frequencies --   1021.7122              1048.7139              1063.0784
 Red. masses --      1.5683                 1.2980                 1.5704
 Frc consts  --      0.9646                 0.8411                 1.0456
 IR Inten    --      3.4643                 2.6238                 6.9816

                     25                     26                     27
                      A                      A                      A
 Frequencies --   1064.0756              1089.5010              1125.0758
 Red. masses --      2.7487                 1.3631                 2.0253
 Frc consts  --      1.8336                 0.9533                 1.5104
 IR Inten    --     30.8294                 5.7797                20.7344

                     28                     29                     30
                      A                      A                      A
 Frequencies --   1155.1825              1179.2812              1205.1225
 Red. masses --      1.8044                 1.2878                 1.7974
 Frc consts  --      1.4187                 1.0552                 1.5380
 IR Inten    --     43.9240                 3.7146                52.7322

                     31                     32                     33
                      A                      A                      A
 Frequencies --   1219.1044              1230.5875              1292.7821
 Red. masses --      2.5785                 1.6826                 2.3972
 Frc consts  --      2.2579                 1.5013                 2.3605
 IR Inten    --      8.6412                33.6934                99.4111

                     34                     35                     36
                      A                      A                      A
 Frequencies --   1312.1814              1350.5136              1412.5328
 Red. masses --      2.8414                 2.1121                 1.4895
 Frc consts  --      2.8825                 2.2696                 1.7511
 IR Inten    --    110.4032                85.7894                 9.9165

                     37                     38                     39
                      A                      A                      A
 Frequencies --   1472.2578              1485.9526              1494.7139
 Red. masses --      1.2258                 1.0562                 1.3333
 Frc consts  --      1.5654                 1.3740                 1.7551
 IR Inten    --      2.7749                 3.5969                 1.6142

                     40                     41                     42
                      A                      A                      A
 Frequencies --   1505.3867              1524.5554              2995.8172
 Red. masses --      1.0537                 1.7431                 1.0341
 Frc consts  --      1.4069                 2.3871                 5.4683
 IR Inten    --      8.1024                19.1332                50.5495

                     43                     44                     45
                      A                      A                      A
 Frequencies --   3051.4587              3112.6593              3122.3419
 Red. masses --      1.1041                 1.0544                 1.0992
 Frc consts  --      6.0571                 6.0190                 6.3135
 IR Inten    --     40.3659                 8.2321                30.9261

                     46                     47                     48
                      A                      A                      A
 Frequencies --   3127.2383              3179.1687              3190.8828
 Red. masses --      1.0554                 1.0903                 1.1004
 Frc consts  --      6.0815                 6.4928                 6.6014
 IR Inten    --     23.1731                14.7312                 4.2491

                     49                     50                     51
                      A                      A                      A
 Frequencies --   3198.8391              3207.0362              3785.6624
 Red. masses --      1.1111                 1.1111                 1.0659
 Frc consts  --      6.6987                 6.7330                 9.0005
 IR Inten    --      8.0005                21.2888                22.1326

 - Thermochemistry -
 -------------------
 Temperature   298.150 Kelvin.  Pressure   1.00000 Atm.
 Atom     1 has atomic number  6 and mass  12.00000

 Molecular mass:   126.06808 amu.
 Principal axes and moments of inertia in atomic units:
                           1         2         3
     Eigenvalues --   754.007571145.322741541.36975
           X            0.99963   0.02236   0.01526
           Y           -0.02235   0.99975  -0.00102
           Z           -0.01528   0.00068   0.99988
 This molecule is an asymmetric top.
 Rotational symmetry number  1.
 Warning -- assumption of classical behavior for rotation
           may cause significant error
 Rotational temperatures (Kelvin)      0.11487     0.07562     0.05619
 Rotational constants (GHZ):           2.39353     1.57575     1.17087
 Zero-point vibrational energy     412699.0 (Joules/Mol)
                                   98.63743 (Kcal/Mol)
 Warning -- explicit consideration of  12 degrees of freedom as
           vibrations may cause significant error
 Vibrational temperatures:    126.56   182.37   249.37   305.43   412.89
          (Kelvin)            479.14   514.85   519.03   659.86   690.49
                              782.70   855.36  1032.29  1103.82  1136.39
                             1186.81  1234.05  1295.87  1338.60  1414.22
                             1420.71  1470.01  1508.86  1529.53  1530.97
                             1567.55  1618.73  1662.05  1696.72  1733.90
                             1754.02  1770.54  1860.02  1887.93  1943.09
                             2032.32  2118.25  2137.95  2150.56  2165.91
                             2193.49  4310.31  4390.36  4478.42  4492.35
                             4499.39  4574.11  4590.96  4602.41  4614.20
                             5446.72

 Zero-point correction=                           0.157189 (Hartree/Particle)
 Thermal correction to Energy=                    0.165891
 Thermal correction to Enthalpy=                  0.166835
 Thermal correction to Gibbs Free Energy=         0.124055
 Sum of electronic and zero-point Energies=           -422.930023
 Sum of electronic and thermal Energies=              -422.921322
 Sum of electronic and thermal Enthalpies=            -422.920377
 Sum of electronic and thermal Free Energies=         -422.963157

                     E (Thermal)             CV                S
                      KCal/Mol        Cal/Mol-Kelvin    Cal/Mol-Kelvin
 Total                  104.098             33.674             90.037
 Electronic               0.000              0.000              0.000
 Translational            0.889              2.981             40.409
 Rotational               0.889              2.981             28.678
 Vibrational            102.320             27.712             20.950
 Vibration     1          0.601              1.958              3.705
 Vibration     2          0.611              1.926              2.995
 Vibration     3          0.627              1.875              2.399
 Vibration     4          0.643              1.822              2.024
 Vibration     5          0.684              1.698              1.492
 Vibration     6          0.715              1.610              1.245
 Vibration     7          0.733              1.559              1.131
 Vibration     8          0.735              1.553              1.119
 Vibration     9          0.817              1.342              0.770
 Vibration    10          0.836              1.295              0.710
 Vibration    11          0.899              1.153              0.557
 Vibration    12          0.952              1.043              0.459

 Normal termination of Gaussian 09 at Tue Jan 28 10:08:49 2020.
