 Gaussian 09, Revision D.01,
 Gaussian 09:  ES64L-G09RevD.01 24-Apr-2013

 -----------------------------
 # b3lyp 6-31G(2df,p) opt Freq
 -----------------------------

 -----
 titel
 -----
 Symbolic Z-matrix:
 Charge =  0 Multiplicity = 1

 SCF Done:  E(RB3LYP) =  -423.160221582     A.U. after   13 cycles
 Optimization completed.
    -- Stationary point found.
 Normal termination of Gaussian 09 at Mon Jan 27 22:03:39 2020.

 ----------------------------------------------------------------------
 #N Geom=AllCheck Guess=TCheck SCRF=Check GenChk RB3LYP/6-31G(2df,p) Fr
 eq
 ----------------------------------------------------------------------

 Structure from the checkpoint file:  "/scratch/puck/g09_951dc440-8816-411a-af4f-1e9f81d804c9/Gau-53247.chk"
 -----
 titel
 -----
 Charge =  0 Multiplicity = 1

                         Standard orientation:
 ---------------------------------------------------------------------
 Center     Atomic      Atomic             Coordinates (Angstroms)
 Number     Number       Type             X           Y           Z
 ---------------------------------------------------------------------
      1          6           0       -2.027121   -1.646701    0.182554
      2          6           0       -1.075483   -0.528898   -0.128817
      3          6           0        0.225298   -0.655833   -0.350395
      4          6           0        1.370531   -1.582378   -0.024736
      5          8           0        2.201251   -0.413721    0.247431
      6          6           0        1.215902    0.469017   -0.358576
      7          6           0        0.630666    1.630571    0.435270
      8          8           0       -0.623955    1.909441   -0.183704
      9          6           0       -1.606835    0.889665   -0.063684
     10          1           0       -2.520220   -1.491368    1.150401
     11          1           0       -2.824278   -1.713593   -0.568895
     12          1           0       -1.515282   -2.612108    0.210617
     13          1           0        1.258954   -2.232037    0.851470
     14          1           0        1.776877   -2.170128   -0.859774
     15          1           0        1.560491    0.812180   -1.343502
     16          1           0        0.521444    1.344743    1.491950
     17          1           0        1.207942    2.556349    0.371315
     18          1           0       -2.336226    1.089518   -0.858751
     19          1           0       -2.145812    0.998019    0.895655
 ---------------------------------------------------------------------

 SCF Done:  E(RB3LYP) =  -423.160221581     A.U. after    1 cycles

 The electronic state is 1-A.
 Alpha  occ. eigenvalues --  -19.14427 -19.13596 -10.23748 -10.23596 -10.22852
 Alpha  occ. eigenvalues --  -10.22797 -10.19471 -10.19137 -10.18528  -1.04245
 Alpha  occ. eigenvalues --   -1.02813  -0.81258  -0.75740  -0.71355  -0.69388
 Alpha  occ. eigenvalues --   -0.61970  -0.60861  -0.52784  -0.50089  -0.49199
 Alpha  occ. eigenvalues --   -0.46526  -0.45616  -0.43683  -0.41614  -0.40986
 Alpha  occ. eigenvalues --   -0.40421  -0.38659  -0.37876  -0.35420  -0.31765
 Alpha  occ. eigenvalues --   -0.30002  -0.27069  -0.25162  -0.23369
 Alpha virt. eigenvalues --    0.01271   0.07335   0.09098   0.10432   0.12194
 Alpha virt. eigenvalues --    0.13660   0.14844   0.15351   0.16388   0.16902
 Alpha virt. eigenvalues --    0.17785   0.18293   0.18658   0.19846   0.20847

 Mulliken charges:
               1
     1  C   -0.485350
     2  C    0.111565
     3  C    0.142650
     4  C   -0.158810
     5  O   -0.306208
     6  C    0.088993
     7  C   -0.126757
     8  O   -0.255938
     9  C   -0.130388
    10  H    0.128410
    11  H    0.131757
    12  H    0.127714
    13  H    0.115252
    14  H    0.106711
    15  H    0.085513
    16  H    0.096590
    17  H    0.110044
    18  H    0.119663
    19  H    0.098589
 Sum of Mulliken charges =   0.00000

 Dipole moment (field-independent basis, Debye):
    X=             -1.6256    Y=             -1.3538    Z=              0.1237  Tot=              2.1191
 Quadrupole moment (field-independent basis, Debye-Ang):
   XX=            -54.9940   YY=            -52.6990   ZZ=            -52.9018
   XY=              2.1215   XZ=             -1.7498   YZ=              0.7438

  Exact polarizability:  94.910   0.254  81.919  -3.555  -0.689  59.687
 Approx polarizability: 141.380  -2.385 111.599  -5.315  -2.190  93.464

                      1                      2                      3
                      A                      A                      A
 Frequencies --    141.4151               149.9181               167.5976
 Red. masses --      1.3269                 2.3785                 1.9297
 Frc consts  --      0.0156                 0.0315                 0.0319
 IR Inten    --      0.3210                 1.1216                 0.5020

                      4                      5                      6
                      A                      A                      A
 Frequencies --    217.5674               271.7079               292.1497
 Red. masses --      2.7208                 3.3157                 2.1533
 Frc consts  --      0.0759                 0.1442                 0.1083
 IR Inten    --      0.0322                11.5788                 4.5146

                      7                      8                      9
                      A                      A                      A
 Frequencies --    409.6316               430.2871               466.6468
 Red. masses --      3.8736                 2.9529                 4.6438
 Frc consts  --      0.3830                 0.3221                 0.5958
 IR Inten    --      2.9239                 2.2147                 2.0808

                     10                     11                     12
                      A                      A                      A
 Frequencies --    524.9867               623.3703               668.9743
 Red. masses --      3.8639                 4.3170                 2.9401
 Frc consts  --      0.6274                 0.9884                 0.7752
 IR Inten    --      2.7425                 1.7703                 6.9250

                     13                     14                     15
                      A                      A                      A
 Frequencies --    831.6227               902.5223               931.8956
 Red. masses --      3.6531                 2.7468                 2.5057
 Frc consts  --      1.4885                 1.3183                 1.2821
 IR Inten    --     15.6277                15.2663                 8.8538

                     16                     17                     18
                      A                      A                      A
 Frequencies --    945.8244               967.3017               975.9284
 Red. masses --      1.7130                 3.5786                 3.0909
 Frc consts  --      0.9029                 1.9728                 1.7345
 IR Inten    --      2.6572                25.5094                70.3040

                     19                     20                     21
                      A                      A                      A
 Frequencies --   1003.9565              1047.5435              1079.6417
 Red. masses --      1.8065                 2.0711                 1.9903
 Frc consts  --      1.0728                 1.3391                 1.3669
 IR Inten    --     15.1715                10.8536                10.0632

                     22                     23                     24
                      A                      A                      A
 Frequencies --   1099.8210              1122.1328              1130.2929
 Red. masses --      3.8276                 2.6271                 1.9972
 Frc consts  --      2.7278                 1.9490                 1.5033
 IR Inten    --     57.1952                 6.8422                 2.9005

                     25                     26                     27
                      A                      A                      A
 Frequencies --   1136.7199              1150.2115              1223.9139
 Red. masses --      2.2783                 1.6239                 1.4033
 Frc consts  --      1.7345                 1.2658                 1.2385
 IR Inten    --      4.1939                 0.3311                 8.3524

                     28                     29                     30
                      A                      A                      A
 Frequencies --   1247.1790              1271.7393              1287.5000
 Red. masses --      1.5294                 1.9609                 1.1988
 Frc consts  --      1.4016                 1.8685                 1.1708
 IR Inten    --     13.5931                 2.0139                 2.6963

                     31                     32                     33
                      A                      A                      A
 Frequencies --   1328.4202              1359.0309              1374.8791
 Red. masses --      1.3855                 1.4762                 1.4065
 Frc consts  --      1.4405                 1.6064                 1.5665
 IR Inten    --      7.7418                 3.6644                 5.5680

                     34                     35                     36
                      A                      A                      A
 Frequencies --   1402.8154              1413.0209              1478.5626
 Red. masses --      1.4532                 1.2428                 1.0457
 Frc consts  --      1.6849                 1.4620                 1.3468
 IR Inten    --      1.2248                 3.1629                 5.1507

                     37                     38                     39
                      A                      A                      A
 Frequencies --   1484.7844              1491.3771              1502.2211
 Red. masses --      1.0772                 1.0579                 1.0916
 Frc consts  --      1.3992                 1.3864                 1.4514
 IR Inten    --      0.7172                 5.0935                 3.2801

                     40                     41                     42
                      A                      A                      A
 Frequencies --   1512.3858              1808.8700              2938.4051
 Red. masses --      1.1076                 9.5399                 1.0721
 Frc consts  --      1.4927                18.3912                 5.4539
 IR Inten    --      1.0505                 1.2282                62.2863

                     43                     44                     45
                      A                      A                      A
 Frequencies --   2997.2897              3000.4608              3013.5486
 Red. masses --      1.0656                 1.0639                 1.0800
 Frc consts  --      5.6404                 5.6434                 5.7787
 IR Inten    --     59.5702                40.1817                75.3341

                     46                     47                     48
                      A                      A                      A
 Frequencies --   3018.1865              3039.8615              3053.7936
 Red. masses --      1.0389                 1.0871                 1.1032
 Frc consts  --      5.5758                 5.9190                 6.0614
 IR Inten    --     27.9710                32.4054                33.1378

                     49                     50                     51
                      A                      A                      A
 Frequencies --   3064.9890              3098.9974              3113.4594
 Red. masses --      1.0988                 1.0986                 1.0987
 Frc consts  --      6.0816                 6.2163                 6.2748
 IR Inten    --     19.2887                42.7031                16.9954

 - Thermochemistry -
 -------------------
 Temperature   298.150 Kelvin.  Pressure   1.00000 Atm.
 Atom     1 has atomic number  6 and mass  12.00000

 Molecular mass:   126.06808 amu.
 Principal axes and moments of inertia in atomic units:
                           1         2         3
     Eigenvalues --   802.73457 987.106261673.07892
           X            0.99225   0.12373  -0.01180
           Y           -0.12372   0.99232   0.00197
           Z            0.01196  -0.00050   0.99993
 This molecule is an asymmetric top.
 Rotational symmetry number  1.
 Warning -- assumption of classical behavior for rotation
           may cause significant error
 Rotational temperatures (Kelvin)      0.10790     0.08775     0.05177
 Rotational constants (GHZ):           2.24824     1.82832     1.07869
 Zero-point vibrational energy     419981.1 (Joules/Mol)
                                  100.37789 (Kcal/Mol)
 Warning -- explicit consideration of  10 degrees of freedom as
           vibrations may cause significant error
 Vibrational temperatures:    203.46   215.70   241.14   313.03   390.93
          (Kelvin)            420.34   589.37   619.09   671.40   755.34
                              896.89   962.50  1196.52  1298.53  1340.79
                             1360.83  1391.73  1404.14  1444.47  1507.18
                             1553.36  1582.40  1614.50  1626.24  1635.48
                             1654.90  1760.94  1794.41  1829.75  1852.42
                             1911.30  1955.34  1978.14  2018.34  2033.02
                             2127.32  2136.27  2145.76  2161.36  2175.98
                             2602.56  4227.70  4312.43  4316.99  4335.82
                             4342.49  4373.68  4393.72  4409.83  4458.76
                             4479.57

 Zero-point correction=                           0.159962 (Hartree/Particle)
 Thermal correction to Energy=                    0.168067
 Thermal correction to Enthalpy=                  0.169011
 Thermal correction to Gibbs Free Energy=         0.127439
 Sum of electronic and zero-point Energies=           -423.000259
 Sum of electronic and thermal Energies=              -422.992154
 Sum of electronic and thermal Enthalpies=            -422.991210
 Sum of electronic and thermal Free Energies=         -423.032783

                     E (Thermal)             CV                S
                      KCal/Mol        Cal/Mol-Kelvin    Cal/Mol-Kelvin
 Total                  105.464             30.900             87.497
 Electronic               0.000              0.000              0.000
 Translational            0.889              2.981             40.409
 Rotational               0.889              2.981             28.674
 Vibrational            103.686             24.938             18.415
 Vibration     1          0.615              1.912              2.785
 Vibration     2          0.618              1.903              2.673
 Vibration     3          0.624              1.882              2.462
 Vibration     4          0.646              1.814              1.979
 Vibration     5          0.675              1.725              1.585
 Vibration     6          0.688              1.688              1.461
 Vibration     7          0.774              1.449              0.928
 Vibration     8          0.791              1.404              0.858
 Vibration     9          0.824              1.324              0.747
 Vibration    10          0.880              1.195              0.599

 Optimization completed.
    -- Stationary point found.
 Normal termination of Gaussian 09 at Mon Jan 27 22:52:18 2020.
