 Gaussian 09, Revision D.01,
 Gaussian 09:  ES64L-G09RevD.01 24-Apr-2013

 -----------------------------
 # b3lyp 6-31G(2df,p) opt Freq
 -----------------------------

 -----
 titel
 -----
 Symbolic Z-matrix:
 Charge =  0 Multiplicity = 1

 SCF Done:  E(RB3LYP) =  -423.210870040     A.U. after   14 cycles
 Optimization completed.
    -- Stationary point found.
 Normal termination of Gaussian 09 at Tue Jan 28 03:56:42 2020.

 ----------------------------------------------------------------------
 #N Geom=AllCheck Guess=TCheck SCRF=Check GenChk RB3LYP/6-31G(2df,p) Fr
 eq
 ----------------------------------------------------------------------

 Structure from the checkpoint file:  "/scratch/puck/g09_fca6dacb-263e-4ccb-a2ac-549a8d642657/Gau-3139.chk"
 -----
 titel
 -----
 Charge =  0 Multiplicity = 1

                         Standard orientation:
 ---------------------------------------------------------------------
 Center     Atomic      Atomic             Coordinates (Angstroms)
 Number     Number       Type             X           Y           Z
 ---------------------------------------------------------------------
      1          6           0       -2.819545   -0.613093    0.214370
      2          6           0       -1.361001   -0.175579    0.298830
      3          6           0       -1.182882    1.299095   -0.064967
      4          6           0        0.221913    1.819467   -0.090586
      5          6           0        1.397106    1.176390   -0.041960
      6          6           0        1.711990   -0.267061    0.052192
      7          8           0        2.854576   -0.619556    0.278163
      8          6           0        0.658417   -1.363922   -0.139625
      9          8           0       -0.611789   -0.984859   -0.600016
     10          1           0       -3.450410   -0.005017    0.870016
     11          1           0       -3.185147   -0.510951   -0.812174
     12          1           0       -2.919231   -1.660836    0.508658
     13          1           0       -0.993335   -0.336283    1.324862
     14          1           0       -1.628890    1.473249   -1.056105
     15          1           0       -1.768518    1.918867    0.628226
     16          1           0        0.277675    2.905774   -0.157175
     17          1           0        2.307681    1.770603   -0.041380
     18          1           0        1.067274   -2.062040   -0.876217
     19          1           0        0.594620   -1.909825    0.816602
 ---------------------------------------------------------------------

 SCF Done:  E(RB3LYP) =  -423.210870040     A.U. after    1 cycles

 The electronic state is 1-A.
 Alpha  occ. eigenvalues --  -19.14763 -19.12221 -10.26454 -10.24534 -10.23524
 Alpha  occ. eigenvalues --  -10.21529 -10.20188 -10.19290 -10.18355  -1.04695
 Alpha  occ. eigenvalues --   -1.03007  -0.82102  -0.78528  -0.70901  -0.69973
 Alpha  occ. eigenvalues --   -0.63368  -0.58207  -0.53456  -0.50606  -0.49134
 Alpha  occ. eigenvalues --   -0.46842  -0.44300  -0.42436  -0.41921  -0.41244
 Alpha  occ. eigenvalues --   -0.40935  -0.39262  -0.37785  -0.35018  -0.34482
 Alpha  occ. eigenvalues --   -0.32257  -0.27965  -0.27056  -0.23562
 Alpha virt. eigenvalues --   -0.05330   0.06485   0.07562   0.10025   0.10856
 Alpha virt. eigenvalues --    0.12928   0.14761   0.15255   0.16591   0.16801
 Alpha virt. eigenvalues --    0.17437   0.18157   0.18841   0.21118   0.22246

 Mulliken charges:
               1
     1  C   -0.394345
     2  C    0.105456
     3  C   -0.246362
     4  C   -0.045571
     5  C   -0.138567
     6  C    0.320288
     7  O   -0.323348
     8  C   -0.188794
     9  O   -0.248865
    10  H    0.114746
    11  H    0.128252
    12  H    0.124539
    13  H    0.075269
    14  H    0.128815
    15  H    0.113268
    16  H    0.108290
    17  H    0.108092
    18  H    0.140577
    19  H    0.118261
 Sum of Mulliken charges =   0.00000

 Dipole moment (field-independent basis, Debye):
    X=             -3.1502    Y=              1.6019    Z=              0.4405  Tot=              3.5614
 Quadrupole moment (field-independent basis, Debye-Ang):
   XX=            -61.2194   YY=            -49.6708   ZZ=            -53.5712
   XY=              0.9899   XZ=             -2.6878   YZ=             -0.7487

  Exact polarizability: 101.167  -9.286  83.623   0.819  -1.537  54.794
 Approx polarizability: 150.579 -27.967 121.169   5.494  -2.588  88.828

                      1                      2                      3
                      A                      A                      A
 Frequencies --     55.9924               119.0093               212.9183
 Red. masses --      4.0055                 2.4360                 2.0405
 Frc consts  --      0.0074                 0.0203                 0.0545
 IR Inten    --      3.2941                 0.2748                 3.4794

                      4                      5                      6
                      A                      A                      A
 Frequencies --    217.4225               316.1539               318.9399
 Red. masses --      1.3172                 2.7552                 2.4818
 Frc consts  --      0.0367                 0.1623                 0.1487
 IR Inten    --      0.5376                 1.0309                 4.0124

                      7                      8                      9
                      A                      A                      A
 Frequencies --    353.2896               355.9947               446.3482
 Red. masses --      4.1814                 4.5645                 2.9488
 Frc consts  --      0.3075                 0.3408                 0.3461
 IR Inten    --      8.2249                 6.1957                 0.6062

                     10                     11                     12
                      A                      A                      A
 Frequencies --    497.8209               549.1935               630.2776
 Red. masses --      3.9002                 2.2649                 4.2150
 Frc consts  --      0.5695                 0.4025                 0.9865
 IR Inten    --     12.5247                 0.2023                 6.6143

                     13                     14                     15
                      A                      A                      A
 Frequencies --    670.4815               751.0068               819.3853
 Red. masses --      3.7505                 1.7153                 2.3519
 Frc consts  --      0.9934                 0.5700                 0.9303
 IR Inten    --      4.8557                13.3243                14.8425

                     16                     17                     18
                      A                      A                      A
 Frequencies --    851.1385               897.3646               918.4221
 Red. masses --      3.4638                 2.2543                 1.5744
 Frc consts  --      1.4784                 1.0695                 0.7824
 IR Inten    --      2.2779                11.1574                 7.1764

                     19                     20                     21
                      A                      A                      A
 Frequencies --    989.4262              1014.9481              1038.1901
 Red. masses --      1.8812                 2.2994                 1.2165
 Frc consts  --      1.0850                 1.3955                 0.7725
 IR Inten    --      5.1861                 2.1154                 0.2148

                     22                     23                     24
                      A                      A                      A
 Frequencies --   1070.1393              1123.3191              1148.3748
 Red. masses --      2.6000                 1.9803                 2.1093
 Frc consts  --      1.7543                 1.4723                 1.6389
 IR Inten    --      7.9167                 1.1675                10.4298

                     25                     26                     27
                      A                      A                      A
 Frequencies --   1161.7840              1216.4266              1249.9461
 Red. masses --      4.8621                 1.6242                 1.2746
 Frc consts  --      3.8666                 1.4160                 1.1733
 IR Inten    --    100.8120                42.3427                 1.9479

                     28                     29                     30
                      A                      A                      A
 Frequencies --   1292.4690              1297.9911              1338.8954
 Red. masses --      1.1886                 1.8078                 1.3237
 Frc consts  --      1.1698                 1.7945                 1.3980
 IR Inten    --      8.7018                75.8460                12.4646

                     31                     32                     33
                      A                      A                      A
 Frequencies --   1370.2869              1400.6347              1403.7746
 Red. masses --      1.3088                 1.2515                 1.6742
 Frc consts  --      1.4480                 1.4465                 1.9438
 IR Inten    --     20.1990                 6.6550                 7.9029

                     34                     35                     36
                      A                      A                      A
 Frequencies --   1411.2775              1423.5623              1447.2789
 Red. masses --      1.3216                 1.4108                 1.1070
 Frc consts  --      1.5509                 1.6845                 1.3661
 IR Inten    --      9.4458                10.2145                 6.9346

                     37                     38                     39
                      A                      A                      A
 Frequencies --   1456.1697              1485.5278              1497.0513
 Red. masses --      1.0954                 1.0501                 1.0580
 Frc consts  --      1.3685                 1.3653                 1.3970
 IR Inten    --      5.0817                 3.9726                 2.4930

                     40                     41                     42
                      A                      A                      A
 Frequencies --   1695.9459              1753.3896              2971.1676
 Red. masses --      7.2331                11.5994                 1.0741
 Frc consts  --     12.2575                21.0108                 5.5864
 IR Inten    --     41.6049               183.3099                11.6659

                     43                     44                     45
                      A                      A                      A
 Frequencies --   2979.2475              3001.9143              3034.7111
 Red. masses --      1.0784                 1.0626                 1.0946
 Frc consts  --      5.6395                 5.6418                 5.9395
 IR Inten    --     38.7554                16.8460                16.3528

                     46                     47                     48
                      A                      A                      A
 Frequencies --   3042.1055              3090.4455              3114.5875
 Red. masses --      1.0370                 1.0901                 1.1017
 Frc consts  --      5.6543                 6.1341                 6.2966
 IR Inten    --     18.1065                11.8856                22.7518

                     49                     50                     51
                      A                      A                      A
 Frequencies --   3124.2254              3128.9799              3166.4269
 Red. masses --      1.1020                 1.0852                 1.0915
 Frc consts  --      6.3374                 6.2596                 6.4481
 IR Inten    --     18.4564                12.2318                11.9405

 - Thermochemistry -
 -------------------
 Temperature   298.150 Kelvin.  Pressure   1.00000 Atm.
 Atom     1 has atomic number  6 and mass  12.00000

 Molecular mass:   126.06808 amu.
 Principal axes and moments of inertia in atomic units:
                           1         2         3
     Eigenvalues --   608.526981408.718331906.89264
           X            0.99990   0.01075  -0.00903
           Y           -0.01085   0.99988  -0.01079
           Z            0.00891   0.01089   0.99990
 This molecule is an asymmetric top.
 Rotational symmetry number  1.
 Warning -- assumption of classical behavior for rotation
           may cause significant error
 Rotational temperatures (Kelvin)      0.14233     0.06148     0.04542
 Rotational constants (GHZ):           2.96575     1.28112     0.94643
 Zero-point vibrational energy     418225.1 (Joules/Mol)
                                   99.95820 (Kcal/Mol)
 Warning -- explicit consideration of  11 degrees of freedom as
           vibrations may cause significant error
 Vibrational temperatures:     80.56   171.23   306.34   312.82   454.87
          (Kelvin)            458.88   508.30   512.20   642.19   716.25
                              790.17   906.83   964.67  1080.53  1178.91
                             1224.60  1291.11  1321.40  1423.56  1460.28
                             1493.72  1539.69  1616.20  1652.25  1671.55
                             1750.16  1798.39  1859.57  1867.52  1926.37
                             1971.53  2015.20  2019.72  2030.51  2048.19
                             2082.31  2095.10  2137.34  2153.92  2440.08
                             2522.73  4274.84  4286.47  4319.08  4366.27
                             4376.91  4446.46  4481.19  4495.06  4501.90
                             4555.78

 Zero-point correction=                           0.159294 (Hartree/Particle)
 Thermal correction to Energy=                    0.167841
 Thermal correction to Enthalpy=                  0.168785
 Thermal correction to Gibbs Free Energy=         0.125845
 Sum of electronic and zero-point Energies=           -423.051577
 Sum of electronic and thermal Energies=              -423.043029
 Sum of electronic and thermal Enthalpies=            -423.042085
 Sum of electronic and thermal Free Energies=         -423.085025

                     E (Thermal)             CV                S
                      KCal/Mol        Cal/Mol-Kelvin    Cal/Mol-Kelvin
 Total                  105.322             32.295             90.375
 Electronic               0.000              0.000              0.000
 Translational            0.889              2.981             40.409
 Rotational               0.889              2.981             28.882
 Vibrational            103.544             26.333             21.084
 Vibration     1          0.596              1.975              4.594
 Vibration     2          0.609              1.933              3.116
 Vibration     3          0.644              1.821              2.019
 Vibration     4          0.646              1.815              1.980
 Vibration     5          0.703              1.643              1.330
 Vibration     6          0.705              1.637              1.316
 Vibration     7          0.729              1.569              1.151
 Vibration     8          0.732              1.563              1.140
 Vibration     9          0.806              1.369              0.807
 Vibration    10          0.853              1.255              0.664
 Vibration    11          0.904              1.141              0.546

 Optimization completed.
    -- Stationary point found.
 Normal termination of Gaussian 09 at Tue Jan 28 04:41:14 2020.
