 Gaussian 09, Revision D.01,
 Gaussian 09:  ES64L-G09RevD.01 24-Apr-2013

 -----------------------------
 # b3lyp 6-31G(2df,p) opt Freq
 -----------------------------

 -----
 titel
 -----
 Symbolic Z-matrix:
 Charge =  0 Multiplicity = 1

 SCF Done:  E(RB3LYP) =  -423.212533901     A.U. after   14 cycles
 Optimization completed.
    -- Stationary point found.
 Normal termination of Gaussian 09 at Mon Jan 27 18:28:31 2020.

 ----------------------------------------------------------------------
 #N Geom=AllCheck Guess=TCheck SCRF=Check GenChk RB3LYP/6-31G(2df,p) Fr
 eq
 ----------------------------------------------------------------------

 Structure from the checkpoint file:  "/scratch/puck/g09_82e1462d-5df5-49b3-8d73-445797e742a1/Gau-62827.chk"
 -----
 titel
 -----
 Charge =  0 Multiplicity = 1

                         Standard orientation:
 ---------------------------------------------------------------------
 Center     Atomic      Atomic             Coordinates (Angstroms)
 Number     Number       Type             X           Y           Z
 ---------------------------------------------------------------------
      1          6           0       -2.265594   -0.408136    0.090826
      2          6           0       -0.753888   -0.353889    0.039702
      3          6           0        0.017742   -0.904854    1.274148
      4          6           0        1.459672   -0.293363    1.135569
      5          6           0        1.344743    0.533252   -0.155461
      6          8           0        1.235171   -0.365580   -1.266253
      7          6           0       -0.085441   -0.962682   -1.207674
      8          6           0       -0.100189    1.038243   -0.035925
      9          8           0       -0.578010    2.135231    0.012388
     10          1           0       -2.640634    0.146155    0.956504
     11          1           0       -2.704402    0.042330   -0.804946
     12          1           0       -2.627644   -1.438914    0.165356
     13          1           0       -0.464915   -0.578188    2.199767
     14          1           0        0.026024   -1.998615    1.273995
     15          1           0        1.715834    0.336692    1.992746
     16          1           0        2.233572   -1.056225    1.026597
     17          1           0        2.124186    1.265311   -0.355796
     18          1           0       -0.633610   -0.713229   -2.125525
     19          1           0        0.012037   -2.053953   -1.144884
 ---------------------------------------------------------------------

 SCF Done:  E(RB3LYP) =  -423.212533901     A.U. after    1 cycles

 The electronic state is 1-A.
 Alpha  occ. eigenvalues --  -19.14704 -19.14558 -10.26893 -10.23810 -10.23750
 Alpha  occ. eigenvalues --  -10.20651 -10.19926 -10.19457 -10.18569  -1.06010
 Alpha  occ. eigenvalues --   -1.03727  -0.84143  -0.77816  -0.70344  -0.68469
 Alpha  occ. eigenvalues --   -0.64330  -0.56724  -0.53692  -0.50234  -0.48691
 Alpha  occ. eigenvalues --   -0.46626  -0.44382  -0.42396  -0.41033  -0.40818
 Alpha  occ. eigenvalues --   -0.39076  -0.38487  -0.37356  -0.37264  -0.36033
 Alpha  occ. eigenvalues --   -0.33865  -0.32012  -0.27092  -0.22704
 Alpha virt. eigenvalues --   -0.02126   0.07346   0.09741   0.11269   0.13045
 Alpha virt. eigenvalues --    0.14145   0.14490   0.15471   0.16169   0.16600
 Alpha virt. eigenvalues --    0.16962   0.17777   0.19368   0.20890   0.21883

 Mulliken charges:
               1
     1  C   -0.485054
     2  C    0.155496
     3  C   -0.257221
     4  C   -0.237530
     5  C   -0.001676
     6  O   -0.288120
     7  C   -0.097752
     8  C    0.406890
     9  O   -0.327302
    10  H    0.131017
    11  H    0.128445
    12  H    0.117534
    13  H    0.110696
    14  H    0.108562
    15  H    0.112921
    16  H    0.117756
    17  H    0.095409
    18  H    0.107631
    19  H    0.102297
 Sum of Mulliken charges =   0.00000

 Dipole moment (field-independent basis, Debye):
    X=             -0.1499    Y=             -2.2254    Z=              1.1499  Tot=              2.5095
 Quadrupole moment (field-independent basis, Debye-Ang):
   XX=            -52.9436   YY=            -57.7803   ZZ=            -52.9636
   XY=              3.6216   XZ=              2.9153   YZ=             -0.1729

  Exact polarizability:  78.508   1.029  74.739   2.786   0.666  68.559
 Approx polarizability: 107.879  -3.442 118.432   0.847   2.468 101.602

                      1                      2                      3
                      A                      A                      A
 Frequencies --    132.1674               145.1232               172.8597
 Red. masses --      2.5000                 2.4186                 1.2903
 Frc consts  --      0.0257                 0.0300                 0.0227
 IR Inten    --      1.1296                 3.3161                 0.6352

                      4                      5                      6
                      A                      A                      A
 Frequencies --    223.0896               304.2302               316.2941
 Red. masses --      3.0470                 2.2163                 2.4073
 Frc consts  --      0.0893                 0.1209                 0.1419
 IR Inten    --      2.3050                 2.4665                 0.4986

                      7                      8                      9
                      A                      A                      A
 Frequencies --    388.9964               481.1545               557.9438
 Red. masses --      2.9404                 3.4899                 6.0428
 Frc consts  --      0.2622                 0.4760                 1.1083
 IR Inten    --      1.4149                 7.3283                 2.0027

                     10                     11                     12
                      A                      A                      A
 Frequencies --    589.0731               664.2850               753.5721
 Red. masses --      4.0525                 4.8097                 3.4214
 Frc consts  --      0.8285                 1.2505                 1.1447
 IR Inten    --      2.0175                 0.5587                10.0103

                     13                     14                     15
                      A                      A                      A
 Frequencies --    770.5861               833.4869               871.6662
 Red. masses --      2.4944                 2.7747                 1.9770
 Frc consts  --      0.8727                 1.1357                 0.8850
 IR Inten    --      5.7729                 2.2319                 0.1373

                     16                     17                     18
                      A                      A                      A
 Frequencies --    873.0839               905.9813               942.5101
 Red. masses --      2.7173                 3.0375                 1.9820
 Frc consts  --      1.2204                 1.4690                 1.0373
 IR Inten    --     15.0265                 5.5439                 9.5097

                     19                     20                     21
                      A                      A                      A
 Frequencies --    967.1558              1004.4698              1023.3258
 Red. masses --      2.4387                 1.6196                 2.9925
 Frc consts  --      1.3440                 0.9628                 1.8463
 IR Inten    --      6.1086                 6.9737                51.0034

                     22                     23                     24
                      A                      A                      A
 Frequencies --   1056.8775              1082.2033              1128.9726
 Red. masses --      2.0070                 2.8309                 1.4808
 Frc consts  --      1.3208                 1.9534                 1.1120
 IR Inten    --     16.8209                 6.6961                20.4829

                     25                     26                     27
                      A                      A                      A
 Frequencies --   1171.8201              1185.8494              1218.5696
 Red. masses --      1.4897                 1.7416                 1.6518
 Frc consts  --      1.2053                 1.4429                 1.4451
 IR Inten    --      1.3708                 4.4650                 2.3005

                     28                     29                     30
                      A                      A                      A
 Frequencies --   1219.7773              1263.2440              1274.2866
 Red. masses --      1.8690                 1.6909                 1.5349
 Frc consts  --      1.6384                 1.5898                 1.4685
 IR Inten    --      0.3746                 5.5819                 1.4021

                     31                     32                     33
                      A                      A                      A
 Frequencies --   1290.2692              1318.0172              1334.9831
 Red. masses --      1.3142                 1.4769                 1.5443
 Frc consts  --      1.2891                 1.5116                 1.6215
 IR Inten    --      1.1123                 0.7697                 5.0277

                     34                     35                     36
                      A                      A                      A
 Frequencies --   1396.7954              1417.1120              1472.7619
 Red. masses --      1.7122                 1.2613                 1.0839
 Frc consts  --      1.9682                 1.4923                 1.3852
 IR Inten    --      4.3059                 2.2826                 1.6360

                     37                     38                     39
                      A                      A                      A
 Frequencies --   1490.4973              1491.5043              1499.8558
 Red. masses --      1.0498                 1.0599                 1.0808
 Frc consts  --      1.3741                 1.3892                 1.4325
 IR Inten    --      5.7063                 1.8982                 4.8914

                     40                     41                     42
                      A                      A                      A
 Frequencies --   1529.2397              1888.6194              3006.1044
 Red. masses --      1.0928                12.4801                 1.0554
 Frc consts  --      1.5056                26.2275                 5.6195
 IR Inten    --      0.1566               220.1194                63.0836

                     43                     44                     45
                      A                      A                      A
 Frequencies --   3036.0314              3045.3819              3049.4944
 Red. masses --      1.0359                 1.1107                 1.0587
 Frc consts  --      5.6259                 6.0692                 5.8006
 IR Inten    --     23.1851                33.3706                32.1661

                     46                     47                     48
                      A                      A                      A
 Frequencies --   3060.9277              3091.7655              3103.0101
 Red. masses --      1.0614                 1.1065                 1.1013
 Frc consts  --      5.8590                 6.2317                 6.2475
 IR Inten    --     25.6931                 4.8965                16.9228

                     49                     50                     51
                      A                      A                      A
 Frequencies --   3110.0670              3116.5668              3149.2225
 Red. masses --      1.1012                 1.1051                 1.0908
 Frc consts  --      6.2754                 6.3241                 6.3737
 IR Inten    --     15.4249                26.3657                19.6253

 - Thermochemistry -
 -------------------
 Temperature   298.150 Kelvin.  Pressure   1.00000 Atm.
 Atom     1 has atomic number  6 and mass  12.00000

 Molecular mass:   126.06808 amu.
 Principal axes and moments of inertia in atomic units:
                           1         2         3
     Eigenvalues --   812.76962 993.473081110.76166
           X            0.99365   0.09995   0.05162
           Y           -0.09877   0.99480  -0.02492
           Z           -0.05384   0.01967   0.99836
 This molecule is an asymmetric top.
 Rotational symmetry number  1.
 Warning -- assumption of classical behavior for rotation
           may cause significant error
 Rotational temperatures (Kelvin)      0.10657     0.08718     0.07798
 Rotational constants (GHZ):           2.22048     1.81660     1.62478
 Zero-point vibrational energy     421210.4 (Joules/Mol)
                                  100.67170 (Kcal/Mol)
 Warning -- explicit consideration of  10 degrees of freedom as
           vibrations may cause significant error
 Vibrational temperatures:    190.16   208.80   248.71   320.98   437.72
          (Kelvin)            455.08   559.68   692.27   802.76   847.54
                              955.76  1084.22  1108.70  1199.20  1254.13
                             1256.17  1303.50  1356.06  1391.52  1445.21
                             1472.34  1520.61  1557.05  1624.34  1685.99
                             1706.17  1753.25  1754.99  1817.52  1833.41
                             1856.41  1896.33  1920.74  2009.67  2038.91
                             2118.97  2144.49  2145.94  2157.96  2200.23
                             2717.30  4325.11  4368.17  4381.62  4387.54
                             4403.99  4448.36  4464.53  4474.69  4484.04
                             4531.02

 Zero-point correction=                           0.160431 (Hartree/Particle)
 Thermal correction to Energy=                    0.168395
 Thermal correction to Enthalpy=                  0.169340
 Thermal correction to Gibbs Free Energy=         0.128205
 Sum of electronic and zero-point Energies=           -423.052103
 Sum of electronic and thermal Energies=              -423.044138
 Sum of electronic and thermal Enthalpies=            -423.043194
 Sum of electronic and thermal Free Energies=         -423.084329

                     E (Thermal)             CV                S
                      KCal/Mol        Cal/Mol-Kelvin    Cal/Mol-Kelvin
 Total                  105.670             30.877             86.576
 Electronic               0.000              0.000              0.000
 Translational            0.889              2.981             40.409
 Rotational               0.889              2.981             28.285
 Vibrational            103.892             24.915             17.882
 Vibration     1          0.612              1.921              2.914
 Vibration     2          0.617              1.908              2.735
 Vibration     3          0.626              1.876              2.404
 Vibration     4          0.649              1.806              1.934
 Vibration     5          0.695              1.666              1.394
 Vibration     6          0.703              1.643              1.329
 Vibration     7          0.757              1.494              1.004
 Vibration     8          0.837              1.292              0.707
 Vibration     9          0.913              1.122              0.528
 Vibration    10          0.946              1.055              0.469

 Normal termination of Gaussian 09 at Mon Jan 27 19:13:33 2020.
