 Gaussian 09, Revision D.01,
 Gaussian 09:  ES64L-G09RevD.01 24-Apr-2013

 -----------------------------
 # b3lyp 6-31G(2df,p) opt Freq
 -----------------------------

 -----
 titel
 -----
 Symbolic Z-matrix:
 Charge =  0 Multiplicity = 1

 SCF Done:  E(RB3LYP) =  -423.144262167     A.U. after   14 cycles
 Optimization completed.
    -- Stationary point found.
 Normal termination of Gaussian 09 at Mon Jan 27 18:06:58 2020.

 ----------------------------------------------------------------------
 #N Geom=AllCheck Guess=TCheck SCRF=Check GenChk RB3LYP/6-31G(2df,p) Fr
 eq
 ----------------------------------------------------------------------

 Structure from the checkpoint file:  "/scratch/puck/g09_d937cce4-c683-4fd1-b235-53c97868e915/Gau-114866.chk"
 -----
 titel
 -----
 Charge =  0 Multiplicity = 1

                         Standard orientation:
 ---------------------------------------------------------------------
 Center     Atomic      Atomic             Coordinates (Angstroms)
 Number     Number       Type             X           Y           Z
 ---------------------------------------------------------------------
      1          6           0       -1.559098   -1.045315   -1.221409
      2          6           0       -0.694715   -0.489797   -0.135578
      3          8           0       -1.341805   -0.043524    1.125262
      4          6           0        0.095151    0.219211    1.325919
      5          6           0        0.489650   -1.116048    0.652836
      6          6           0        1.782228   -0.918425   -0.143172
      7          6           0        1.556464    0.516718   -0.712903
      8          6           0        0.192956    0.811949   -0.117189
      9          8           0       -0.376200    2.032742   -0.413149
     10          1           0       -2.238446   -0.275550   -1.601803
     11          1           0       -0.942025   -1.396803   -2.054775
     12          1           0       -2.155411   -1.886104   -0.854208
     13          1           0        0.403410    0.639929    2.283777
     14          1           0        0.312408   -2.040345    1.200590
     15          1           0        2.668848   -0.979495    0.494507
     16          1           0        1.896203   -1.668411   -0.931625
     17          1           0        2.309998    1.235069   -0.377680
     18          1           0        1.535141    0.547059   -1.806188
     19          1           0       -1.221901    2.041152    0.059461
 ---------------------------------------------------------------------

 SCF Done:  E(RB3LYP) =  -423.144262167     A.U. after    1 cycles

 The electronic state is 1-A.
 Alpha  occ. eigenvalues --  -19.14347 -19.13165 -10.24062 -10.23859 -10.23539
 Alpha  occ. eigenvalues --  -10.19406 -10.18926 -10.18547 -10.18489  -1.06476
 Alpha  occ. eigenvalues --   -1.01765  -0.84660  -0.74710  -0.70990  -0.68941
 Alpha  occ. eigenvalues --   -0.61456  -0.57752  -0.55096  -0.48611  -0.47546
 Alpha  occ. eigenvalues --   -0.46952  -0.45138  -0.42666  -0.42093  -0.38746
 Alpha  occ. eigenvalues --   -0.37119  -0.37086  -0.36085  -0.34392  -0.34141
 Alpha  occ. eigenvalues --   -0.31645  -0.30415  -0.24916  -0.23436
 Alpha virt. eigenvalues --    0.07735   0.08874   0.11033   0.12457   0.12648
 Alpha virt. eigenvalues --    0.13469   0.14070   0.14892   0.16222   0.16721
 Alpha virt. eigenvalues --    0.17006   0.18623   0.19030   0.20073   0.21299

 Mulliken charges:
               1
     1  C   -0.525726
     2  C    0.348814
     3  O   -0.379079
     4  C   -0.027171
     5  C   -0.082396
     6  C   -0.253072
     7  C   -0.291169
     8  C    0.429239
     9  O   -0.497147
    10  H    0.132485
    11  H    0.128514
    12  H    0.135462
    13  H    0.086610
    14  H    0.078806
    15  H    0.106658
    16  H    0.105292
    17  H    0.110168
    18  H    0.108963
    19  H    0.284748
 Sum of Mulliken charges =   0.00000

 Dipole moment (field-independent basis, Debye):
    X=              0.9804    Y=             -1.1883    Z=             -0.4104  Tot=              1.5943
 Quadrupole moment (field-independent basis, Debye-Ang):
   XX=            -52.5183   YY=            -54.5271   ZZ=            -52.8179
   XY=             -1.1848   XZ=              2.9342   YZ=              2.8725

  Exact polarizability:  77.698  -0.208  72.991   1.679   1.183  71.796
 Approx polarizability: 111.758  -0.682 108.344  -0.256   1.082 109.332

                      1                      2                      3
                      A                      A                      A
 Frequencies --    177.7365               188.3223               208.3228
 Red. masses --      1.0579                 2.4749                 2.5144
 Frc consts  --      0.0197                 0.0517                 0.0643
 IR Inten    --      0.2228                 0.2064                 0.6925

                      4                      5                      6
                      A                      A                      A
 Frequencies --    220.9841               300.8373               406.2946
 Red. masses --      2.1114                 5.0541                 2.7901
 Frc consts  --      0.0608                 0.2695                 0.2714
 IR Inten    --      0.1355                18.0544                 0.9695

                      7                      8                      9
                      A                      A                      A
 Frequencies --    445.1250               494.0068               545.7207
 Red. masses --      2.3333                 4.7014                 1.2024
 Frc consts  --      0.2724                 0.6760                 0.2110
 IR Inten    --      3.1736                 0.5913                80.4239

                     10                     11                     12
                      A                      A                      A
 Frequencies --    655.8132               680.6419               698.9672
 Red. masses --      3.3378                 4.7767                 5.2716
 Frc consts  --      0.8458                 1.3038                 1.5174
 IR Inten    --      0.4350                 8.3081                 1.9783

                     13                     14                     15
                      A                      A                      A
 Frequencies --    710.1354               725.8707               791.0121
 Red. masses --      3.4527                 3.3106                 4.2564
 Frc consts  --      1.0259                 1.0277                 1.5691
 IR Inten    --      5.3423                 2.8042                32.0152

                     16                     17                     18
                      A                      A                      A
 Frequencies --    838.6658               891.0182               911.8026
 Red. masses --      1.2875                 2.5078                 2.8077
 Frc consts  --      0.5336                 1.1731                 1.3753
 IR Inten    --      2.0054                17.1471                 0.7215

                     19                     20                     21
                      A                      A                      A
 Frequencies --    934.9177               953.7218              1001.5754
 Red. masses --      2.2763                 2.0299                 1.8052
 Frc consts  --      1.1723                 1.0878                 1.0670
 IR Inten    --      5.2213                 6.0397                 0.1484

                     22                     23                     24
                      A                      A                      A
 Frequencies --   1029.3692              1074.6929              1090.2314
 Red. masses --      1.2695                 2.3705                 2.1015
 Frc consts  --      0.7925                 1.6131                 1.4717
 IR Inten    --      3.4474                35.3588                 3.7469

                     25                     26                     27
                      A                      A                      A
 Frequencies --   1113.8632              1147.6456              1164.4792
 Red. masses --      1.9136                 1.4660                 2.0853
 Frc consts  --      1.3988                 1.1376                 1.6660
 IR Inten    --     10.6618                 3.4969                64.8852

                     28                     29                     30
                      A                      A                      A
 Frequencies --   1213.6692              1222.8850              1244.7073
 Red. masses --      1.7443                 1.5693                 1.6160
 Frc consts  --      1.5138                 1.3827                 1.4751
 IR Inten    --      2.7277                 1.9532                 5.3805

                     31                     32                     33
                      A                      A                      A
 Frequencies --   1245.9282              1280.1952              1308.0823
 Red. masses --      1.1726                 2.4465                 1.8417
 Frc consts  --      1.0724                 2.3624                 1.8567
 IR Inten    --      0.3875                32.4050                 8.3891

                     34                     35                     36
                      A                      A                      A
 Frequencies --   1332.7835              1380.8925              1405.1315
 Red. masses --      1.9925                 2.6344                 1.4808
 Frc consts  --      2.0853                 2.9597                 1.7225
 IR Inten    --     91.9923                32.3380                12.8777

                     37                     38                     39
                      A                      A                      A
 Frequencies --   1440.5888              1474.7896              1488.5229
 Red. masses --      2.4736                 1.0483                 1.0570
 Frc consts  --      3.0245                 1.3434                 1.3799
 IR Inten    --     35.5748                 6.2965                 3.8266

                     40                     41                     42
                      A                      A                      A
 Frequencies --   1490.9588              1512.5096              3035.3636
 Red. masses --      1.0778                 1.1262                 1.0345
 Frc consts  --      1.4116                 1.5180                 5.6159
 IR Inten    --      1.1134                 5.3329                17.0412

                     43                     44                     45
                      A                      A                      A
 Frequencies --   3050.6505              3060.6533              3085.2309
 Red. masses --      1.0587                 1.0601                 1.1065
 Frc consts  --      5.8048                 5.8509                 6.2052
 IR Inten    --     30.7340                38.7889                 1.1625

                     46                     47                     48
                      A                      A                      A
 Frequencies --   3104.5918              3106.8475              3111.5326
 Red. masses --      1.1049                 1.1013                 1.1005
 Frc consts  --      6.2745                 6.2630                 6.2772
 IR Inten    --     30.2324                14.8167                15.9816

                     49                     50                     51
                      A                      A                      A
 Frequencies --   3111.8875              3138.2763              3729.7410
 Red. masses --      1.0918                 1.0910                 1.0640
 Frc consts  --      6.2292                 6.3308                 8.7211
 IR Inten    --     43.9544                27.5039                23.7358

 - Thermochemistry -
 -------------------
 Temperature   298.150 Kelvin.  Pressure   1.00000 Atm.
 Atom     1 has atomic number  6 and mass  12.00000

 Molecular mass:   126.06808 amu.
 Principal axes and moments of inertia in atomic units:
                           1         2         3
     Eigenvalues --   825.28432 927.829811095.99845
           X            0.99806   0.02072   0.05872
           Y           -0.02544   0.99641   0.08078
           Z           -0.05684  -0.08212   0.99500
 This molecule is an asymmetric top.
 Rotational symmetry number  1.
 Warning -- assumption of classical behavior for rotation
           may cause significant error
 Rotational temperatures (Kelvin)      0.10495     0.09335     0.07903
 Rotational constants (GHZ):           2.18681     1.94512     1.64666
 Zero-point vibrational energy     418562.5 (Joules/Mol)
                                  100.03885 (Kcal/Mol)
 Warning -- explicit consideration of   9 degrees of freedom as
           vibrations may cause significant error
 Vibrational temperatures:    255.72   270.95   299.73   317.95   432.84
          (Kelvin)            584.57   640.43   710.76   785.17   943.57
                              979.29  1005.66  1021.73  1044.36  1138.09
                             1206.65  1281.97  1311.88  1345.14  1372.19
                             1441.04  1481.03  1546.24  1568.60  1602.60
                             1651.20  1675.42  1746.20  1759.46  1790.85
                             1792.61  1841.91  1882.04  1917.58  1986.79
                             2021.67  2072.68  2121.89  2141.65  2145.15
                             2176.16  4367.21  4389.20  4403.59  4438.95
                             4466.81  4470.06  4476.80  4477.31  4515.27
                             5366.26

 Zero-point correction=                           0.159422 (Hartree/Particle)
 Thermal correction to Energy=                    0.167163
 Thermal correction to Enthalpy=                  0.168107
 Thermal correction to Gibbs Free Energy=         0.127772
 Sum of electronic and zero-point Energies=           -422.984840
 Sum of electronic and thermal Energies=              -422.977099
 Sum of electronic and thermal Enthalpies=            -422.976155
 Sum of electronic and thermal Free Energies=         -423.016490

                     E (Thermal)             CV                S
                      KCal/Mol        Cal/Mol-Kelvin    Cal/Mol-Kelvin
 Total                  104.896             31.424             84.893
 Electronic               0.000              0.000              0.000
 Translational            0.889              2.981             40.409
 Rotational               0.889              2.981             28.219
 Vibrational            103.119             25.462             16.265
 Vibration     1          0.628              1.870              2.352
 Vibration     2          0.633              1.856              2.244
 Vibration     3          0.642              1.828              2.058
 Vibration     4          0.648              1.809              1.951
 Vibration     5          0.693              1.672              1.412
 Vibration     6          0.771              1.457              0.940
 Vibration     7          0.805              1.372              0.811
 Vibration     8          0.850              1.263              0.673
 Vibration     9          0.901              1.149              0.553

 Optimization completed.
    -- Stationary point found.
 Normal termination of Gaussian 09 at Mon Jan 27 18:51:23 2020.
