 Gaussian 09, Revision D.01,
 Gaussian 09:  ES64L-G09RevD.01 24-Apr-2013

 -----------------------------
 # b3lyp 6-31G(2df,p) opt Freq
 -----------------------------

 -----
 titel
 -----
 Symbolic Z-matrix:
 Charge =  0 Multiplicity = 1

 SCF Done:  E(RB3LYP) =  -423.207598104     A.U. after   14 cycles
 Optimization completed.
    -- Stationary point found.
 Normal termination of Gaussian 09 at Tue Jan 28 03:57:28 2020.

 ----------------------------------------------------------------------
 #N Geom=AllCheck Guess=TCheck SCRF=Check GenChk RB3LYP/6-31G(2df,p) Fr
 eq
 ----------------------------------------------------------------------

 Structure from the checkpoint file:  "/scratch/puck/g09_20247ea2-ea3d-4a0d-9809-d72fc78d43ea/Gau-3131.chk"
 -----
 titel
 -----
 Charge =  0 Multiplicity = 1

                         Standard orientation:
 ---------------------------------------------------------------------
 Center     Atomic      Atomic             Coordinates (Angstroms)
 Number     Number       Type             X           Y           Z
 ---------------------------------------------------------------------
      1          8           0        1.999365   -0.498529   -1.065214
      2          6           0        1.542908    0.080695    0.157854
      3          6           0        0.801090   -0.955211    1.017113
      4          6           0       -0.473116   -1.452514    0.323694
      5          6           0       -1.413573   -0.360731   -0.181758
      6          8           0       -2.571107   -0.602431   -0.444103
      7          6           0       -0.830674    0.994263   -0.429403
      8          6           0       -0.310256    1.824991    0.740553
      9          6           0        0.654794    1.239401   -0.240563
     10          1           0        2.645849   -1.178062   -0.847825
     11          1           0        2.400041    0.472903    0.727851
     12          1           0        1.473330   -1.799979    1.211324
     13          1           0        0.573751   -0.525827    1.999209
     14          1           0       -0.182969   -2.006290   -0.578843
     15          1           0       -1.045394   -2.143203    0.947909
     16          1           0       -1.358419    1.546349   -1.198808
     17          1           0       -0.509712    2.889364    0.695855
     18          1           0       -0.372326    1.409001    1.739309
     19          1           0        1.122750    1.918064   -0.946384
 ---------------------------------------------------------------------

 SCF Done:  E(RB3LYP) =  -423.207598104     A.U. after    1 cycles

 The electronic state is 1-A.
 Alpha  occ. eigenvalues --  -19.14278 -19.11458 -10.26103 -10.24408 -10.20321
 Alpha  occ. eigenvalues --  -10.20253 -10.19793 -10.19458 -10.18755  -1.02758
 Alpha  occ. eigenvalues --   -1.02460  -0.87909  -0.78896  -0.71855  -0.64984
 Alpha  occ. eigenvalues --   -0.63097  -0.57832  -0.52979  -0.50958  -0.49539
 Alpha  occ. eigenvalues --   -0.46650  -0.45869  -0.43528  -0.41410  -0.40838
 Alpha  occ. eigenvalues --   -0.38715  -0.37001  -0.36088  -0.35101  -0.32665
 Alpha  occ. eigenvalues --   -0.31110  -0.29139  -0.27517  -0.23249
 Alpha virt. eigenvalues --   -0.00850   0.06272   0.08941   0.09699   0.11674
 Alpha virt. eigenvalues --    0.13956   0.14415   0.16038   0.16947   0.17416
 Alpha virt. eigenvalues --    0.18197   0.18910   0.20936   0.21703   0.23419

 Mulliken charges:
               1
     1  O   -0.435391
     2  C    0.102805
     3  C   -0.275268
     4  C   -0.289161
     5  C    0.390110
     6  O   -0.330986
     7  C   -0.110358
     8  C   -0.312144
     9  C   -0.016808
    10  H    0.283036
    11  H    0.068834
    12  H    0.093353
    13  H    0.108571
    14  H    0.141702
    15  H    0.121219
    16  H    0.108421
    17  H    0.125912
    18  H    0.123971
    19  H    0.102182
 Sum of Mulliken charges =   0.00000

 Dipole moment (field-independent basis, Debye):
    X=              3.4276    Y=              0.3454    Z=              1.7990  Tot=              3.8864
 Quadrupole moment (field-independent basis, Debye-Ang):
   XX=            -59.8068   YY=            -48.2126   ZZ=            -53.7105
   XY=             -5.2390   XZ=             -0.1702   YZ=             -1.0350

  Exact polarizability:  82.045   0.077  78.900   2.578   0.057  64.580
 Approx polarizability: 122.548   3.452 109.346   4.737   3.274 101.684

                      1                      2                      3
                      A                      A                      A
 Frequencies --     65.8633               190.2374               200.6659
 Red. masses --      4.7505                 3.8169                 2.7508
 Frc consts  --      0.0121                 0.0814                 0.0653
 IR Inten    --      2.8380                 3.6173                 1.3678

                      4                      5                      6
                      A                      A                      A
 Frequencies --    287.5777               310.9858               380.8437
 Red. masses --      2.9115                 1.1140                 2.7697
 Frc consts  --      0.1419                 0.0635                 0.2367
 IR Inten    --     14.6009                93.8100                 4.2376

                      7                      8                      9
                      A                      A                      A
 Frequencies --    424.2146               455.1116               467.8818
 Red. masses --      3.0719                 4.1607                 2.9732
 Frc consts  --      0.3257                 0.5078                 0.3835
 IR Inten    --      1.4385                 9.8809                 8.7721

                     10                     11                     12
                      A                      A                      A
 Frequencies --    519.2919               608.4093               689.3123
 Red. masses --      5.2376                 2.8870                 3.6128
 Frc consts  --      0.8322                 0.6296                 1.0114
 IR Inten    --      4.4565                 1.2672                 1.6045

                     13                     14                     15
                      A                      A                      A
 Frequencies --    730.5110               773.0912               838.3159
 Red. masses --      2.0454                 2.5276                 1.5964
 Frc consts  --      0.6431                 0.8901                 0.6610
 IR Inten    --      0.6036                 0.5567                 4.6612

                     16                     17                     18
                      A                      A                      A
 Frequencies --    877.3012               901.2937               955.3788
 Red. masses --      1.9800                 1.9242                 2.6291
 Frc consts  --      0.8979                 0.9209                 1.4139
 IR Inten    --      1.6829                18.4407                17.1261

                     19                     20                     21
                      A                      A                      A
 Frequencies --    960.9810               997.8296              1027.8629
 Red. masses --      2.7006                 2.1960                 2.3316
 Frc consts  --      1.4694                 1.2882                 1.4513
 IR Inten    --     45.3024                 6.8689                27.9616

                     22                     23                     24
                      A                      A                      A
 Frequencies --   1058.1694              1069.6132              1088.0814
 Red. masses --      1.4088                 1.7941                 1.9822
 Frc consts  --      0.9294                 1.2094                 1.3827
 IR Inten    --      0.8789                12.1623                27.0991

                     25                     26                     27
                      A                      A                      A
 Frequencies --   1119.0455              1128.0591              1185.9358
 Red. masses --      1.3550                 1.1702                 1.5142
 Frc consts  --      0.9997                 0.8774                 1.2547
 IR Inten    --      3.9190                 3.5763                24.1743

                     28                     29                     30
                      A                      A                      A
 Frequencies --   1197.6501              1222.5060              1247.6303
 Red. masses --      1.4584                 1.5533                 1.2056
 Frc consts  --      1.2325                 1.3678                 1.1057
 IR Inten    --      7.4860                14.9956                51.4205

                     31                     32                     33
                      A                      A                      A
 Frequencies --   1256.6714              1334.6217              1356.3487
 Red. masses --      1.5708                 1.3651                 1.8584
 Frc consts  --      1.4615                 1.4326                 2.0144
 IR Inten    --     38.3620                 3.1803                18.0842

                     34                     35                     36
                      A                      A                      A
 Frequencies --   1363.4863              1387.4463              1400.5021
 Red. masses --      1.6633                 1.4044                 1.7038
 Frc consts  --      1.8219                 1.5929                 1.9690
 IR Inten    --      7.6744                 6.1801                10.8523

                     37                     38                     39
                      A                      A                      A
 Frequencies --   1440.8031              1443.3275              1486.0165
 Red. masses --      1.6307                 1.1350                 1.2673
 Frc consts  --      1.9945                 1.3930                 1.6489
 IR Inten    --      9.6265                 6.7712                 1.7498

                     40                     41                     42
                      A                      A                      A
 Frequencies --   1509.6393              1797.3017              2970.6363
 Red. masses --      1.1298                11.9113                 1.0831
 Frc consts  --      1.5171                22.6700                 5.6314
 IR Inten    --      4.9214               219.3563                58.5295

                     43                     44                     45
                      A                      A                      A
 Frequencies --   3031.4469              3037.0791              3069.3064
 Red. masses --      1.0653                 1.0660                 1.0970
 Frc consts  --      5.7681                 5.7931                 6.0891
 IR Inten    --     43.0587                 3.8128                27.8102

                     46                     47                     48
                      A                      A                      A
 Frequencies --   3104.7790              3143.9444              3162.2509
 Red. masses --      1.0960                 1.0545                 1.0888
 Frc consts  --      6.2246                 6.1410                 6.4148
 IR Inten    --     11.7116                12.8047                 8.8115

                     49                     50                     51
                      A                      A                      A
 Frequencies --   3179.2616              3227.0957              3813.6241
 Red. masses --      1.0906                 1.1157                 1.0661
 Frc consts  --      6.4949                 6.8457                 9.1355
 IR Inten    --      4.7130                 6.8440                15.3588

 - Thermochemistry -
 -------------------
 Temperature   298.150 Kelvin.  Pressure   1.00000 Atm.
 Atom     1 has atomic number  8 and mass  15.99491

 Molecular mass:   126.06808 amu.
 Principal axes and moments of inertia in atomic units:
                           1         2         3
     Eigenvalues --   739.650751164.560941483.57025
           X            0.99936  -0.03521   0.00639
           Y            0.03534   0.99914  -0.02188
           Z           -0.00562   0.02209   0.99974
 This molecule is an asymmetric top.
 Rotational symmetry number  1.
 Warning -- assumption of classical behavior for rotation
           may cause significant error
 Rotational temperatures (Kelvin)      0.11710     0.07437     0.05838
 Rotational constants (GHZ):           2.43999     1.54972     1.21649
 Zero-point vibrational energy     421655.2 (Joules/Mol)
                                  100.77800 (Kcal/Mol)
 Warning -- explicit consideration of  11 degrees of freedom as
           vibrations may cause significant error
 Vibrational temperatures:     94.76   273.71   288.71   413.76   447.44
          (Kelvin)            547.95   610.35   654.80   673.18   747.14
                              875.36   991.77  1051.04  1112.30  1206.15
                             1262.24  1296.76  1374.58  1382.64  1435.65
                             1478.86  1522.47  1538.93  1565.50  1610.05
                             1623.02  1706.29  1723.15  1758.91  1795.06
                             1808.07  1920.22  1951.48  1961.75  1996.22
                             2015.01  2072.99  2076.62  2138.04  2172.03
                             2585.91  4274.08  4361.57  4369.67  4416.04
                             4467.08  4523.43  4549.77  4574.24  4643.07
                             5486.95

 Zero-point correction=                           0.160600 (Hartree/Particle)
 Thermal correction to Energy=                    0.168617
 Thermal correction to Enthalpy=                  0.169561
 Thermal correction to Gibbs Free Energy=         0.128051
 Sum of electronic and zero-point Energies=           -423.046998
 Sum of electronic and thermal Energies=              -423.038982
 Sum of electronic and thermal Enthalpies=            -423.038037
 Sum of electronic and thermal Free Energies=         -423.079548

                     E (Thermal)             CV                S
                      KCal/Mol        Cal/Mol-Kelvin    Cal/Mol-Kelvin
 Total                  105.808             31.656             87.365
 Electronic               0.000              0.000              0.000
 Translational            0.889              2.981             40.409
 Rotational               0.889              2.981             28.637
 Vibrational            104.031             25.694             18.320
 Vibration     1          0.597              1.971              4.273
 Vibration     2          0.634              1.853              2.226
 Vibration     3          0.638              1.839              2.127
 Vibration     4          0.685              1.697              1.488
 Vibration     5          0.700              1.653              1.357
 Vibration     6          0.751              1.511              1.036
 Vibration     7          0.786              1.418              0.878
 Vibration     8          0.813              1.350              0.780
 Vibration     9          0.825              1.321              0.744
 Vibration    10          0.874              1.207              0.612
 Vibration    11          0.967              1.014              0.435

 Optimization completed.
    -- Stationary point found.
 Normal termination of Gaussian 09 at Tue Jan 28 04:46:04 2020.
