 Gaussian 09, Revision D.01,
 Gaussian 09:  ES64L-G09RevD.01 24-Apr-2013

 -----------------------------
 # b3lyp 6-31G(2df,p) opt Freq
 -----------------------------

 -----
 titel
 -----
 Symbolic Z-matrix:
 Charge =  0 Multiplicity = 1

 SCF Done:  E(RB3LYP) =  -423.125883444     A.U. after   14 cycles
 Optimization completed.
    -- Stationary point found.
 Normal termination of Gaussian 09 at Mon Jan 27 14:11:02 2020.

 ----------------------------------------------------------------------
 #N Geom=AllCheck Guess=TCheck SCRF=Check GenChk RB3LYP/6-31G(2df,p) Fr
 eq
 ----------------------------------------------------------------------

 Structure from the checkpoint file:  "/scratch/puck/g09_20a96e8b-c61c-4838-959e-f1c9b3e108e4/Gau-64279.chk"
 -----
 titel
 -----
 Charge =  0 Multiplicity = 1

                         Standard orientation:
 ---------------------------------------------------------------------
 Center     Atomic      Atomic             Coordinates (Angstroms)
 Number     Number       Type             X           Y           Z
 ---------------------------------------------------------------------
      1          6           0        1.917859    0.926038   -1.018878
      2          6           0        1.492759   -0.147977   -0.041689
      3          6           0        2.574753   -0.595419    0.919050
      4          8           0        0.707946   -1.228077   -0.593838
      5          6           0        0.086599   -0.353886    0.346185
      6          6           0       -1.071990    0.506071   -0.146952
      7          8           0       -1.200449    1.673265    0.664039
      8          6           0       -2.313487   -0.269632   -0.186504
      9          6           0       -3.332160   -0.907102   -0.156127
     10          1           0        2.148765    1.855881   -0.489109
     11          1           0        2.820566    0.608594   -1.551721
     12          1           0        1.148386    1.133440   -1.763606
     13          1           0        2.918238    0.243595    1.533620
     14          1           0        2.209564   -1.385799    1.579200
     15          1           0        3.438124   -0.982209    0.366816
     16          1           0       -0.106583   -0.804569    1.323279
     17          1           0       -0.844469    0.866336   -1.154053
     18          1           0       -1.685203    1.424089    1.458469
     19          1           0       -4.233363   -1.469412   -0.155004
 ---------------------------------------------------------------------

 SCF Done:  E(RB3LYP) =  -423.125883444     A.U. after    1 cycles

 The electronic state is 1-A.
 Alpha  occ. eigenvalues --  -19.14980 -19.14674 -10.26262 -10.24476 -10.23629
 Alpha  occ. eigenvalues --  -10.18839 -10.18451 -10.18256 -10.18218  -1.06899
 Alpha  occ. eigenvalues --   -1.03133  -0.77994  -0.76993  -0.71837  -0.70015
 Alpha  occ. eigenvalues --   -0.63056  -0.56943  -0.55216  -0.50796  -0.49744
 Alpha  occ. eigenvalues --   -0.48009  -0.44732  -0.43615  -0.41783  -0.39850
 Alpha  occ. eigenvalues --   -0.38987  -0.37232  -0.36100  -0.35636  -0.30121
 Alpha  occ. eigenvalues --   -0.29761  -0.27818  -0.27306  -0.25773
 Alpha virt. eigenvalues --    0.02312   0.04299   0.09215   0.09683   0.10900
 Alpha virt. eigenvalues --    0.11367   0.12237   0.12993   0.14859   0.15953
 Alpha virt. eigenvalues --    0.17678   0.18542   0.19033   0.20034   0.22335

 Mulliken charges:
               1
     1  C   -0.454907
     2  C    0.395255
     3  C   -0.452857
     4  O   -0.291893
     5  C   -0.006536
     6  C   -0.089296
     7  O   -0.415613
     8  C    0.292025
     9  C   -0.438528
    10  H    0.131351
    11  H    0.122924
    12  H    0.129618
    13  H    0.123638
    14  H    0.127025
    15  H    0.125910
    16  H    0.084765
    17  H    0.124456
    18  H    0.289041
    19  H    0.203621
 Sum of Mulliken charges =   0.00000

 Dipole moment (field-independent basis, Debye):
    X=              0.1147    Y=              0.2974    Z=              1.3938  Tot=              1.4298
 Quadrupole moment (field-independent basis, Debye-Ang):
   XX=            -45.5057   YY=            -57.9406   ZZ=            -50.8890
   XY=              4.0194   XZ=             -1.6257   YZ=             -1.7602

  Exact polarizability: 104.011  11.337  68.129  -1.382  -1.369  63.352
 Approx polarizability: 137.451  22.746 107.594  -4.548   2.943  95.134

                      1                      2                      3
                      A                      A                      A
 Frequencies --     34.6491                95.2477               138.6619
 Red. masses --      4.0920                 3.2553                 1.3480
 Frc consts  --      0.0029                 0.0174                 0.0153
 IR Inten    --      1.8937                 1.6300                 0.7026

                      4                      5                      6
                      A                      A                      A
 Frequencies --    154.9177               175.6980               210.6695
 Red. masses --      2.4526                 2.1692                 1.1294
 Frc consts  --      0.0347                 0.0395                 0.0295
 IR Inten    --      0.1068                 5.1193                13.5958

                      7                      8                      9
                      A                      A                      A
 Frequencies --    231.6136               270.3611               349.8054
 Red. masses --      1.4898                 2.6430                 2.7594
 Frc consts  --      0.0471                 0.1138                 0.1989
 IR Inten    --     62.4967                24.4088                 0.8047

                     10                     11                     12
                      A                      A                      A
 Frequencies --    376.4686               385.9010               427.8547
 Red. masses --      3.5536                 3.2407                 3.6707
 Frc consts  --      0.2967                 0.2843                 0.3959
 IR Inten    --      9.8574                 4.0399                 5.5803

                     13                     14                     15
                      A                      A                      A
 Frequencies --    502.4665               540.4099               595.4908
 Red. masses --      4.3337                 4.0166                 5.9380
 Frc consts  --      0.6447                 0.6911                 1.2406
 IR Inten    --      4.6643                 5.6328                15.8489

                     16                     17                     18
                      A                      A                      A
 Frequencies --    638.9212               677.3280               715.6503
 Red. masses --      1.2257                 1.2499                 4.5394
 Frc consts  --      0.2948                 0.3378                 1.3698
 IR Inten    --     44.6744                34.1047                 4.8869

                     19                     20                     21
                      A                      A                      A
 Frequencies --    834.5255               922.5304               937.2022
 Red. masses --      3.4584                 3.4554                 2.3730
 Frc consts  --      1.4191                 1.7326                 1.2280
 IR Inten    --     30.9412                30.1225                 6.4762

                     22                     23                     24
                      A                      A                      A
 Frequencies --    951.3980              1005.2336              1052.6732
 Red. masses --      1.6468                 1.4289                 4.1227
 Frc consts  --      0.8782                 0.8507                 2.6917
 IR Inten    --     12.3621                14.3360                82.8452

                     25                     26                     27
                      A                      A                      A
 Frequencies --   1067.7480              1107.4200              1140.4197
 Red. masses --      2.3018                 1.9784                 2.0267
 Frc consts  --      1.5462                 1.4295                 1.5530
 IR Inten    --     14.9094                14.5504                 1.6757

                     28                     29                     30
                      A                      A                      A
 Frequencies --   1152.9849              1239.3586              1261.5371
 Red. masses --      2.0768                 1.2721                 2.1168
 Frc consts  --      1.6266                 1.1512                 1.9848
 IR Inten    --     12.1009                13.6393                13.2379

                     31                     32                     33
                      A                      A                      A
 Frequencies --   1293.3539              1352.9440              1401.3452
 Red. masses --      1.3208                 1.4726                 1.2467
 Frc consts  --      1.3017                 1.5882                 1.4425
 IR Inten    --      3.3073                19.5965                52.0662

                     34                     35                     36
                      A                      A                      A
 Frequencies --   1409.6264              1421.0283              1463.0808
 Red. masses --      1.3538                 1.2567                 1.5009
 Frc consts  --      1.5849                 1.4952                 1.8929
 IR Inten    --     12.8569                 2.1405                15.4087

                     37                     38                     39
                      A                      A                      A
 Frequencies --   1472.7587              1486.3659              1500.6577
 Red. masses --      1.0773                 1.0488                 1.0781
 Frc consts  --      1.3767                 1.3652                 1.4305
 IR Inten    --      0.3644                 3.0298                11.9551

                     40                     41                     42
                      A                      A                      A
 Frequencies --   1520.3559              2233.7607              3034.5583
 Red. masses --      1.5931                 5.9036                 1.0362
 Frc consts  --      2.1696                17.3556                 5.6219
 IR Inten    --      3.7956                 1.6726                15.4154

                     43                     44                     45
                      A                      A                      A
 Frequencies --   3042.2658              3068.2515              3082.3271
 Red. masses --      1.0383                 1.0841                 1.0858
 Frc consts  --      5.6622                 6.0131                 6.0780
 IR Inten    --     21.3093                 6.7049                30.3039

                     46                     47                     48
                      A                      A                      A
 Frequencies --   3097.7627              3103.5500              3123.9312
 Red. masses --      1.1008                 1.1002                 1.1013
 Frc consts  --      6.2238                 6.2437                 6.3321
 IR Inten    --      3.3269                30.3950                20.2183

                     49                     50                     51
                      A                      A                      A
 Frequencies --   3140.5318              3501.9579              3811.5061
 Red. masses --      1.0984                 1.1627                 1.0664
 Frc consts  --      6.3827                 8.4010                 9.1275
 IR Inten    --     21.6220                67.5879                28.7598

 - Thermochemistry -
 -------------------
 Temperature   298.150 Kelvin.  Pressure   1.00000 Atm.
 Atom     1 has atomic number  6 and mass  12.00000

 Molecular mass:   126.06808 amu.
 Principal axes and moments of inertia in atomic units:
                           1         2         3
     Eigenvalues --   594.560741809.635332023.86867
           X            0.99991   0.01339   0.00107
           Y           -0.01323   0.99533  -0.09557
           Z           -0.00235   0.09555   0.99542
 This molecule is an asymmetric top.
 Rotational symmetry number  1.
 Warning -- assumption of classical behavior for rotation
           may cause significant error
 Rotational temperatures (Kelvin)      0.14568     0.04786     0.04280
 Rotational constants (GHZ):           3.03542     0.99730     0.89173
 Zero-point vibrational energy     405277.3 (Joules/Mol)
                                   96.86359 (Kcal/Mol)
 Warning -- explicit consideration of  15 degrees of freedom as
           vibrations may cause significant error
 Vibrational temperatures:     49.85   137.04   199.50   222.89   252.79
          (Kelvin)            303.11   333.24   388.99   503.29   541.65
                              555.22   615.59   722.94   777.53   856.78
                              919.26   974.52  1029.66  1200.69  1327.31
                             1348.42  1368.85  1446.31  1514.56  1536.25
                             1593.33  1640.81  1658.89  1783.16  1815.07
                             1860.85  1946.58  2016.22  2028.14  2044.54
                             2105.04  2118.97  2138.55  2159.11  2187.45
                             3213.88  4366.05  4377.14  4414.52  4434.78
                             4456.98  4465.31  4494.63  4518.52  5038.53
                             5483.90

 Zero-point correction=                           0.154362 (Hartree/Particle)
 Thermal correction to Energy=                    0.164935
 Thermal correction to Enthalpy=                  0.165879
 Thermal correction to Gibbs Free Energy=         0.118397
 Sum of electronic and zero-point Energies=           -422.971521
 Sum of electronic and thermal Energies=              -422.960949
 Sum of electronic and thermal Enthalpies=            -422.960005
 Sum of electronic and thermal Free Energies=         -423.007487

                     E (Thermal)             CV                S
                      KCal/Mol        Cal/Mol-Kelvin    Cal/Mol-Kelvin
 Total                  103.498             38.041             99.935
 Electronic               0.000              0.000              0.000
 Translational            0.889              2.981             40.409
 Rotational               0.889              2.981             29.167
 Vibrational            101.721             32.079             30.359
 Vibration     1          0.594              1.983              5.544
 Vibration     2          0.603              1.953              3.549
 Vibration     3          0.614              1.915              2.822
 Vibration     4          0.620              1.897              2.611
 Vibration     5          0.628              1.872              2.374
 Vibration     6          0.643              1.825              2.038
 Vibration     7          0.653              1.793              1.866
 Vibration     8          0.674              1.728              1.594
 Vibration     9          0.727              1.576              1.167
 Vibration    10          0.747              1.520              1.053
 Vibration    11          0.755              1.500              1.016
 Vibration    12          0.789              1.410              0.866
 Vibration    13          0.858              1.245              0.652
 Vibration    14          0.895              1.161              0.564
 Vibration    15          0.953              1.041              0.457

 Optimization completed.
    -- Stationary point found.
 Normal termination of Gaussian 09 at Mon Jan 27 14:59:23 2020.
