 Gaussian 09, Revision D.01,
 Gaussian 09:  ES64L-G09RevD.01 24-Apr-2013

 -----------------------------
 # b3lyp 6-31G(2df,p) opt Freq
 -----------------------------

 -----
 titel
 -----
 Symbolic Z-matrix:
 Charge =  0 Multiplicity = 1

 SCF Done:  E(RB3LYP) =  -423.098192380     A.U. after   13 cycles
 Optimization completed.
    -- Stationary point found.
 Normal termination of Gaussian 09 at Tue Jan 28 00:07:51 2020.

 ----------------------------------------------------------------------
 #N Geom=AllCheck Guess=TCheck SCRF=Check GenChk RB3LYP/6-31G(2df,p) Fr
 eq
 ----------------------------------------------------------------------

 Structure from the checkpoint file:  "/scratch/puck/g09_c6c3734e-cd21-41cf-ab2b-85ff942ec2c9/Gau-56730.chk"
 -----
 titel
 -----
 Charge =  0 Multiplicity = 1

                         Standard orientation:
 ---------------------------------------------------------------------
 Center     Atomic      Atomic             Coordinates (Angstroms)
 Number     Number       Type             X           Y           Z
 ---------------------------------------------------------------------
      1          6           0        1.514473    1.665547   -0.270392
      2          6           0        0.114677    1.080931   -0.398199
      3          6           0       -0.691244    0.759421    0.866309
      4          8           0       -1.969738    0.329891    0.298348
      5          6           0       -1.596668   -0.524491   -0.845760
      6          6           0       -0.105488   -0.487155   -0.607779
      7          6           0        1.170047   -1.323366   -0.613763
      8          8           0        1.363905   -1.007685    0.801664
      9          6           0       -0.040313   -0.643377    0.931066
     10          1           0        1.439863    2.725021   -0.001543
     11          1           0        2.117326    1.159044    0.482935
     12          1           0        2.044909    1.614991   -1.228119
     13          1           0       -0.464514    1.677092   -1.110260
     14          1           0       -0.901719    1.440339    1.691668
     15          1           0       -2.052570   -1.511695   -0.725036
     16          1           0       -1.953787   -0.063325   -1.772419
     17          1           0        1.019282   -2.401106   -0.757476
     18          1           0        2.007802   -0.977363   -1.226407
     19          1           0       -0.602837   -1.405703    1.477680
 ---------------------------------------------------------------------

 SCF Done:  E(RB3LYP) =  -423.098192380     A.U. after    1 cycles

 The electronic state is 1-A.
 Alpha  occ. eigenvalues --  -19.14533 -19.14030 -10.24553 -10.23924 -10.23674
 Alpha  occ. eigenvalues --  -10.23038 -10.20542 -10.19391 -10.17489  -1.05529
 Alpha  occ. eigenvalues --   -1.02367  -0.82158  -0.74411  -0.72088  -0.68507
 Alpha  occ. eigenvalues --   -0.62845  -0.57795  -0.52668  -0.50917  -0.50371
 Alpha  occ. eigenvalues --   -0.47066  -0.45468  -0.43046  -0.40633  -0.40184
 Alpha  occ. eigenvalues --   -0.39888  -0.38007  -0.34769  -0.34474  -0.32707
 Alpha  occ. eigenvalues --   -0.30997  -0.26927  -0.26273  -0.24080
 Alpha virt. eigenvalues --    0.05928   0.07029   0.10604   0.11970   0.12866
 Alpha virt. eigenvalues --    0.13214   0.13782   0.14429   0.15139   0.16748
 Alpha virt. eigenvalues --    0.17633   0.18084   0.18364   0.20492   0.21205

 Mulliken charges:
               1
     1  C   -0.446636
     2  C    0.014569
     3  C    0.030557
     4  O   -0.296240
     5  C   -0.173286
     6  C    0.190539
     7  C   -0.189287
     8  O   -0.299834
     9  C    0.111657
    10  H    0.114956
    11  H    0.149219
    12  H    0.113677
    13  H    0.076599
    14  H    0.075713
    15  H    0.110306
    16  H    0.105130
    17  H    0.110367
    18  H    0.114041
    19  H    0.087952
 Sum of Mulliken charges =   0.00000

 Dipole moment (field-independent basis, Debye):
    X=              0.3085    Y=             -0.2205    Z=             -1.5954  Tot=              1.6398
 Quadrupole moment (field-independent basis, Debye-Ang):
   XX=            -58.8051   YY=            -50.9385   ZZ=            -51.9491
   XY=              2.4286   XZ=             -1.2132   YZ=              2.0886

  Exact polarizability:  77.867   1.227  77.543  -1.694   2.007  67.922
 Approx polarizability: 114.882  -2.910 110.177  -1.098   2.799 108.663

                      1                      2                      3
                      A                      A                      A
 Frequencies --    192.0469               231.5286               271.3077
 Red. masses --      1.2494                 2.0082                 2.3862
 Frc consts  --      0.0271                 0.0634                 0.1035
 IR Inten    --      0.2297                 0.6167                 0.4453

                      4                      5                      6
                      A                      A                      A
 Frequencies --    310.0608               354.1639               376.6645
 Red. masses --      3.4573                 3.0822                 2.6559
 Frc consts  --      0.1958                 0.2278                 0.2220
 IR Inten    --      6.3810                 1.8738                 6.3106

                      7                      8                      9
                      A                      A                      A
 Frequencies --    433.7765               502.7450               597.1381
 Red. masses --      3.9224                 3.4260                 5.5534
 Frc consts  --      0.4348                 0.5102                 1.1667
 IR Inten    --      3.2773                 4.6172                 0.9224

                     10                     11                     12
                      A                      A                      A
 Frequencies --    677.0171               730.6155               790.8359
 Red. masses --      3.3431                 4.4411                 2.4007
 Frc consts  --      0.9028                 1.3967                 0.8846
 IR Inten    --      2.0837                 4.0104                10.9402

                     13                     14                     15
                      A                      A                      A
 Frequencies --    845.8656               864.9030               887.1730
 Red. masses --      3.8519                 3.0227                 4.2961
 Frc consts  --      1.6238                 1.3322                 1.9922
 IR Inten    --     20.5823                28.2976                22.5624

                     16                     17                     18
                      A                      A                      A
 Frequencies --    918.1935               939.7022               960.9431
 Red. masses --      2.7065                 3.4107                 3.2900
 Frc consts  --      1.3444                 1.7745                 1.7900
 IR Inten    --      9.3757                52.2487                25.0895

                     19                     20                     21
                      A                      A                      A
 Frequencies --    995.8555              1021.3312              1046.8283
 Red. masses --      1.8206                 2.2106                 1.5606
 Frc consts  --      1.0638                 1.3586                 1.0076
 IR Inten    --     21.6964                28.4544                 4.3611

                     22                     23                     24
                      A                      A                      A
 Frequencies --   1063.2847              1097.5035              1115.2368
 Red. masses --      1.9541                 1.9661                 1.9539
 Frc consts  --      1.3016                 1.3953                 1.4318
 IR Inten    --      4.4846                 9.0088                 5.4091

                     25                     26                     27
                      A                      A                      A
 Frequencies --   1133.8388              1153.9251              1176.2460
 Red. masses --      2.6058                 1.1827                 1.5405
 Frc consts  --      1.9738                 0.9278                 1.2558
 IR Inten    --      1.9434                 0.5596                 1.3124

                     28                     29                     30
                      A                      A                      A
 Frequencies --   1215.0739              1225.9271              1253.3217
 Red. masses --      1.6374                 1.5600                 1.4331
 Frc consts  --      1.4244                 1.3813                 1.3263
 IR Inten    --      1.9564                 2.7835                 6.9234

                     31                     32                     33
                      A                      A                      A
 Frequencies --   1259.8199              1273.2191              1315.7217
 Red. masses --      1.7870                 1.6737                 1.3139
 Frc consts  --      1.6711                 1.5986                 1.3401
 IR Inten    --      0.5711                 5.0833                 2.5153

                     34                     35                     36
                      A                      A                      A
 Frequencies --   1335.1570              1361.2516              1403.2026
 Red. masses --      1.2955                 2.1523                 1.4953
 Frc consts  --      1.3606                 2.3498                 1.7347
 IR Inten    --      3.6226                 2.0824                 0.9313

                     37                     38                     39
                      A                      A                      A
 Frequencies --   1412.1959              1492.8136              1509.1916
 Red. masses --      1.2802                 1.0536                 1.0661
 Frc consts  --      1.5043                 1.3834                 1.4307
 IR Inten    --      3.9897                 4.4103                 3.1197

                     40                     41                     42
                      A                      A                      A
 Frequencies --   1515.4946              1528.4925              3017.8982
 Red. masses --      1.0779                 1.1016                 1.0601
 Frc consts  --      1.4586                 1.5164                 5.6886
 IR Inten    --      1.3537                 0.3292                66.8278

                     43                     44                     45
                      A                      A                      A
 Frequencies --   3034.0244              3036.8006              3055.9049
 Red. masses --      1.0423                 1.0570                 1.0827
 Frc consts  --      5.6528                 5.7430                 5.9571
 IR Inten    --     27.2906                66.3943                38.6755

                     46                     47                     48
                      A                      A                      A
 Frequencies --   3068.9769              3084.3044              3086.3375
 Red. masses --      1.0865                 1.1029                 1.1093
 Frc consts  --      6.0294                 6.1816                 6.2257
 IR Inten    --     34.8938                 8.1460                48.7376

                     49                     50                     51
                      A                      A                      A
 Frequencies --   3089.0612              3116.3515              3152.1238
 Red. masses --      1.1030                 1.0915                 1.0969
 Frc consts  --      6.2012                 6.2456                 6.4210
 IR Inten    --     37.7025                49.2753                 7.1441

 - Thermochemistry -
 -------------------
 Temperature   298.150 Kelvin.  Pressure   1.00000 Atm.
 Atom     1 has atomic number  6 and mass  12.00000

 Molecular mass:   126.06808 amu.
 Principal axes and moments of inertia in atomic units:
                           1         2         3
     Eigenvalues --   700.56801 941.928521176.96637
           X            0.99405   0.10827  -0.01207
           Y           -0.10805   0.99400   0.01709
           Z            0.01385  -0.01569   0.99978
 This molecule is an asymmetric top.
 Rotational symmetry number  1.
 Warning -- assumption of classical behavior for rotation
           may cause significant error
 Rotational temperatures (Kelvin)      0.12363     0.09195     0.07359
 Rotational constants (GHZ):           2.57611     1.91601     1.53338
 Zero-point vibrational energy     421871.4 (Joules/Mol)
                                  100.82969 (Kcal/Mol)
 Warning -- explicit consideration of   9 degrees of freedom as
           vibrations may cause significant error
 Vibrational temperatures:    276.31   333.12   390.35   446.11   509.56
          (Kelvin)            541.94   624.11   723.34   859.15   974.08
                             1051.19  1137.84  1217.01  1244.40  1276.44
                             1321.07  1352.02  1382.58  1432.81  1469.47
                             1506.15  1529.83  1579.06  1604.58  1631.34
                             1660.24  1692.35  1748.22  1763.83  1803.25
                             1812.60  1831.88  1893.03  1920.99  1958.54
                             2018.89  2031.83  2147.82  2171.39  2180.46
                             2199.16  4342.08  4365.28  4369.27  4396.76
                             4415.57  4437.62  4440.55  4444.46  4483.73
                             4535.20

 Zero-point correction=                           0.160682 (Hartree/Particle)
 Thermal correction to Energy=                    0.167818
 Thermal correction to Enthalpy=                  0.168762
 Thermal correction to Gibbs Free Energy=         0.129652
 Sum of electronic and zero-point Energies=           -422.937510
 Sum of electronic and thermal Energies=              -422.930375
 Sum of electronic and thermal Enthalpies=            -422.929431
 Sum of electronic and thermal Free Energies=         -422.968540

                     E (Thermal)             CV                S
                      KCal/Mol        Cal/Mol-Kelvin    Cal/Mol-Kelvin
 Total                  105.307             29.467             82.313
 Electronic               0.000              0.000              0.000
 Translational            0.889              2.981             40.409
 Rotational               0.889              2.981             28.142
 Vibrational            103.530             23.505             13.762
 Vibration     1          0.634              1.851              2.208
 Vibration     2          0.653              1.793              1.867
 Vibration     3          0.675              1.726              1.588
 Vibration     4          0.699              1.655              1.362
 Vibration     5          0.730              1.567              1.148
 Vibration     6          0.747              1.520              1.053
 Vibration     7          0.795              1.397              0.846
 Vibration     8          0.858              1.244              0.651
 Vibration     9          0.955              1.038              0.455

 Optimization completed.
    -- Stationary point found.
 Normal termination of Gaussian 09 at Tue Jan 28 01:35:42 2020.
