 Gaussian 09, Revision D.01,
 Gaussian 09:  ES64L-G09RevD.01 24-Apr-2013

 -----------------------------
 # b3lyp 6-31G(2df,p) opt Freq
 -----------------------------

 -----
 titel
 -----
 Symbolic Z-matrix:
 Charge =  0 Multiplicity = 1

 SCF Done:  E(RB3LYP) =  -423.156101498     A.U. after   13 cycles
 Optimization completed.
    -- Stationary point found.
 Normal termination of Gaussian 09 at Tue Jan 28 02:51:37 2020.

 ----------------------------------------------------------------------
 #N Geom=AllCheck Guess=TCheck SCRF=Check GenChk RB3LYP/6-31G(2df,p) Fr
 eq
 ----------------------------------------------------------------------

 Structure from the checkpoint file:  "/scratch/puck/g09_62a14869-2fd4-4b63-8d8d-d2fd24795bd2/Gau-112812.chk"
 -----
 titel
 -----
 Charge =  0 Multiplicity = 1

                         Standard orientation:
 ---------------------------------------------------------------------
 Center     Atomic      Atomic             Coordinates (Angstroms)
 Number     Number       Type             X           Y           Z
 ---------------------------------------------------------------------
      1          8           0        2.610221   -0.664350    0.131795
      2          6           0        1.502721   -0.180640   -0.570386
      3          6           0        1.092822    1.342723   -0.394928
      4          6           0       -0.251176    0.850118    0.157114
      5          6           0       -1.722180    1.045764   -0.103948
      6          6           0       -2.277293   -0.413067   -0.017593
      7          6           0       -1.103915   -1.369720   -0.411826
      8          6           0        0.105900   -0.561107   -0.026569
      9          8           0        0.043749    0.014576    1.292526
     10          1           0        2.403646   -0.542354    1.067331
     11          1           0        1.642217   -0.448003   -1.620649
     12          1           0        1.707655    1.931241    0.290376
     13          1           0        1.010734    1.862924   -1.352597
     14          1           0       -2.226158    1.719925    0.595063
     15          1           0       -1.850329    1.460703   -1.110958
     16          1           0       -2.579613   -0.621880    1.010456
     17          1           0       -3.154711   -0.556287   -0.653268
     18          1           0       -1.182948   -2.342723    0.081897
     19          1           0       -1.083528   -1.549781   -1.493405
 ---------------------------------------------------------------------

 SCF Done:  E(RB3LYP) =  -423.156101498     A.U. after    1 cycles

 The electronic state is 1-A.
 Alpha  occ. eigenvalues --  -19.15447 -19.13402 -10.24178 -10.23116 -10.22451
 Alpha  occ. eigenvalues --  -10.19500 -10.19430 -10.19023 -10.18972  -1.08297
 Alpha  occ. eigenvalues --   -1.01717  -0.81336  -0.78338  -0.72544  -0.64103
 Alpha  occ. eigenvalues --   -0.63032  -0.58302  -0.53924  -0.51223  -0.47262
 Alpha  occ. eigenvalues --   -0.46416  -0.43927  -0.42721  -0.42517  -0.38982
 Alpha  occ. eigenvalues --   -0.38687  -0.36492  -0.35429  -0.34955  -0.34093
 Alpha  occ. eigenvalues --   -0.31813  -0.29192  -0.25373  -0.24972
 Alpha virt. eigenvalues --    0.07910   0.08506   0.10667   0.10936   0.12406
 Alpha virt. eigenvalues --    0.12847   0.13942   0.14704   0.15503   0.16422
 Alpha virt. eigenvalues --    0.17751   0.19348   0.19709   0.20089   0.20855

 Mulliken charges:
               1
     1  O   -0.431637
     2  C    0.066849
     3  C   -0.353407
     4  C    0.333865
     5  C   -0.316492
     6  C   -0.206727
     7  C   -0.328359
     8  C    0.296567
     9  O   -0.325056
    10  H    0.288284
    11  H    0.096693
    12  H    0.106513
    13  H    0.108469
    14  H    0.111510
    15  H    0.106652
    16  H    0.124475
    17  H    0.101530
    18  H    0.113076
    19  H    0.107194
 Sum of Mulliken charges =   0.00000

 Dipole moment (field-independent basis, Debye):
    X=             -1.8111    Y=              0.6570    Z=             -1.2293  Tot=              2.2854
 Quadrupole moment (field-independent basis, Debye-Ang):
   XX=            -56.6127   YY=            -52.2593   ZZ=            -52.1715
   XY=              2.0916   XZ=              1.8097   YZ=             -0.4413

  Exact polarizability:  83.237   0.967  74.167  -0.156  -0.116  65.240
 Approx polarizability: 108.681  -2.792 111.273   0.237  -0.152 108.417

                      1                      2                      3
                      A                      A                      A
 Frequencies --    121.0603               197.6168               247.3200
 Red. masses --      3.6678                 2.0289                 3.1142
 Frc consts  --      0.0317                 0.0467                 0.1122
 IR Inten    --      3.6279                 0.5188                 0.6989

                      4                      5                      6
                      A                      A                      A
 Frequencies --    270.3597               322.4514               441.3158
 Red. masses --      2.3668                 2.8377                 1.8982
 Frc consts  --      0.1019                 0.1738                 0.2178
 IR Inten    --      0.3891                 5.1766                 6.4374

                      7                      8                      9
                      A                      A                      A
 Frequencies --    478.7725               484.2490               541.2368
 Red. masses --      3.6169                 1.3480                 3.4304
 Frc consts  --      0.4885                 0.1862                 0.5921
 IR Inten    --     16.8975                67.9121                 3.0449

                     10                     11                     12
                      A                      A                      A
 Frequencies --    641.0653               676.9827               725.0812
 Red. masses --      3.0500                 2.9693                 4.2777
 Frc consts  --      0.7385                 0.8018                 1.3251
 IR Inten    --     14.6389                 8.4988                 3.2247

                     13                     14                     15
                      A                      A                      A
 Frequencies --    749.8247               829.5974               846.5025
 Red. masses --      2.5397                 2.3632                 3.0203
 Frc consts  --      0.8413                 0.9583                 1.2751
 IR Inten    --     12.3023                 2.8381                 2.1460

                     16                     17                     18
                      A                      A                      A
 Frequencies --    868.1036               887.0880               912.6995
 Red. masses --      2.7478                 1.9064                 3.2595
 Frc consts  --      1.2200                 0.8839                 1.5998
 IR Inten    --      6.3754                 1.1364                11.6284

                     19                     20                     21
                      A                      A                      A
 Frequencies --    955.7044               977.1362               988.2586
 Red. masses --      2.7518                 2.3103                 2.4853
 Frc consts  --      1.4809                 1.2997                 1.4301
 IR Inten    --      7.3240                 0.3467                 5.0022

                     22                     23                     24
                      A                      A                      A
 Frequencies --   1042.1094              1101.2831              1126.7715
 Red. masses --      1.6655                 1.7951                 1.8903
 Frc consts  --      1.0657                 1.2827                 1.4140
 IR Inten    --      9.4819                19.9900               153.9983

                     25                     26                     27
                      A                      A                      A
 Frequencies --   1162.1851              1173.3768              1201.6230
 Red. masses --      1.6897                 1.4330                 1.3987
 Frc consts  --      1.3447                 1.1624                 1.1899
 IR Inten    --      1.8073                 0.6338                11.4756

                     28                     29                     30
                      A                      A                      A
 Frequencies --   1204.4544              1221.9436              1245.0094
 Red. masses --      1.3917                 2.0283                 1.3663
 Frc consts  --      1.1895                 1.7843                 1.2478
 IR Inten    --      0.4565                10.3141                 5.8987

                     31                     32                     33
                      A                      A                      A
 Frequencies --   1264.9218              1304.5726              1324.9188
 Red. masses --      1.5488                 1.5198                 1.3301
 Frc consts  --      1.4601                 1.5240                 1.3756
 IR Inten    --      4.8645                 0.6437                 0.2716

                     34                     35                     36
                      A                      A                      A
 Frequencies --   1343.4585              1350.5880              1409.0706
 Red. masses --      1.8787                 1.8699                 2.7880
 Frc consts  --      1.9979                 2.0096                 3.2615
 IR Inten    --      3.7504                 2.1104                58.3581

                     37                     38                     39
                      A                      A                      A
 Frequencies --   1443.8474              1473.9950              1482.7415
 Red. masses --      1.3653                 1.2077                 1.1017
 Frc consts  --      1.6769                 1.5460                 1.4270
 IR Inten    --     48.6100                 6.4704                 0.7148

                     40                     41                     42
                      A                      A                      A
 Frequencies --   1484.8165              1498.6754              3039.0693
 Red. masses --      1.1713                 1.1097                 1.0614
 Frc consts  --      1.5215                 1.4685                 5.7760
 IR Inten    --      3.9506                 1.0769                38.5441

                     43                     44                     45
                      A                      A                      A
 Frequencies --   3040.5285              3062.5159              3072.4309
 Red. masses --      1.0626                 1.0582                 1.0660
 Frc consts  --      5.7881                 5.8473                 5.9290
 IR Inten    --     15.8843                34.0518                19.0253

                     46                     47                     48
                      A                      A                      A
 Frequencies --   3084.7607              3085.9820              3088.7215
 Red. masses --      1.0981                 1.0978                 1.0890
 Frc consts  --      6.1567                 6.1596                 6.1214
 IR Inten    --     29.2462                19.9223                22.0216

                     49                     50                     51
                      A                      A                      A
 Frequencies --   3121.9761              3123.1999              3775.8204
 Red. masses --      1.1071                 1.1059                 1.0651
 Frc consts  --      6.3574                 6.3555                 8.9464
 IR Inten    --      1.5554                47.7209                22.6903

 - Thermochemistry -
 -------------------
 Temperature   298.150 Kelvin.  Pressure   1.00000 Atm.
 Atom     1 has atomic number  8 and mass  15.99491

 Molecular mass:   126.06808 amu.
 Principal axes and moments of inertia in atomic units:
                           1         2         3
     Eigenvalues --   524.483881250.357701444.88172
           X            0.99977   0.02139   0.00319
           Y           -0.02136   0.99972  -0.01023
           Z           -0.00341   0.01016   0.99994
 This molecule is an asymmetric top.
 Rotational symmetry number  1.
 Warning -- assumption of classical behavior for rotation
           may cause significant error
 Rotational temperatures (Kelvin)      0.16514     0.06927     0.05995
 Rotational constants (GHZ):           3.44099     1.44338     1.24906
 Zero-point vibrational energy     421790.1 (Joules/Mol)
                                  100.81025 (Kcal/Mol)
 Warning -- explicit consideration of   9 degrees of freedom as
           vibrations may cause significant error
 Vibrational temperatures:    174.18   284.33   355.84   388.99   463.94
          (Kelvin)            634.95   688.85   696.73   778.72   922.35
                              974.03  1043.23  1078.83  1193.60  1217.93
                             1249.01  1276.32  1313.17  1375.04  1405.88
                             1421.88  1499.36  1584.50  1621.17  1672.12
                             1688.23  1728.87  1732.94  1758.10  1791.29
                             1819.94  1876.99  1906.26  1932.93  1943.19
                             2027.34  2077.37  2120.75  2133.33  2136.32
                             2156.26  4372.54  4374.64  4406.27  4420.54
                             4438.28  4440.03  4443.98  4491.82  4493.58
                             5432.56

 Zero-point correction=                           0.160651 (Hartree/Particle)
 Thermal correction to Energy=                    0.168180
 Thermal correction to Enthalpy=                  0.169124
 Thermal correction to Gibbs Free Energy=         0.129005
 Sum of electronic and zero-point Energies=           -422.995450
 Sum of electronic and thermal Energies=              -422.987922
 Sum of electronic and thermal Enthalpies=            -422.986977
 Sum of electronic and thermal Free Energies=         -423.027096

                     E (Thermal)             CV                S
                      KCal/Mol        Cal/Mol-Kelvin    Cal/Mol-Kelvin
 Total                  105.534             30.580             84.437
 Electronic               0.000              0.000              0.000
 Translational            0.889              2.981             40.409
 Rotational               0.889              2.981             28.340
 Vibrational            103.757             24.618             15.689
 Vibration     1          0.609              1.932              3.083
 Vibration     2          0.637              1.843              2.155
 Vibration     3          0.661              1.767              1.750
 Vibration     4          0.674              1.728              1.594
 Vibration     5          0.707              1.630              1.298
 Vibration     6          0.801              1.380              0.822
 Vibration     7          0.835              1.297              0.713
 Vibration     8          0.840              1.285              0.699
 Vibration     9          0.896              1.159              0.563

 Normal termination of Gaussian 09 at Tue Jan 28 03:40:34 2020.
