 Gaussian 09, Revision D.01,
 Gaussian 09:  ES64L-G09RevD.01 24-Apr-2013

 -----------------------------
 # b3lyp 6-31G(2df,p) opt Freq
 -----------------------------

 -----
 titel
 -----
 Symbolic Z-matrix:
 Charge =  0 Multiplicity = 1

 SCF Done:  E(RB3LYP) =  -423.122912115     A.U. after   13 cycles
 Optimization completed.
    -- Stationary point found.
 Normal termination of Gaussian 09 at Tue Jan 28 03:15:39 2020.

 ----------------------------------------------------------------------
 #N Geom=AllCheck Guess=TCheck SCRF=Check GenChk RB3LYP/6-31G(2df,p) Fr
 eq
 ----------------------------------------------------------------------

 Structure from the checkpoint file:  "/scratch/puck/g09_1b54e5cd-a604-4bd7-be6f-97b823aa61b1/Gau-46353.chk"
 -----
 titel
 -----
 Charge =  0 Multiplicity = 1

                         Standard orientation:
 ---------------------------------------------------------------------
 Center     Atomic      Atomic             Coordinates (Angstroms)
 Number     Number       Type             X           Y           Z
 ---------------------------------------------------------------------
      1          6           0       -1.865473    1.726377    0.103724
      2          6           0       -1.432681    0.400181   -0.509538
      3          6           0       -2.005349   -0.871533    0.220745
      4          6           0       -0.566973   -1.277030    0.557460
      5          8           0        0.136010   -1.397366   -0.688276
      6          6           0       -0.014032   -0.091585   -0.124526
      7          6           0        1.213964    0.701627    0.136188
      8          6           0        2.485109    0.396427   -0.538499
      9          8           0        2.266620    0.027314    0.824288
     10          1           0       -1.338950    2.572385   -0.351150
     11          1           0       -2.938558    1.886193   -0.043000
     12          1           0       -1.671318    1.750133    1.182388
     13          1           0       -1.588642    0.404550   -1.592334
     14          1           0       -2.594776   -0.604170    1.102062
     15          1           0       -2.560690   -1.589152   -0.387673
     16          1           0       -0.178564   -1.844538    1.394784
     17          1           0        1.035409    1.723300    0.471795
     18          1           0        2.512163   -0.433492   -1.240337
     19          1           0        3.215498    1.188432   -0.697954
 ---------------------------------------------------------------------

 SCF Done:  E(RB3LYP) =  -423.122912115     A.U. after    1 cycles

 The electronic state is 1-A.
 Alpha  occ. eigenvalues --  -19.15258 -19.14968 -10.24405 -10.23927 -10.23514
 Alpha  occ. eigenvalues --  -10.23351 -10.19934 -10.18914 -10.18572  -1.08428
 Alpha  occ. eigenvalues --   -1.06574  -0.81650  -0.72269  -0.70632  -0.65698
 Alpha  occ. eigenvalues --   -0.62544  -0.60073  -0.54442  -0.52091  -0.49357
 Alpha  occ. eigenvalues --   -0.46163  -0.45725  -0.43396  -0.41086  -0.40034
 Alpha  occ. eigenvalues --   -0.39371  -0.38285  -0.35131  -0.34356  -0.32989
 Alpha  occ. eigenvalues --   -0.32336  -0.28314  -0.26948  -0.24785
 Alpha virt. eigenvalues --    0.06241   0.08583   0.10417   0.11617   0.12360
 Alpha virt. eigenvalues --    0.13324   0.13524   0.14299   0.15160   0.15935
 Alpha virt. eigenvalues --    0.16413   0.17733   0.18540   0.19626   0.20032

 Mulliken charges:
               1
     1  C   -0.413559
     2  C   -0.059726
     3  C   -0.263801
     4  C   -0.039970
     5  O   -0.294879
     6  C    0.441315
     7  C   -0.079431
     8  C   -0.173409
     9  O   -0.229534
    10  H    0.118687
    11  H    0.122676
    12  H    0.118297
    13  H    0.081816
    14  H    0.105348
    15  H    0.110950
    16  H    0.114029
    17  H    0.094667
    18  H    0.133192
    19  H    0.113333
 Sum of Mulliken charges =   0.00000

 Dipole moment (field-independent basis, Debye):
    X=             -1.4340    Y=              1.7280    Z=             -0.1922  Tot=              2.2537
 Quadrupole moment (field-independent basis, Debye-Ang):
   XX=            -52.3597   YY=            -52.7792   ZZ=            -53.8713
   XY=              2.2586   XZ=             -4.0268   YZ=             -2.2050

  Exact polarizability:  88.967   2.303  74.545  -4.909  -2.184  63.213
 Approx polarizability: 115.784   1.201 109.159  -7.191  -3.133 103.502

                      1                      2                      3
                      A                      A                      A
 Frequencies --     70.3241               136.3641               156.5158
 Red. masses --      3.5836                 2.9821                 3.2764
 Frc consts  --      0.0104                 0.0327                 0.0473
 IR Inten    --      2.6534                 1.8166                 0.2386

                      4                      5                      6
                      A                      A                      A
 Frequencies --    211.3797               262.1754               272.6321
 Red. masses --      3.3259                 1.2124                 2.6253
 Frc consts  --      0.0876                 0.0491                 0.1150
 IR Inten    --      3.7656                 0.1560                 0.8864

                      7                      8                      9
                      A                      A                      A
 Frequencies --    405.8251               453.3727               493.5412
 Red. masses --      2.1200                 3.9515                 3.6442
 Frc consts  --      0.2057                 0.4785                 0.5230
 IR Inten    --      1.1728                 0.4954                 5.3597

                     10                     11                     12
                      A                      A                      A
 Frequencies --    509.3201               672.9468               734.1861
 Red. masses --      3.8378                 2.9135                 3.1109
 Frc consts  --      0.5866                 0.7774                 0.9880
 IR Inten    --     14.5773                 9.7657                 3.3100

                     13                     14                     15
                      A                      A                      A
 Frequencies --    833.9210               851.2827               857.1126
 Red. masses --      3.0655                 2.0969                 7.0821
 Frc consts  --      1.2560                 0.8953                 3.0654
 IR Inten    --      7.5164                 3.0076                15.5591

                     16                     17                     18
                      A                      A                      A
 Frequencies --    893.2722               899.4122               929.8123
 Red. masses --      2.8876                 2.3416                 1.8333
 Frc consts  --      1.3576                 1.1161                 0.9338
 IR Inten    --     18.4607                19.7526                 6.1961

                     19                     20                     21
                      A                      A                      A
 Frequencies --    941.3059              1013.2080              1036.7131
 Red. masses --      2.4070                 1.3667                 2.0490
 Frc consts  --      1.2566                 0.8266                 1.2975
 IR Inten    --     14.2419                 1.4516                18.8686

                     22                     23                     24
                      A                      A                      A
 Frequencies --   1051.9528              1086.8079              1100.4928
 Red. masses --      1.6866                 1.7991                 1.2632
 Frc consts  --      1.0997                 1.2520                 0.9014
 IR Inten    --      3.5001                 2.7143                 2.3896

                     25                     26                     27
                      A                      A                      A
 Frequencies --   1117.4960              1155.0400              1166.2205
 Red. masses --      2.1644                 1.9464                 1.5020
 Frc consts  --      1.5925                 1.5299                 1.2036
 IR Inten    --      0.4654                 5.8604                 4.8839

                     28                     29                     30
                      A                      A                      A
 Frequencies --   1169.6074              1198.7526              1237.1351
 Red. masses --      1.4707                 1.5025                 1.4376
 Frc consts  --      1.1853                 1.2721                 1.2963
 IR Inten    --      1.8805                 0.1099                 3.1295

                     31                     32                     33
                      A                      A                      A
 Frequencies --   1250.5830              1273.0453              1286.2659
 Red. masses --      1.4471                 1.6212                 1.7072
 Frc consts  --      1.3335                 1.5480                 1.6642
 IR Inten    --      7.2151                 7.7520                 3.5596

                     34                     35                     36
                      A                      A                      A
 Frequencies --   1344.3970              1404.4550              1411.4568
 Red. masses --      1.5084                 2.0483                 1.2709
 Frc consts  --      1.6062                 2.3805                 1.4918
 IR Inten    --      4.3543                 5.5393                 4.3991

                     37                     38                     39
                      A                      A                      A
 Frequencies --   1463.4259              1483.2406              1497.4599
 Red. masses --      1.5263                 1.6633                 1.0459
 Frc consts  --      1.9258                 2.1560                 1.3819
 IR Inten    --      6.3561                 1.3233                 3.2357

                     40                     41                     42
                      A                      A                      A
 Frequencies --   1500.5414              1518.9375              3025.9884
 Red. masses --      1.0623                 1.5303                 1.0356
 Frc consts  --      1.4092                 2.0803                 5.5868
 IR Inten    --      4.2884                 2.1945                19.7296

                     43                     44                     45
                      A                      A                      A
 Frequencies --   3060.3046              3064.0399              3090.4743
 Red. masses --      1.0727                 1.0710                 1.0512
 Frc consts  --      5.9194                 5.9243                 5.9156
 IR Inten    --     18.6622                22.8102                31.0434

                     46                     47                     48
                      A                      A                      A
 Frequencies --   3093.5096              3099.0051              3111.5527
 Red. masses --      1.1005                 1.1003                 1.0876
 Frc consts  --      6.2048                 6.2260                 6.2043
 IR Inten    --     31.2532                25.3400                23.9591

                     49                     50                     51
                      A                      A                      A
 Frequencies --   3120.0833              3190.3239              3194.6675
 Red. masses --      1.1079                 1.1187                 1.0942
 Frc consts  --      6.3545                 6.7086                 6.5797
 IR Inten    --     23.6969                16.0588                12.8488

 - Thermochemistry -
 -------------------
 Temperature   298.150 Kelvin.  Pressure   1.00000 Atm.
 Atom     1 has atomic number  6 and mass  12.00000

 Molecular mass:   126.06808 amu.
 Principal axes and moments of inertia in atomic units:
                           1         2         3
     Eigenvalues --   604.264271354.215161676.76201
           X            0.99975  -0.01142  -0.01910
           Y            0.01108   0.99978  -0.01776
           Z            0.01929   0.01755   0.99966
 This molecule is an asymmetric top.
 Rotational symmetry number  1.
 Warning -- assumption of classical behavior for rotation
           may cause significant error
 Rotational temperatures (Kelvin)      0.14334     0.06396     0.05166
 Rotational constants (GHZ):           2.98668     1.33268     1.07633
 Zero-point vibrational energy     415115.5 (Joules/Mol)
                                   99.21498 (Kcal/Mol)
 Warning -- explicit consideration of  10 degrees of freedom as
           vibrations may cause significant error
 Vibrational temperatures:    101.18   196.20   225.19   304.13   377.21
          (Kelvin)            392.26   583.89   652.30   710.09   732.80
                              968.22  1056.33  1199.82  1224.80  1233.19
                             1285.22  1294.05  1337.79  1354.33  1457.78
                             1491.60  1513.52  1563.67  1583.36  1607.83
                             1661.84  1677.93  1682.80  1724.74  1779.96
                             1799.31  1831.63  1850.65  1934.28  2020.69
                             2030.77  2105.54  2134.05  2154.51  2158.94
                             2185.41  4353.72  4403.09  4408.46  4446.50
                             4450.86  4458.77  4476.82  4489.10  4590.16
                             4596.41

 Zero-point correction=                           0.158109 (Hartree/Particle)
 Thermal correction to Energy=                    0.166486
 Thermal correction to Enthalpy=                  0.167431
 Thermal correction to Gibbs Free Energy=         0.124899
 Sum of electronic and zero-point Energies=           -422.964803
 Sum of electronic and thermal Energies=              -422.956426
 Sum of electronic and thermal Enthalpies=            -422.955482
 Sum of electronic and thermal Free Energies=         -422.998013

                     E (Thermal)             CV                S
                      KCal/Mol        Cal/Mol-Kelvin    Cal/Mol-Kelvin
 Total                  104.472             31.778             89.516
 Electronic               0.000              0.000              0.000
 Translational            0.889              2.981             40.409
 Rotational               0.889              2.981             28.708
 Vibrational            102.694             25.816             20.399
 Vibration     1          0.598              1.968              4.144
 Vibration     2          0.614              1.917              2.854
 Vibration     3          0.620              1.895              2.591
 Vibration     4          0.643              1.824              2.032
 Vibration     5          0.669              1.742              1.647
 Vibration     6          0.676              1.724              1.579
 Vibration     7          0.771              1.458              0.941
 Vibration     8          0.812              1.353              0.786
 Vibration     9          0.849              1.264              0.674
 Vibration    10          0.864              1.229              0.635

 Optimization completed.
    -- Stationary point found.
 Normal termination of Gaussian 09 at Tue Jan 28 05:07:53 2020.
