 Gaussian 09, Revision D.01,
 Gaussian 09:  ES64L-G09RevD.01 24-Apr-2013

 -----------------------------
 # b3lyp 6-31G(2df,p) opt Freq
 -----------------------------

 -----
 titel
 -----
 Symbolic Z-matrix:
 Charge =  0 Multiplicity = 1

 SCF Done:  E(RB3LYP) =  -423.175991874     A.U. after   14 cycles
 Optimization completed.
    -- Stationary point found.
 Normal termination of Gaussian 09 at Mon Jan 27 16:27:29 2020.

 ----------------------------------------------------------------------
 #N Geom=AllCheck Guess=TCheck SCRF=Check GenChk RB3LYP/6-31G(2df,p) Fr
 eq
 ----------------------------------------------------------------------

 Structure from the checkpoint file:  "/scratch/puck/g09_e808e99a-6fc2-47a9-a65a-a6ae8c51dfaf/Gau-177130.chk"
 -----
 titel
 -----
 Charge =  0 Multiplicity = 1

                         Standard orientation:
 ---------------------------------------------------------------------
 Center     Atomic      Atomic             Coordinates (Angstroms)
 Number     Number       Type             X           Y           Z
 ---------------------------------------------------------------------
      1          6           0       -2.147739    1.368101   -0.149227
      2          6           0       -1.328113    0.095865   -0.134605
      3          6           0       -2.008916   -1.206077   -0.182048
      4          8           0       -1.475461   -0.704648    1.049777
      5          6           0        0.094655    0.232374   -0.633955
      6          6           0        1.058697    1.110480    0.235534
      7          6           0        2.103160   -0.005164    0.083124
      8          8           0        3.288067   -0.057080    0.236706
      9          6           0        1.056509   -0.983624   -0.464903
     10          1           0       -2.254795    1.747499   -1.171178
     11          1           0       -3.143518    1.190168    0.263345
     12          1           0       -1.664840    2.147993    0.448622
     13          1           0       -3.096123   -1.242972   -0.235440
     14          1           0       -1.497320   -2.076229   -0.590370
     15          1           0        0.080386    0.587179   -1.669037
     16          1           0        1.342220    2.102175   -0.123503
     17          1           0        0.719010    1.187543    1.274593
     18          1           0        1.335030   -1.569316   -1.343444
     19          1           0        0.709587   -1.651937    0.331032
 ---------------------------------------------------------------------

 SCF Done:  E(RB3LYP) =  -423.175991874     A.U. after    1 cycles

 The electronic state is 1-A.
 Alpha  occ. eigenvalues --  -19.15665 -19.13438 -10.26976 -10.25138 -10.23804
 Alpha  occ. eigenvalues --  -10.20841 -10.19426 -10.19235 -10.19029  -1.07599
 Alpha  occ. eigenvalues --   -1.04375  -0.85332  -0.75823  -0.68739  -0.66885
 Alpha  occ. eigenvalues --   -0.65481  -0.56143  -0.53453  -0.50816  -0.48217
 Alpha  occ. eigenvalues --   -0.47477  -0.43873  -0.43104  -0.42501  -0.40691
 Alpha  occ. eigenvalues --   -0.40496  -0.39151  -0.37449  -0.35723  -0.34249
 Alpha  occ. eigenvalues --   -0.33752  -0.29686  -0.27531  -0.24145
 Alpha virt. eigenvalues --   -0.01572   0.07932   0.08936   0.09470   0.11855
 Alpha virt. eigenvalues --    0.12505   0.13273   0.14346   0.14669   0.15368
 Alpha virt. eigenvalues --    0.16675   0.18313   0.18798   0.20155   0.20818

 Mulliken charges:
               1
     1  C   -0.461498
     2  C    0.395393
     3  C   -0.229119
     4  O   -0.269694
     5  C   -0.063036
     6  C   -0.356832
     7  C    0.398449
     8  O   -0.291282
     9  C   -0.369417
    10  H    0.123261
    11  H    0.130127
    12  H    0.131651
    13  H    0.115599
    14  H    0.115527
    15  H    0.086391
    16  H    0.127265
    17  H    0.142952
    18  H    0.123705
    19  H    0.150557
 Sum of Mulliken charges =   0.00000

 Dipole moment (field-independent basis, Debye):
    X=             -3.1042    Y=              0.5581    Z=             -1.9885  Tot=              3.7285
 Quadrupole moment (field-independent basis, Debye-Ang):
   XX=            -63.9980   YY=            -50.1476   ZZ=            -53.7392
   XY=              0.3585   XZ=              0.8732   YZ=              1.4878

  Exact polarizability:  90.021   1.371  77.647   1.453   2.897  59.599
 Approx polarizability: 121.970   3.504 111.944   3.112   2.412  98.773

                      1                      2                      3
                      A                      A                      A
 Frequencies --     72.8295                81.7728               172.3289
 Red. masses --      4.8423                 2.9314                 2.8345
 Frc consts  --      0.0151                 0.0115                 0.0496
 IR Inten    --      3.7097                 0.1827                 0.9976

                      4                      5                      6
                      A                      A                      A
 Frequencies --    194.4976               237.0886               327.8866
 Red. masses --      1.0994                 4.0897                 2.8473
 Frc consts  --      0.0245                 0.1354                 0.1804
 IR Inten    --      0.4323                 8.4040                 1.5512

                      7                      8                      9
                      A                      A                      A
 Frequencies --    366.0592               418.7204               428.1312
 Red. masses --      2.7047                 2.4700                 2.6836
 Frc consts  --      0.2135                 0.2552                 0.2898
 IR Inten    --      5.3842                 0.5492                 2.4433

                     10                     11                     12
                      A                      A                      A
 Frequencies --    507.6012               520.0650               614.7864
 Red. masses --      2.5959                 2.9144                 3.0473
 Frc consts  --      0.3941                 0.4644                 0.6786
 IR Inten    --      2.4783                 4.8193                 3.0506

                     13                     14                     15
                      A                      A                      A
 Frequencies --    679.6722               717.0470               790.6116
 Red. masses --      1.4487                 3.7903                 3.3209
 Frc consts  --      0.3943                 1.1482                 1.2230
 IR Inten    --      0.4025                 1.2352                16.9622

                     16                     17                     18
                      A                      A                      A
 Frequencies --    865.2144               909.8451               925.6918
 Red. masses --      2.9004                 1.7685                 2.5162
 Frc consts  --      1.2793                 0.8626                 1.2704
 IR Inten    --     17.0349                 3.6324                 6.1215

                     19                     20                     21
                      A                      A                      A
 Frequencies --    929.6379               991.2937              1009.7348
 Red. masses --      2.1342                 1.5532                 2.2130
 Frc consts  --      1.0867                 0.8992                 1.3294
 IR Inten    --      1.3827                 5.9111                 5.7835

                     22                     23                     24
                      A                      A                      A
 Frequencies --   1025.2314              1061.0737              1104.2599
 Red. masses --      1.7112                 2.5615                 2.3722
 Frc consts  --      1.0597                 1.6992                 1.7043
 IR Inten    --     16.8202                13.2288                29.5413

                     25                     26                     27
                      A                      A                      A
 Frequencies --   1116.6765              1135.2604              1170.0561
 Red. masses --      2.3393                 1.3621                 1.3687
 Frc consts  --      1.7186                 1.0343                 1.1040
 IR Inten    --     19.4867                 2.7897                 0.7175

                     28                     29                     30
                      A                      A                      A
 Frequencies --   1195.7837              1198.3364              1237.2609
 Red. masses --      1.3761                 1.4013                 1.5323
 Frc consts  --      1.1593                 1.1856                 1.3821
 IR Inten    --      1.9998                 7.4184                 0.2516

                     31                     32                     33
                      A                      A                      A
 Frequencies --   1244.7517              1259.4828              1372.5857
 Red. masses --      1.7046                 1.5157                 1.7317
 Frc consts  --      1.5561                 1.4166                 1.9222
 IR Inten    --     24.0145                 9.4198                 3.9354

                     34                     35                     36
                      A                      A                      A
 Frequencies --   1393.8135              1415.3447              1423.6162
 Red. masses --      2.3811                 1.4561                 1.0944
 Frc consts  --      2.7255                 1.7186                 1.3069
 IR Inten    --      9.3178                10.2999                12.2578

                     37                     38                     39
                      A                      A                      A
 Frequencies --   1446.1665              1483.6393              1495.4931
 Red. masses --      1.1355                 1.0544                 1.0651
 Frc consts  --      1.3992                 1.3674                 1.4035
 IR Inten    --      2.5230                 4.8961                 2.3822

                     40                     41                     42
                      A                      A                      A
 Frequencies --   1530.6588              1896.9409              3037.4996
 Red. masses --      1.3612                12.4797                 1.0364
 Frc consts  --      1.8790                26.4583                 5.6337
 IR Inten    --      3.8927               314.8763                13.5980

                     43                     44                     45
                      A                      A                      A
 Frequencies --   3051.2767              3056.1290              3063.1089
 Red. masses --      1.0590                 1.0625                 1.0828
 Frc consts  --      5.8091                 5.8469                 5.9856
 IR Inten    --      7.1138                 4.1263                16.2326

                     46                     47                     48
                      A                      A                      A
 Frequencies --   3084.7194              3101.6027              3120.4216
 Red. masses --      1.0507                 1.1004                 1.1036
 Frc consts  --      5.8905                 6.2371                 6.3313
 IR Inten    --     23.9341                17.6732                 9.1925

                     49                     50                     51
                      A                      A                      A
 Frequencies --   3122.9715              3126.1188              3170.2873
 Red. masses --      1.1045                 1.1014                 1.1191
 Frc consts  --      6.3469                 6.3414                 6.6270
 IR Inten    --      8.1857                18.4169                23.2471

 - Thermochemistry -
 -------------------
 Temperature   298.150 Kelvin.  Pressure   1.00000 Atm.
 Atom     1 has atomic number  6 and mass  12.00000

 Molecular mass:   126.06808 amu.
 Principal axes and moments of inertia in atomic units:
                           1         2         3
     Eigenvalues --   490.839551723.571221958.31072
           X            0.99992  -0.01165   0.00422
           Y            0.01148   0.99922   0.03789
           Z           -0.00465  -0.03784   0.99927
 This molecule is an asymmetric top.
 Rotational symmetry number  1.
 Warning -- assumption of classical behavior for rotation
           may cause significant error
 Rotational temperatures (Kelvin)      0.17646     0.05025     0.04423
 Rotational constants (GHZ):           3.67685     1.04709     0.92158
 Zero-point vibrational energy     412120.0 (Joules/Mol)
                                   98.49904 (Kcal/Mol)
 Warning -- explicit consideration of  12 degrees of freedom as
           vibrations may cause significant error
 Vibrational temperatures:    104.79   117.65   247.94   279.84   341.12
          (Kelvin)            471.76   526.68   602.44   615.98   730.32
                              748.26   884.54   977.90  1031.67  1137.51
                             1244.85  1309.06  1331.86  1337.54  1426.25
                             1452.78  1475.08  1526.65  1588.78  1606.65
                             1633.38  1683.45  1720.46  1724.14  1780.14
                             1790.92  1812.11  1974.84  2005.38  2036.36
                             2048.26  2080.71  2134.62  2151.68  2202.27
                             2729.27  4370.28  4390.10  4397.08  4407.13
                             4438.22  4462.51  4489.59  4493.25  4497.78
                             4561.33

 Zero-point correction=                           0.156968 (Hartree/Particle)
 Thermal correction to Energy=                    0.165794
 Thermal correction to Enthalpy=                  0.166738
 Thermal correction to Gibbs Free Energy=         0.123169
 Sum of electronic and zero-point Energies=           -423.019024
 Sum of electronic and thermal Energies=              -423.010198
 Sum of electronic and thermal Enthalpies=            -423.009254
 Sum of electronic and thermal Free Energies=         -423.052823

                     E (Thermal)             CV                S
                      KCal/Mol        Cal/Mol-Kelvin    Cal/Mol-Kelvin
 Total                  104.037             33.266             91.700
 Electronic               0.000              0.000              0.000
 Translational            0.889              2.981             40.409
 Rotational               0.889              2.981             28.895
 Vibrational            102.260             27.305             22.396
 Vibration     1          0.599              1.967              4.075
 Vibration     2          0.600              1.962              3.848
 Vibration     3          0.626              1.877              2.410
 Vibration     4          0.635              1.848              2.185
 Vibration     5          0.656              1.784              1.825
 Vibration     6          0.711              1.620              1.270
 Vibration     7          0.739              1.542              1.096
 Vibration     8          0.782              1.430              0.896
 Vibration     9          0.790              1.409              0.865
 Vibration    10          0.863              1.233              0.639
 Vibration    11          0.875              1.206              0.610
 Vibration    12          0.974              1.001              0.425

 Optimization completed.
    -- Stationary point found.
 Normal termination of Gaussian 09 at Mon Jan 27 17:09:46 2020.
