 Gaussian 09, Revision D.01,
 Gaussian 09:  ES64L-G09RevD.01 24-Apr-2013

 -----------------------------
 # b3lyp 6-31G(2df,p) opt Freq
 -----------------------------

 -----
 titel
 -----
 Symbolic Z-matrix:
 Charge =  0 Multiplicity = 1

 SCF Done:  E(RB3LYP) =  -423.128345007     A.U. after   14 cycles
 Optimization completed.
    -- Stationary point found.
 Normal termination of Gaussian 09 at Mon Jan 27 15:31:04 2020.

 ----------------------------------------------------------------------
 #N Geom=AllCheck Guess=TCheck SCRF=Check GenChk RB3LYP/6-31G(2df,p) Fr
 eq
 ----------------------------------------------------------------------

 Structure from the checkpoint file:  "/scratch/puck/g09_e9c2a7fd-3c26-47e5-a855-bfa187d79382/Gau-174113.chk"
 -----
 titel
 -----
 Charge =  0 Multiplicity = 1

                         Standard orientation:
 ---------------------------------------------------------------------
 Center     Atomic      Atomic             Coordinates (Angstroms)
 Number     Number       Type             X           Y           Z
 ---------------------------------------------------------------------
      1          6           0        1.728280   -0.966275   -1.104638
      2          6           0        0.869508   -0.908316    0.154676
      3          8           0        1.617227   -0.615535    1.323967
      4          6           0       -0.305521    0.087388    0.023863
      5          6           0       -1.443978   -0.108316    1.064251
      6          6           0       -2.300606   -0.504719   -0.152244
      7          8           0       -1.193635   -0.297987   -1.060953
      8          6           0        0.188125    1.456028   -0.110252
      9          6           0        0.623708    2.574469   -0.195927
     10          1           0        2.513514   -1.717092   -0.984283
     11          1           0        1.114489   -1.225663   -1.971426
     12          1           0        2.199694    0.003357   -1.297592
     13          1           0        0.422766   -1.892524    0.335452
     14          1           0        2.004751    0.260274    1.202483
     15          1           0       -1.241382   -0.893042    1.793415
     16          1           0       -1.754348    0.799415    1.579999
     17          1           0       -2.654843   -1.541372   -0.176752
     18          1           0       -3.137988    0.164381   -0.379398
     19          1           0        0.987508    3.568876   -0.284391
 ---------------------------------------------------------------------

 SCF Done:  E(RB3LYP) =  -423.128345007     A.U. after    1 cycles

 The electronic state is 1-A.
 Alpha  occ. eigenvalues --  -19.14049 -19.13687 -10.26068 -10.23548 -10.23524
 Alpha  occ. eigenvalues --  -10.19446 -10.19089 -10.18777 -10.17059  -1.04641
 Alpha  occ. eigenvalues --   -1.01912  -0.79011  -0.74735  -0.74372  -0.69175
 Alpha  occ. eigenvalues --   -0.61901  -0.59258  -0.53087  -0.51055  -0.49711
 Alpha  occ. eigenvalues --   -0.46836  -0.45461  -0.44372  -0.42695  -0.39076
 Alpha  occ. eigenvalues --   -0.37994  -0.36785  -0.34508  -0.33296  -0.31576
 Alpha  occ. eigenvalues --   -0.29101  -0.28266  -0.27368  -0.24776
 Alpha virt. eigenvalues --    0.01747   0.04004   0.08881   0.09960   0.11222
 Alpha virt. eigenvalues --    0.11889   0.12501   0.13624   0.14718   0.16325
 Alpha virt. eigenvalues --    0.17475   0.17639   0.19129   0.20919   0.22288

 Mulliken charges:
               1
     1  C   -0.418724
     2  C    0.082291
     3  O   -0.437143
     4  C    0.230600
     5  C   -0.335668
     6  C   -0.072516
     7  O   -0.314141
     8  C    0.303196
     9  C   -0.461709
    10  H    0.120835
    11  H    0.138193
    12  H    0.119419
    13  H    0.088677
    14  H    0.282923
    15  H    0.128191
    16  H    0.122939
    17  H    0.108118
    18  H    0.111121
    19  H    0.203396
 Sum of Mulliken charges =   0.00000

 Dipole moment (field-independent basis, Debye):
    X=             -0.4764    Y=              0.8634    Z=              0.5174  Tot=              1.1136
 Quadrupole moment (field-independent basis, Debye-Ang):
   XX=            -49.7433   YY=            -47.7850   ZZ=            -58.0094
   XY=              4.2544   XZ=             -3.6753   YZ=              1.2708

  Exact polarizability:  80.699   8.937  88.220  -1.953  -0.616  62.367
 Approx polarizability: 107.303  19.198 136.130   0.580  -2.521  93.792

                      1                      2                      3
                      A                      A                      A
 Frequencies --     70.0646                86.2004               139.1340
 Red. masses --      2.3049                 3.6070                 3.9431
 Frc consts  --      0.0067                 0.0158                 0.0450
 IR Inten    --      1.1433                 3.3408                 0.0681

                      4                      5                      6
                      A                      A                      A
 Frequencies --    175.4139               198.8585               243.1744
 Red. masses --      3.5651                 3.2941                 1.0898
 Frc consts  --      0.0646                 0.0768                 0.0380
 IR Inten    --      1.6810                 3.9577                 0.1866

                      7                      8                      9
                      A                      A                      A
 Frequencies --    310.1454               324.8237               374.5170
 Red. masses --      3.1843                 2.4148                 1.3128
 Frc consts  --      0.1805                 0.1501                 0.1085
 IR Inten    --      2.0222                16.4340                94.2423

                     10                     11                     12
                      A                      A                      A
 Frequencies --    428.6126               481.3443               525.5369
 Red. masses --      5.3137                 3.0494                 5.5502
 Frc consts  --      0.5751                 0.4163                 0.9032
 IR Inten    --      7.3801                19.3700                 0.5825

                     13                     14                     15
                      A                      A                      A
 Frequencies --    562.2981               623.5242               668.7625
 Red. masses --      6.1820                 1.2233                 2.6762
 Frc consts  --      1.1516                 0.2802                 0.7052
 IR Inten    --      2.3965                43.9920                 8.3573

                     16                     17                     18
                      A                      A                      A
 Frequencies --    672.7663               783.8816               850.7221
 Red. masses --      1.3456                 1.1155                 4.3412
 Frc consts  --      0.3588                 0.4038                 1.8511
 IR Inten    --     34.4570                 0.0793                 3.2501

                     19                     20                     21
                      A                      A                      A
 Frequencies --    885.2642               935.1601               967.9757
 Red. masses --      2.2569                 1.8714                 2.6723
 Frc consts  --      1.0421                 0.9642                 1.4753
 IR Inten    --     15.6549                 1.2047                 9.6391

                     22                     23                     24
                      A                      A                      A
 Frequencies --   1009.8622              1018.0110              1040.8461
 Red. masses --      4.1503                 4.1750                 2.0896
 Frc consts  --      2.4938                 2.5492                 1.3338
 IR Inten    --     62.2328                84.6308                54.8366

                     25                     26                     27
                      A                      A                      A
 Frequencies --   1087.5463              1111.2967              1158.2598
 Red. masses --      2.1913                 2.5298                 3.0774
 Frc consts  --      1.5270                 1.8408                 2.4324
 IR Inten    --     28.2675                67.3119                 6.0528

                     28                     29                     30
                      A                      A                      A
 Frequencies --   1159.6094              1203.2621              1239.9390
 Red. masses --      1.2678                 1.4103                 2.0775
 Frc consts  --      1.0044                 1.2031                 1.8819
 IR Inten    --      1.9285                 3.0723                 2.7030

                     31                     32                     33
                      A                      A                      A
 Frequencies --   1255.7055              1304.3934              1345.5852
 Red. masses --      1.5834                 1.5506                 1.3670
 Frc consts  --      1.4710                 1.5544                 1.4583
 IR Inten    --      9.7413                16.6581                 1.9611

                     34                     35                     36
                      A                      A                      A
 Frequencies --   1363.0690              1400.1467              1419.3840
 Red. masses --      1.3821                 1.2620                 1.2123
 Frc consts  --      1.5130                 1.4576                 1.4390
 IR Inten    --      8.0770                11.9665                58.3672

                     37                     38                     39
                      A                      A                      A
 Frequencies --   1489.1340              1490.7249              1497.6911
 Red. masses --      1.0966                 1.0485                 1.0578
 Frc consts  --      1.4327                 1.3729                 1.3980
 IR Inten    --      5.6075                 4.2408                 2.3254

                     40                     41                     42
                      A                      A                      A
 Frequencies --   1529.5859              2221.6708              3028.3836
 Red. masses --      1.1039                 5.9301                 1.0552
 Frc consts  --      1.5218                17.2454                 5.7019
 IR Inten    --      1.1700                 1.5414                81.0970

                     43                     44                     45
                      A                      A                      A
 Frequencies --   3040.9914              3049.4630              3070.3871
 Red. masses --      1.0373                 1.0834                 1.1117
 Frc consts  --      5.6516                 5.9356                 6.1749
 IR Inten    --      9.0191                23.8847                31.0995

                     46                     47                     48
                      A                      A                      A
 Frequencies --   3095.2299              3114.4970              3129.5216
 Red. masses --      1.0595                 1.1001                 1.1024
 Frc consts  --      5.9807                 6.2869                 6.3611
 IR Inten    --     15.6893                23.0838                12.9981

                     49                     50                     51
                      A                      A                      A
 Frequencies --   3155.2369              3496.3557              3776.9052
 Red. masses --      1.1094                 1.1615                 1.0654
 Frc consts  --      6.5075                 8.3655                 8.9548
 IR Inten    --     13.6615                66.7504                18.7817

 - Thermochemistry -
 -------------------
 Temperature   298.150 Kelvin.  Pressure   1.00000 Atm.
 Atom     1 has atomic number  6 and mass  12.00000

 Molecular mass:   126.06808 amu.
 Principal axes and moments of inertia in atomic units:
                           1         2         3
     Eigenvalues --   895.699351189.973731449.51470
           X            0.99841   0.01378  -0.05472
           Y           -0.01186   0.99930   0.03534
           Z            0.05517  -0.03464   0.99788
 This molecule is an asymmetric top.
 Rotational symmetry number  1.
 Warning -- assumption of classical behavior for rotation
           may cause significant error
 Rotational temperatures (Kelvin)      0.09670     0.07279     0.05975
 Rotational constants (GHZ):           2.01490     1.51662     1.24507
 Zero-point vibrational energy     410384.2 (Joules/Mol)
                                   98.08417 (Kcal/Mol)
 Warning -- explicit consideration of  13 degrees of freedom as
           vibrations may cause significant error
 Vibrational temperatures:    100.81   124.02   200.18   252.38   286.11
          (Kelvin)            349.87   446.23   467.35   538.85   616.68
                              692.55   756.13   809.02   897.11   962.20
                              967.96  1127.83  1224.00  1273.70  1345.49
                             1392.70  1452.96  1464.69  1497.54  1564.73
                             1598.91  1666.48  1668.42  1731.22  1783.99
                             1806.68  1876.73  1935.99  1961.15  2014.50
                             2042.17  2142.53  2144.82  2154.84  2200.73
                             3196.48  4357.16  4375.30  4387.49  4417.60
                             4453.34  4481.06  4502.68  4539.68  5030.47
                             5434.12

 Zero-point correction=                           0.156307 (Hartree/Particle)
 Thermal correction to Energy=                    0.166047
 Thermal correction to Enthalpy=                  0.166991
 Thermal correction to Gibbs Free Energy=         0.121738
 Sum of electronic and zero-point Energies=           -422.972038
 Sum of electronic and thermal Energies=              -422.962298
 Sum of electronic and thermal Enthalpies=            -422.961354
 Sum of electronic and thermal Free Energies=         -423.006607

                     E (Thermal)             CV                S
                      KCal/Mol        Cal/Mol-Kelvin    Cal/Mol-Kelvin
 Total                  104.196             36.036             95.244
 Electronic               0.000              0.000              0.000
 Translational            0.889              2.981             40.409
 Rotational               0.889              2.981             28.826
 Vibrational            102.419             30.074             26.009
 Vibration     1          0.598              1.968              4.152
 Vibration     2          0.601              1.959              3.745
 Vibration     3          0.615              1.914              2.816
 Vibration     4          0.627              1.873              2.377
 Vibration     5          0.637              1.841              2.144
 Vibration     6          0.659              1.774              1.780
 Vibration     7          0.699              1.654              1.362
 Vibration     8          0.709              1.626              1.286
 Vibration     9          0.746              1.524              1.061
 Vibration    10          0.790              1.408              0.863
 Vibration    11          0.838              1.291              0.706
 Vibration    12          0.880              1.193              0.597
 Vibration    13          0.918              1.113              0.519

 Normal termination of Gaussian 09 at Mon Jan 27 16:15:02 2020.
