 Gaussian 09, Revision D.01,
 Gaussian 09:  ES64L-G09RevD.01 24-Apr-2013

 -----------------------------
 # b3lyp 6-31G(2df,p) opt Freq
 -----------------------------

 -----
 titel
 -----
 Symbolic Z-matrix:
 Charge =  0 Multiplicity = 1

 SCF Done:  E(RB3LYP) =  -423.195330443     A.U. after   14 cycles
 Optimization completed.
    -- Stationary point found.
 Normal termination of Gaussian 09 at Mon Jan 27 15:46:09 2020.

 ----------------------------------------------------------------------
 #N Geom=AllCheck Guess=TCheck SCRF=Check GenChk RB3LYP/6-31G(2df,p) Fr
 eq
 ----------------------------------------------------------------------

 Structure from the checkpoint file:  "/scratch/puck/g09_ca0ed441-fcf8-45e8-bcf6-0314ecbbbb48/Gau-143289.chk"
 -----
 titel
 -----
 Charge =  0 Multiplicity = 1

                         Standard orientation:
 ---------------------------------------------------------------------
 Center     Atomic      Atomic             Coordinates (Angstroms)
 Number     Number       Type             X           Y           Z
 ---------------------------------------------------------------------
      1          6           0       -1.894322   -1.559017    0.031565
      2          6           0       -1.162323   -0.280664    0.476212
      3          6           0       -1.379486    0.813107   -0.553290
      4          8           0       -2.012734    1.819913   -0.360554
      5          6           0        0.344593   -0.553155    0.689319
      6          8           0        0.943519   -1.023920   -0.522976
      7          6           0        2.105110   -0.256358   -0.839238
      8          6           0        2.154595    0.822602    0.204714
      9          6           0        1.163217    0.653095    1.071158
     10          1           0       -1.495409   -1.921803   -0.919653
     11          1           0       -1.758911   -2.350579    0.775598
     12          1           0       -2.966921   -1.378884   -0.083047
     13          1           0       -1.580898    0.080429    1.422491
     14          1           0       -0.918455    0.604042   -1.544192
     15          1           0        0.422764   -1.342937    1.457255
     16          1           0        2.998905   -0.900108   -0.817313
     17          1           0        2.016616    0.141699   -1.861281
     18          1           0        2.907857    1.599827    0.218597
     19          1           0        0.939866    1.262710    1.937145
 ---------------------------------------------------------------------

 SCF Done:  E(RB3LYP) =  -423.195330443     A.U. after    1 cycles

 The electronic state is 1-A.
 Alpha  occ. eigenvalues --  -19.14561 -19.13403 -10.26344 -10.24686 -10.23960
 Alpha  occ. eigenvalues --  -10.19747 -10.19713 -10.19462 -10.18487  -1.04435
 Alpha  occ. eigenvalues --   -1.03929  -0.81079  -0.79407  -0.72603  -0.65549
 Alpha  occ. eigenvalues --   -0.61174  -0.57385  -0.55564  -0.51670  -0.48643
 Alpha  occ. eigenvalues --   -0.46059  -0.44776  -0.42733  -0.42643  -0.41757
 Alpha  occ. eigenvalues --   -0.39550  -0.38253  -0.37047  -0.35997  -0.34541
 Alpha  occ. eigenvalues --   -0.32815  -0.28717  -0.25537  -0.23276
 Alpha virt. eigenvalues --   -0.01802   0.00684   0.08820   0.10880   0.11649
 Alpha virt. eigenvalues --    0.12729   0.14201   0.15084   0.16059   0.16580
 Alpha virt. eigenvalues --    0.17366   0.17568   0.18650   0.18878   0.21807

 Mulliken charges:
               1
     1  C   -0.412780
     2  C   -0.080540
     3  C    0.167322
     4  O   -0.258783
     5  C    0.072131
     6  O   -0.279007
     7  C   -0.119079
     8  C   -0.093244
     9  C   -0.097342
    10  H    0.142078
    11  H    0.122359
    12  H    0.126694
    13  H    0.090787
    14  H    0.083159
    15  H    0.084935
    16  H    0.110491
    17  H    0.111935
    18  H    0.113648
    19  H    0.115236
 Sum of Mulliken charges =   0.00000

 Dipole moment (field-independent basis, Debye):
    X=              2.0205    Y=             -1.1772    Z=              0.7618  Tot=              2.4594
 Quadrupole moment (field-independent basis, Debye-Ang):
   XX=            -52.7456   YY=            -58.7114   ZZ=            -50.7943
   XY=              7.5979   XZ=             -1.4714   YZ=              0.0287

  Exact polarizability:  86.995   3.121  73.186  -9.970   0.506  71.468
 Approx polarizability: 119.282  -1.235 109.956 -20.602   1.527 112.788

                      1                      2                      3
                      A                      A                      A
 Frequencies --     53.2438                71.2667                91.3840
 Red. masses --      5.4578                 3.3375                 3.3794
 Frc consts  --      0.0091                 0.0100                 0.0166
 IR Inten    --      6.1018                 1.4911                 2.3558

                      4                      5                      6
                      A                      A                      A
 Frequencies --    186.6681               210.6597               224.6512
 Red. masses --      2.7816                 1.0360                 3.9080
 Frc consts  --      0.0571                 0.0271                 0.1162
 IR Inten    --      0.4446                 0.2086                 8.4133

                      7                      8                      9
                      A                      A                      A
 Frequencies --    309.1146               341.7177               422.3629
 Red. masses --      2.4081                 2.6054                 4.0835
 Frc consts  --      0.1356                 0.1793                 0.4292
 IR Inten    --      0.8631                 0.6715                 7.4573

                     10                     11                     12
                      A                      A                      A
 Frequencies --    463.1668               631.1237               703.1007
 Red. masses --      3.2084                 2.9962                 1.5901
 Frc consts  --      0.4055                 0.7032                 0.4631
 IR Inten    --      2.3121                 0.4717                21.5357

                     13                     14                     15
                      A                      A                      A
 Frequencies --    770.1637               810.8750               837.4320
 Red. masses --      3.9618                 4.0379                 2.7881
 Frc consts  --      1.3845                 1.5643                 1.1520
 IR Inten    --      6.8100                 7.8466                 5.1952

                     16                     17                     18
                      A                      A                      A
 Frequencies --    914.7256               931.2199               948.2775
 Red. masses --      1.8126                 2.0913                 2.0219
 Frc consts  --      0.8936                 1.0685                 1.0712
 IR Inten    --     16.6410                 6.3629                10.3441

                     19                     20                     21
                      A                      A                      A
 Frequencies --    961.1408               970.5875              1032.0013
 Red. masses --      1.2429                 2.8466                 2.0242
 Frc consts  --      0.6765                 1.5800                 1.2702
 IR Inten    --      1.2831                 5.0483                 2.8457

                     22                     23                     24
                      A                      A                      A
 Frequencies --   1047.1763              1064.6655              1098.5417
 Red. masses --      1.6791                 2.2160                 2.3017
 Frc consts  --      1.0848                 1.4799                 1.6366
 IR Inten    --     15.3100                54.1622                17.9078

                     25                     26                     27
                      A                      A                      A
 Frequencies --   1119.4243              1137.7083              1166.6599
 Red. masses --      1.9101                 1.8459                 1.9915
 Frc consts  --      1.4102                 1.4077                 1.5970
 IR Inten    --     47.2883                20.2012                12.8683

                     28                     29                     30
                      A                      A                      A
 Frequencies --   1198.9243              1272.8744              1294.0458
 Red. masses --      1.0907                 1.4584                 1.2700
 Frc consts  --      0.9237                 1.3922                 1.2530
 IR Inten    --      1.0163                 3.5176                 6.1269

                     31                     32                     33
                      A                      A                      A
 Frequencies --   1327.0817              1361.6029              1364.6551
 Red. masses --      1.3484                 1.6885                 1.4368
 Frc consts  --      1.3991                 1.8444                 1.5765
 IR Inten    --      0.2348                 1.2205                 9.9789

                     34                     35                     36
                      A                      A                      A
 Frequencies --   1387.3959              1399.2149              1426.2334
 Red. masses --      1.4673                 1.2032                 1.2484
 Frc consts  --      1.6640                 1.3879                 1.4962
 IR Inten    --      3.4003                 2.2603                 9.5625

                     37                     38                     39
                      A                      A                      A
 Frequencies --   1494.3739              1501.3284              1520.9003
 Red. masses --      1.0421                 1.0589                 1.0851
 Frc consts  --      1.3711                 1.4062                 1.4788
 IR Inten    --      5.9713                 4.4280                 1.1536

                     40                     41                     42
                      A                      A                      A
 Frequencies --   1690.8820              1829.4554              2886.2851
 Red. masses --      6.4959                10.1082                 1.0822
 Frc consts  --     10.9425                19.9328                 5.3119
 IR Inten    --      1.1850               161.2177                73.5824

                     43                     44                     45
                      A                      A                      A
 Frequencies --   2938.9399              2977.0753              3001.1602
 Red. masses --      1.0824                 1.0611                 1.1006
 Frc consts  --      5.5081                 5.5409                 5.8404
 IR Inten    --     62.1940                79.8964                40.0459

                     46                     47                     48
                      A                      A                      A
 Frequencies --   3039.9239              3053.8165              3109.2615
 Red. masses --      1.0350                 1.0838                 1.1012
 Frc consts  --      5.6356                 5.9551                 6.2726
 IR Inten    --     20.8172                13.4406                19.0467

                     49                     50                     51
                      A                      A                      A
 Frequencies --   3124.7118              3210.8928              3234.8112
 Red. masses --      1.1020                 1.0856                 1.1067
 Frc consts  --      6.3397                 6.5941                 6.8230
 IR Inten    --     15.3883                 1.5514                 6.0255

 - Thermochemistry -
 -------------------
 Temperature   298.150 Kelvin.  Pressure   1.00000 Atm.
 Atom     1 has atomic number  6 and mass  12.00000

 Molecular mass:   126.06808 amu.
 Principal axes and moments of inertia in atomic units:
                           1         2         3
     Eigenvalues --   714.639661379.548661685.12088
           X            0.99740   0.07077  -0.01336
           Y           -0.07072   0.99749   0.00407
           Z            0.01362  -0.00311   0.99990
 This molecule is an asymmetric top.
 Rotational symmetry number  1.
 Warning -- assumption of classical behavior for rotation
           may cause significant error
 Rotational temperatures (Kelvin)      0.12120     0.06278     0.05140
 Rotational constants (GHZ):           2.52539     1.30821     1.07099
 Zero-point vibrational energy     413698.0 (Joules/Mol)
                                   98.87620 (Kcal/Mol)
 Warning -- explicit consideration of  10 degrees of freedom as
           vibrations may cause significant error
 Vibrational temperatures:     76.61   102.54   131.48   268.57   303.09
          (Kelvin)            323.22   444.75   491.65   607.69   666.39
                              908.05  1011.60  1108.09  1166.67  1204.88
                             1316.08  1339.82  1364.36  1382.87  1396.46
                             1484.82  1506.65  1531.81  1580.55  1610.60
                             1636.91  1678.56  1724.98  1831.38  1861.84
                             1909.37  1959.04  1963.43  1996.15  2013.16
                             2052.03  2150.07  2160.07  2188.23  2432.80
                             2632.17  4152.72  4228.47  4283.34  4317.99
                             4373.77  4393.76  4473.53  4495.76  4619.75
                             4654.17

 Zero-point correction=                           0.157569 (Hartree/Particle)
 Thermal correction to Energy=                    0.166745
 Thermal correction to Enthalpy=                  0.167689
 Thermal correction to Gibbs Free Energy=         0.122650
 Sum of electronic and zero-point Energies=           -423.037761
 Sum of electronic and thermal Energies=              -423.028586
 Sum of electronic and thermal Enthalpies=            -423.027642
 Sum of electronic and thermal Free Energies=         -423.072680

                     E (Thermal)             CV                S
                      KCal/Mol        Cal/Mol-Kelvin    Cal/Mol-Kelvin
 Total                  104.634             32.768             94.792
 Electronic               0.000              0.000              0.000
 Translational            0.889              2.981             40.409
 Rotational               0.889              2.981             28.898
 Vibrational            102.856             26.806             25.485
 Vibration     1          0.596              1.976              4.693
 Vibration     2          0.598              1.968              4.118
 Vibration     3          0.602              1.955              3.630
 Vibration     4          0.632              1.858              2.261
 Vibration     5          0.643              1.825              2.038
 Vibration     6          0.649              1.804              1.921
 Vibration     7          0.698              1.656              1.367
 Vibration     8          0.721              1.592              1.204
 Vibration     9          0.785              1.422              0.884
 Vibration    10          0.821              1.332              0.757

 Optimization completed.
    -- Stationary point found.
 Normal termination of Gaussian 09 at Mon Jan 27 16:55:14 2020.
