 Gaussian 09, Revision D.01,
 Gaussian 09:  ES64L-G09RevD.01 24-Apr-2013

 -----------------------------
 # b3lyp 6-31G(2df,p) opt Freq
 -----------------------------

 -----
 titel
 -----
 Symbolic Z-matrix:
 Charge =  0 Multiplicity = 1

 SCF Done:  E(RB3LYP) =  -423.151156771     A.U. after   14 cycles
 Optimization completed.
    -- Stationary point found.
 Normal termination of Gaussian 09 at Mon Jan 27 18:04:24 2020.

 ----------------------------------------------------------------------
 #N Geom=AllCheck Guess=TCheck SCRF=Check GenChk RB3LYP/6-31G(2df,p) Fr
 eq
 ----------------------------------------------------------------------

 Structure from the checkpoint file:  "/scratch/puck/g09_c2b1418a-df0e-42c6-91e5-27b37cc07790/Gau-16956.chk"
 -----
 titel
 -----
 Charge =  0 Multiplicity = 1

                         Standard orientation:
 ---------------------------------------------------------------------
 Center     Atomic      Atomic             Coordinates (Angstroms)
 Number     Number       Type             X           Y           Z
 ---------------------------------------------------------------------
      1          6           0       -2.184765    1.600772   -0.277465
      2          6           0       -1.387951    0.363209    0.012098
      3          6           0       -1.773092   -0.683308    1.044299
      4          6           0       -1.560310   -1.088803   -0.379651
      5          8           0       -0.165623   -1.272400   -0.644013
      6          6           0        0.074171    0.144004   -0.397223
      7          6           0        1.214480    0.408256    0.583821
      8          6           0        2.520260   -0.191492    0.100839
      9          8           0        3.520821    0.442979   -0.117210
     10          1           0       -2.005635    1.961213   -1.296573
     11          1           0       -3.257690    1.410711   -0.174418
     12          1           0       -1.929295    2.412106    0.414620
     13          1           0       -1.081503   -1.027144    1.808360
     14          1           0       -2.809227   -0.619742    1.363861
     15          1           0       -2.270035   -1.604649   -1.016130
     16          1           0        0.283466    0.641026   -1.354544
     17          1           0        1.352230    1.485308    0.720119
     18          1           0        0.970026   -0.047080    1.551678
     19          1           0        2.489318   -1.292204   -0.047504
 ---------------------------------------------------------------------

 SCF Done:  E(RB3LYP) =  -423.151156771     A.U. after    1 cycles

 The electronic state is 1-A.
 Alpha  occ. eigenvalues --  -19.14613 -19.13741 -10.26924 -10.25207 -10.24515
 Alpha  occ. eigenvalues --  -10.21124 -10.19659 -10.19648 -10.19344  -1.06005
 Alpha  occ. eigenvalues --   -1.04353  -0.84705  -0.78553  -0.72909  -0.66483
 Alpha  occ. eigenvalues --   -0.60685  -0.57748  -0.54904  -0.49990  -0.48875
 Alpha  occ. eigenvalues --   -0.47772  -0.45217  -0.42988  -0.42491  -0.41572
 Alpha  occ. eigenvalues --   -0.40901  -0.39497  -0.38208  -0.36513  -0.34133
 Alpha  occ. eigenvalues --   -0.32723  -0.27579  -0.24717  -0.24292
 Alpha virt. eigenvalues --   -0.02174   0.07070   0.09307   0.10455   0.11095
 Alpha virt. eigenvalues --    0.12549   0.12828   0.13779   0.15342   0.15735
 Alpha virt. eigenvalues --    0.16461   0.17605   0.18857   0.20280   0.21194

 Mulliken charges:
               1
     1  C   -0.497505
     2  C    0.245980
     3  C   -0.351154
     4  C    0.071224
     5  O   -0.310176
     6  C    0.082575
     7  C   -0.302260
     8  C    0.155369
     9  O   -0.239501
    10  H    0.124213
    11  H    0.125132
    12  H    0.127087
    13  H    0.114338
    14  H    0.116602
    15  H    0.107843
    16  H    0.092085
    17  H    0.121880
    18  H    0.117884
    19  H    0.098382
 Sum of Mulliken charges =   0.00000

 Dipole moment (field-independent basis, Debye):
    X=             -3.6426    Y=              0.4673    Z=              0.8242  Tot=              3.7638
 Quadrupole moment (field-independent basis, Debye-Ang):
   XX=            -61.5444   YY=            -54.3828   ZZ=            -52.0877
   XY=             -2.5111   XZ=              2.0229   YZ=             -1.1515

  Exact polarizability:  91.735   3.144  73.774  -3.098  -1.402  64.364
 Approx polarizability: 121.529   9.480 112.785  -6.898  -0.913  99.617

                      1                      2                      3
                      A                      A                      A
 Frequencies --     50.8538                60.4596               152.3958
 Red. masses --      4.5967                 3.8391                 2.2409
 Frc consts  --      0.0070                 0.0083                 0.0307
 IR Inten    --      5.6753                 1.9946                 1.5380

                      4                      5                      6
                      A                      A                      A
 Frequencies --    175.6428               198.6279               246.5267
 Red. masses --      1.6197                 1.7242                 2.9935
 Frc consts  --      0.0294                 0.0401                 0.1072
 IR Inten    --      0.7181                 1.4562                 1.1195

                      7                      8                      9
                      A                      A                      A
 Frequencies --    310.7162               399.5960               450.2971
 Red. masses --      2.7222                 2.4540                 4.3055
 Frc consts  --      0.1548                 0.2309                 0.5144
 IR Inten    --      0.6302                 3.2635                12.0894

                     10                     11                     12
                      A                      A                      A
 Frequencies --    483.1429               535.6535               635.9114
 Red. masses --      2.4023                 1.9154                 3.5946
 Frc consts  --      0.3304                 0.3238                 0.8564
 IR Inten    --      2.1572                14.7406                 2.3365

                     13                     14                     15
                      A                      A                      A
 Frequencies --    735.1298               813.8382               843.0400
 Red. masses --      3.1096                 2.6115                 1.9737
 Frc consts  --      0.9901                 1.0191                 0.8265
 IR Inten    --      4.0123                 9.1710                 5.2873

                     16                     17                     18
                      A                      A                      A
 Frequencies --    876.1512               895.0600               939.0809
 Red. masses --      2.2979                 1.8373                 2.7241
 Frc consts  --      1.0393                 0.8672                 1.4154
 IR Inten    --      4.4409                19.9487                10.6611

                     19                     20                     21
                      A                      A                      A
 Frequencies --    973.5799               997.3933              1029.2066
 Red. masses --      1.4115                 1.5287                 1.7466
 Frc consts  --      0.7883                 0.8960                 1.0901
 IR Inten    --     18.7059                 2.5584                63.3923

                     22                     23                     24
                      A                      A                      A
 Frequencies --   1046.5152              1069.9285              1084.2896
 Red. masses --      1.9834                 1.7526                 2.2978
 Frc consts  --      1.2798                 1.1820                 1.5917
 IR Inten    --     19.2428                14.4788                38.0108

                     25                     26                     27
                      A                      A                      A
 Frequencies --   1101.2518              1115.5557              1134.7411
 Red. masses --      2.0864                 2.2633                 2.6877
 Frc consts  --      1.4908                 1.6595                 2.0390
 IR Inten    --     11.0449                 8.6404                 3.1557

                     28                     29                     30
                      A                      A                      A
 Frequencies --   1221.7825              1245.2659              1249.5912
 Red. masses --      1.2864                 1.3793                 1.6510
 Frc consts  --      1.1314                 1.2602                 1.5189
 IR Inten    --      6.8856                 0.4325                 1.5433

                     31                     32                     33
                      A                      A                      A
 Frequencies --   1289.3059              1303.2321              1376.6497
 Red. masses --      2.1368                 1.7276                 1.4218
 Frc consts  --      2.0927                 1.7287                 1.5875
 IR Inten    --     23.2216                 5.5393                17.4203

                     34                     35                     36
                      A                      A                      A
 Frequencies --   1408.2924              1421.3764              1426.0976
 Red. masses --      1.3608                 1.2170                 1.5095
 Frc consts  --      1.5901                 1.4486                 1.8088
 IR Inten    --     14.8955                 6.5563                 0.4056

                     37                     38                     39
                      A                      A                      A
 Frequencies --   1452.6999              1487.0281              1487.9349
 Red. masses --      1.1259                 1.0839                 1.4833
 Frc consts  --      1.4000                 1.4121                 1.9348
 IR Inten    --      6.2360                 4.5193                12.8456

                     40                     41                     42
                      A                      A                      A
 Frequencies --   1498.9067              1829.9358              2908.3333
 Red. masses --      1.0783                 9.7763                 1.0837
 Frc consts  --      1.4274                19.2884                 5.4006
 IR Inten    --      2.9119               191.8098                72.5573

                     43                     44                     45
                      A                      A                      A
 Frequencies --   3009.6915              3024.2867              3034.5923
 Red. masses --      1.0836                 1.0370                 1.0604
 Frc consts  --      5.7834                 5.5884                 5.7531
 IR Inten    --     27.2929                35.7114                10.6569

                     46                     47                     48
                      A                      A                      A
 Frequencies --   3083.0348              3100.8255              3102.2925
 Red. masses --      1.1003                 1.1001                 1.1013
 Frc consts  --      6.1618                 6.2322                 6.2447
 IR Inten    --     21.0932                11.6262                18.1530

                     49                     50                     51
                      A                      A                      A
 Frequencies --   3115.8267              3181.1184              3204.6727
 Red. masses --      1.0541                 1.0950                 1.1145
 Frc consts  --      6.0297                 6.5287                 6.7439
 IR Inten    --     12.5578                17.9844                13.6748

 - Thermochemistry -
 -------------------
 Temperature   298.150 Kelvin.  Pressure   1.00000 Atm.
 Atom     1 has atomic number  6 and mass  12.00000

 Molecular mass:   126.06808 amu.
 Principal axes and moments of inertia in atomic units:
                           1         2         3
     Eigenvalues --   518.973991867.979502090.76640
           X            0.99978  -0.02083   0.00241
           Y            0.02091   0.99891  -0.04184
           Z           -0.00154   0.04188   0.99912
 This molecule is an asymmetric top.
 Rotational symmetry number  1.
 Warning -- assumption of classical behavior for rotation
           may cause significant error
 Rotational temperatures (Kelvin)      0.16689     0.04637     0.04143
 Rotational constants (GHZ):           3.47752     0.96615     0.86320
 Zero-point vibrational energy     411619.2 (Joules/Mol)
                                   98.37935 (Kcal/Mol)
 Warning -- explicit consideration of  11 degrees of freedom as
           vibrations may cause significant error
 Vibrational temperatures:     73.17    86.99   219.26   252.71   285.78
          (Kelvin)            354.70   447.05   574.93   647.88   695.13
                              770.68   914.93  1057.69  1170.93  1212.95
                             1260.58  1287.79  1351.13  1400.76  1435.02
                             1480.80  1505.70  1539.39  1560.05  1584.45
                             1605.03  1632.64  1757.87  1791.66  1797.88
                             1855.02  1875.06  1980.69  2026.22  2045.04
                             2051.83  2090.11  2139.50  2140.80  2156.59
                             2632.87  4184.44  4330.27  4351.27  4366.10
                             4435.79  4461.39  4463.50  4482.97  4576.91
                             4610.80

 Zero-point correction=                           0.156777 (Hartree/Particle)
 Thermal correction to Energy=                    0.165892
 Thermal correction to Enthalpy=                  0.166836
 Thermal correction to Gibbs Free Energy=         0.121963
 Sum of electronic and zero-point Energies=           -422.994379
 Sum of electronic and thermal Energies=              -422.985265
 Sum of electronic and thermal Enthalpies=            -422.984321
 Sum of electronic and thermal Free Energies=         -423.029194

                     E (Thermal)             CV                S
                      KCal/Mol        Cal/Mol-Kelvin    Cal/Mol-Kelvin
 Total                  104.099             33.118             94.443
 Electronic               0.000              0.000              0.000
 Translational            0.889              2.981             40.409
 Rotational               0.889              2.981             29.096
 Vibrational            102.321             27.156             24.939
 Vibration     1          0.595              1.977              4.784
 Vibration     2          0.597              1.973              4.442
 Vibration     3          0.619              1.900              2.642
 Vibration     4          0.628              1.872              2.374
 Vibration     5          0.637              1.842              2.146
 Vibration     6          0.661              1.769              1.755
 Vibration     7          0.700              1.653              1.359
 Vibration     8          0.766              1.471              0.964
 Vibration     9          0.809              1.360              0.795
 Vibration    10          0.839              1.287              0.702
 Vibration    11          0.891              1.171              0.575

 Optimization completed.
    -- Stationary point found.
 Normal termination of Gaussian 09 at Mon Jan 27 19:52:43 2020.
