 Gaussian 09, Revision D.01,
 Gaussian 09:  ES64L-G09RevD.01 24-Apr-2013

 -----------------------------
 # b3lyp 6-31G(2df,p) opt Freq
 -----------------------------

 -----
 titel
 -----
 Symbolic Z-matrix:
 Charge =  0 Multiplicity = 1

 SCF Done:  E(RB3LYP) =  -423.161557453     A.U. after   13 cycles
 Optimization completed.
    -- Stationary point found.
 Normal termination of Gaussian 09 at Mon Jan 27 11:13:32 2020.

 ----------------------------------------------------------------------
 #N Geom=AllCheck Guess=TCheck SCRF=Check GenChk RB3LYP/6-31G(2df,p) Fr
 eq
 ----------------------------------------------------------------------

 Structure from the checkpoint file:  "/scratch/puck/g09_1d5edd5e-1597-47ba-9301-2bc9b64820ea/Gau-15861.chk"
 -----
 titel
 -----
 Charge =  0 Multiplicity = 1

                         Standard orientation:
 ---------------------------------------------------------------------
 Center     Atomic      Atomic             Coordinates (Angstroms)
 Number     Number       Type             X           Y           Z
 ---------------------------------------------------------------------
      1          6           0       -0.819096    0.943507    0.510659
      2          6           0       -1.848472    0.364929   -0.441356
      3          6           0       -3.209960    0.029869   -0.008845
      4          8           0       -2.232437   -0.993395   -0.212881
      5          6           0        0.568658    0.450916    0.227606
      6          6           0        1.642372    1.148459   -0.133735
      7          6           0        2.824058    0.236672   -0.295849
      8          8           0        2.331485   -1.068466   -0.006777
      9          6           0        0.950101   -1.006362    0.335925
     10          1           0       -0.847112    2.037348    0.443839
     11          1           0       -1.113365    0.670134    1.532814
     12          1           0       -1.690789    0.605521   -1.493984
     13          1           0       -3.498916    0.198847    1.027928
     14          1           0       -4.028523    0.044293   -0.726710
     15          1           0        1.693593    2.219898   -0.286045
     16          1           0        3.241124    0.260661   -1.315750
     17          1           0        3.647466    0.490727    0.391966
     18          1           0        0.364337   -1.646431   -0.339393
     19          1           0        0.793831   -1.394060    1.356166
 ---------------------------------------------------------------------

 SCF Done:  E(RB3LYP) =  -423.161557453     A.U. after    1 cycles

 The electronic state is 1-A.
 Alpha  occ. eigenvalues --  -19.15541 -19.12659 -10.24527 -10.23873 -10.22563
 Alpha  occ. eigenvalues --  -10.22146 -10.20104 -10.19114 -10.18165  -1.07530
 Alpha  occ. eigenvalues --   -1.02509  -0.81247  -0.74656  -0.71814  -0.66522
 Alpha  occ. eigenvalues --   -0.61058  -0.59510  -0.54513  -0.51558  -0.48411
 Alpha  occ. eigenvalues --   -0.47706  -0.46374  -0.43652  -0.42150  -0.40297
 Alpha  occ. eigenvalues --   -0.39873  -0.37891  -0.37157  -0.35425  -0.31365
 Alpha  occ. eigenvalues --   -0.30610  -0.27671  -0.26338  -0.22522
 Alpha virt. eigenvalues --    0.01785   0.09907   0.10382   0.10806   0.11941
 Alpha virt. eigenvalues --    0.12192   0.13129   0.13862   0.14430   0.16264
 Alpha virt. eigenvalues --    0.17010   0.17710   0.18286   0.20054   0.21954

 Mulliken charges:
               1
     1  C   -0.350381
     2  C    0.098302
     3  C   -0.181203
     4  O   -0.228962
     5  C    0.315864
     6  C   -0.219262
     7  C   -0.098659
     8  O   -0.265670
     9  C   -0.148278
    10  H    0.110123
    11  H    0.112718
    12  H    0.099275
    13  H    0.115129
    14  H    0.117664
    15  H    0.096175
    16  H    0.102404
    17  H    0.101355
    18  H    0.123062
    19  H    0.100345
 Sum of Mulliken charges =   0.00000

 Dipole moment (field-independent basis, Debye):
    X=             -1.4910    Y=              2.9337    Z=              0.1199  Tot=              3.2930
 Quadrupole moment (field-independent basis, Debye-Ang):
   XX=            -51.1039   YY=            -55.3485   ZZ=            -51.8375
   XY=              0.9555   XZ=             -0.9049   YZ=             -0.9431

  Exact polarizability: 105.703   8.523  69.701  -6.725  -3.131  61.507
 Approx polarizability: 136.310  15.643 110.765 -12.799  -6.652  93.448

                      1                      2                      3
                      A                      A                      A
 Frequencies --     53.0501                77.5331               102.3335
 Red. masses --      3.3899                 3.8748                 3.7215
 Frc consts  --      0.0056                 0.0137                 0.0230
 IR Inten    --      0.5434                 1.6111                 1.3802

                      4                      5                      6
                      A                      A                      A
 Frequencies --    125.9128               271.1363               283.6363
 Red. masses --      2.5229                 2.8936                 3.4365
 Frc consts  --      0.0236                 0.1253                 0.1629
 IR Inten    --      5.7821                 0.2724                 1.9856

                      7                      8                      9
                      A                      A                      A
 Frequencies --    345.5002               420.9617               504.1281
 Red. masses --      2.9926                 2.0101                 2.5742
 Frc consts  --      0.2105                 0.2099                 0.3855
 IR Inten    --      0.3203                 2.3373                 7.4433

                     10                     11                     12
                      A                      A                      A
 Frequencies --    667.1907               773.5510               789.5983
 Red. masses --      3.6995                 4.8367                 3.7675
 Frc consts  --      0.9703                 1.7052                 1.3839
 IR Inten    --      5.8400                 7.0503                 9.4902

                     13                     14                     15
                      A                      A                      A
 Frequencies --    822.2056               868.3357               896.8831
 Red. masses --      1.5031                 1.6101                 3.0488
 Frc consts  --      0.5987                 0.7153                 1.4449
 IR Inten    --      7.2971                13.7426                 3.1201

                     16                     17                     18
                      A                      A                      A
 Frequencies --    926.1054               934.2850               957.9081
 Red. masses --      3.7335                 2.5431                 3.1549
 Frc consts  --      1.8866                 1.3079                 1.7056
 IR Inten    --     12.5139                12.8556                30.9696

                     19                     20                     21
                      A                      A                      A
 Frequencies --    988.1184              1022.4573              1059.6643
 Red. masses --      2.0227                 1.5464                 1.6611
 Frc consts  --      1.1636                 0.9525                 1.0989
 IR Inten    --      5.4849                13.5363                 0.9026

                     22                     23                     24
                      A                      A                      A
 Frequencies --   1093.7278              1101.9215              1113.4473
 Red. masses --      1.2403                 2.2097                 4.6665
 Frc consts  --      0.8742                 1.5809                 3.4086
 IR Inten    --      7.0112                 7.3946                71.1931

                     25                     26                     27
                      A                      A                      A
 Frequencies --   1158.3296              1168.9613              1174.8446
 Red. masses --      1.3703                 1.3084                 1.1078
 Frc consts  --      1.0832                 1.0534                 0.9009
 IR Inten    --      1.2011                 2.3432                 2.0055

                     28                     29                     30
                      A                      A                      A
 Frequencies --   1207.2759              1222.8355              1230.4776
 Red. masses --      2.4263                 1.0978                 1.3545
 Frc consts  --      2.0835                 0.9672                 1.2083
 IR Inten    --      5.1196                 2.4131                 1.5050

                     31                     32                     33
                      A                      A                      A
 Frequencies --   1292.6490              1308.9794              1329.4469
 Red. masses --      1.6164                 1.4531                 1.3836
 Frc consts  --      1.5913                 1.4669                 1.4407
 IR Inten    --      5.8203                 9.5326                 2.8503

                     34                     35                     36
                      A                      A                      A
 Frequencies --   1372.0577              1397.3780              1437.8930
 Red. masses --      1.7478                 1.5353                 1.7570
 Frc consts  --      1.9385                 1.7664                 2.1403
 IR Inten    --      4.9316                 5.1108                12.4303

                     37                     38                     39
                      A                      A                      A
 Frequencies --   1462.7977              1516.1766              1527.6053
 Red. masses --      1.0953                 1.0813                 1.3368
 Frc consts  --      1.3809                 1.4645                 1.8380
 IR Inten    --      5.5067                 2.3644                 2.7074

                     40                     41                     42
                      A                      A                      A
 Frequencies --   1528.9983              1730.2424              2962.5721
 Red. masses --      1.0906                 7.3988                 1.0585
 Frc consts  --      1.5022                13.0505                 5.4735
 IR Inten    --      1.3613                 2.4811               136.1239

                     43                     44                     45
                      A                      A                      A
 Frequencies --   2971.0895              2977.8007              3011.8887
 Red. masses --      1.0684                 1.1037                 1.0913
 Frc consts  --      5.5566                 5.7663                 5.8329
 IR Inten    --     27.7976                53.2802                35.5739

                     46                     47                     48
                      A                      A                      A
 Frequencies --   3018.0222              3067.3487              3083.1759
 Red. masses --      1.0612                 1.0982                 1.0503
 Frc consts  --      5.6949                 6.0878                 5.8822
 IR Inten    --     20.7398                11.8748                29.6459

                     49                     50                     51
                      A                      A                      A
 Frequencies --   3102.0878              3170.3528              3206.7663
 Red. masses --      1.0898                 1.1193                 1.0952
 Frc consts  --      6.1788                 6.6286                 6.6358
 IR Inten    --     25.9233                27.0274                 7.7333

 - Thermochemistry -
 -------------------
 Temperature   298.150 Kelvin.  Pressure   1.00000 Atm.
 Atom     1 has atomic number  6 and mass  12.00000

 Molecular mass:   126.06808 amu.
 Principal axes and moments of inertia in atomic units:
                           1         2         3
     Eigenvalues --   400.433402010.926072270.14244
           X            0.99999   0.00054  -0.00493
           Y           -0.00060   0.99992  -0.01234
           Z            0.00492   0.01234   0.99991
 This molecule is an asymmetric top.
 Rotational symmetry number  1.
 Rotational temperatures (Kelvin)      0.21630     0.04307     0.03815
 Rotational constants (GHZ):           4.50697     0.89747     0.79499
 Zero-point vibrational energy     417721.9 (Joules/Mol)
                                   99.83792 (Kcal/Mol)
 Warning -- explicit consideration of   9 degrees of freedom as
           vibrations may cause significant error
 Vibrational temperatures:     76.33   111.55   147.23   181.16   390.10
          (Kelvin)            408.09   497.10   605.67   725.33   959.94
                             1112.97  1136.05  1182.97  1249.34  1290.41
                             1332.46  1344.23  1378.21  1421.68  1471.09
                             1524.62  1573.63  1585.42  1602.00  1666.58
                             1681.87  1690.34  1737.00  1759.39  1770.38
                             1859.83  1883.33  1912.78  1974.08  2010.51
                             2068.80  2104.64  2181.44  2197.88  2199.88
                             2489.43  4262.48  4274.73  4284.39  4333.43
                             4342.26  4413.23  4436.00  4463.21  4561.42
                             4613.82

 Zero-point correction=                           0.159102 (Hartree/Particle)
 Thermal correction to Energy=                    0.167710
 Thermal correction to Enthalpy=                  0.168654
 Thermal correction to Gibbs Free Energy=         0.124553
 Sum of electronic and zero-point Energies=           -423.002456
 Sum of electronic and thermal Energies=              -422.993848
 Sum of electronic and thermal Enthalpies=            -422.992904
 Sum of electronic and thermal Free Energies=         -423.037004

                     E (Thermal)             CV                S
                      KCal/Mol        Cal/Mol-Kelvin    Cal/Mol-Kelvin
 Total                  105.239             30.946             92.817
 Electronic               0.000              0.000              0.000
 Translational            0.889              2.981             40.409
 Rotational               0.889              2.981             28.993
 Vibrational            103.462             24.984             23.415
 Vibration     1          0.596              1.976              4.700
 Vibration     2          0.599              1.964              3.952
 Vibration     3          0.604              1.947              3.409
 Vibration     4          0.611              1.927              3.008
 Vibration     5          0.675              1.726              1.589
 Vibration     6          0.682              1.704              1.512
 Vibration     7          0.724              1.584              1.187
 Vibration     8          0.783              1.425              0.889
 Vibration     9          0.859              1.241              0.648

 Optimization completed.
    -- Stationary point found.
 Normal termination of Gaussian 09 at Mon Jan 27 11:56:55 2020.
