 Gaussian 09, Revision D.01,
 Gaussian 09:  ES64L-G09RevD.01 24-Apr-2013

 -----------------------------
 # b3lyp 6-31G(2df,p) opt Freq
 -----------------------------

 -----
 titel
 -----
 Symbolic Z-matrix:
 Charge =  0 Multiplicity = 1

 SCF Done:  E(RB3LYP) =  -423.094126273     A.U. after   12 cycles
 Optimization completed.
    -- Stationary point found.
 Normal termination of Gaussian 09 at Tue Jan 28 12:46:28 2020.

 ----------------------------------------------------------------------
 #N Geom=AllCheck Guess=TCheck SCRF=Check GenChk RB3LYP/6-31G(2df,p) Fr
 eq
 ----------------------------------------------------------------------

 Structure from the checkpoint file:  "/scratch/puck/g09_b0aaa83b-9c0d-4bf7-bbc5-d5340b59a9e4/Gau-10731.chk"
 -----
 titel
 -----
 Charge =  0 Multiplicity = 1

                         Standard orientation:
 ---------------------------------------------------------------------
 Center     Atomic      Atomic             Coordinates (Angstroms)
 Number     Number       Type             X           Y           Z
 ---------------------------------------------------------------------
      1          8           0       -3.337801    0.238069   -0.248548
      2          6           0       -2.238041   -0.658792   -0.158884
      3          6           0       -1.073488   -0.069859    0.618502
      4          6           0       -0.139176    0.957914   -0.067895
      5          6           0        1.059582    0.586039    0.870669
      6          6           0        2.004989    0.416843   -0.334554
      7          8           0        3.134230   -0.410898   -0.241718
      8          6           0        0.663232   -0.148679   -0.842541
      9          6           0        0.306201   -0.762213    0.566825
     10          1           0       -3.036061    1.022159   -0.718237
     11          1           0       -2.623766   -1.543842    0.359961
     12          1           0       -1.908821   -0.987171   -1.157473
     13          1           0       -1.405623    0.222562    1.622300
     14          1           0       -0.358511    1.961303   -0.438370
     15          1           0        1.249344    1.003706    1.860677
     16          1           0        2.346360    1.341813   -0.809994
     17          1           0        2.871912   -1.238710    0.175652
     18          1           0        0.421660   -0.570720   -1.818385
     19          1           0        0.572292   -1.755981    0.933273
 ---------------------------------------------------------------------

 SCF Done:  E(RB3LYP) =  -423.094126273     A.U. after    1 cycles

 The electronic state is 1-A.
 Alpha  occ. eigenvalues --  -19.13796 -19.13315 -10.23469 -10.22421 -10.20884
 Alpha  occ. eigenvalues --  -10.20821 -10.20137 -10.20127 -10.19256  -1.02457
 Alpha  occ. eigenvalues --   -1.01350  -0.93942  -0.75676  -0.67660  -0.64265
 Alpha  occ. eigenvalues --   -0.63981  -0.59757  -0.52200  -0.51409  -0.50328
 Alpha  occ. eigenvalues --   -0.49761  -0.45403  -0.43173  -0.42018  -0.39546
 Alpha  occ. eigenvalues --   -0.37416  -0.34016  -0.33472  -0.31473  -0.31260
 Alpha  occ. eigenvalues --   -0.30888  -0.28977  -0.26159  -0.25666
 Alpha virt. eigenvalues --    0.05858   0.07969   0.09905   0.10935   0.12383
 Alpha virt. eigenvalues --    0.12524   0.14038   0.14877   0.15517   0.16100
 Alpha virt. eigenvalues --    0.17158   0.18949   0.19737   0.21021   0.21607

 Mulliken charges:
               1
     1  O   -0.419475
     2  C   -0.094566
     3  C   -0.028980
     4  C   -0.064321
     5  C   -0.097418
     6  C    0.148077
     7  O   -0.447866
     8  C   -0.104773
     9  C   -0.094489
    10  H    0.282694
    11  H    0.108245
    12  H    0.084325
    13  H    0.072611
    14  H    0.070043
    15  H    0.074115
    16  H    0.083953
    17  H    0.282034
    18  H    0.076808
    19  H    0.068986
 Sum of Mulliken charges =   0.00000

 Dipole moment (field-independent basis, Debye):
    X=              0.1205    Y=             -0.0804    Z=              0.0583  Tot=              0.1561
 Quadrupole moment (field-independent basis, Debye-Ang):
   XX=            -69.3412   YY=            -48.2263   ZZ=            -51.9142
   XY=             -2.3818   XZ=              3.1882   YZ=             -2.1992

  Exact polarizability:  87.791   0.353  71.164  -0.878  -1.749  66.883
 Approx polarizability: 115.816  -1.869 112.439  -1.657  -3.270 105.781

                      1                      2                      3
                      A                      A                      A
 Frequencies --     80.6962               131.9130               206.4952
 Red. masses --      3.9722                 5.0574                 3.6500
 Frc consts  --      0.0152                 0.0519                 0.0917
 IR Inten    --      3.3880                 1.6416                 1.3248

                      4                      5                      6
                      A                      A                      A
 Frequencies --    225.2476               286.5184               310.8987
 Red. masses --      2.1446                 1.1370                 1.2896
 Frc consts  --      0.0641                 0.0550                 0.0734
 IR Inten    --     10.7090                62.2620                88.7427

                      7                      8                      9
                      A                      A                      A
 Frequencies --    385.6757               428.0705               521.4755
 Red. masses --      3.4097                 4.4188                 3.7296
 Frc consts  --      0.2988                 0.4771                 0.5976
 IR Inten    --     25.7518                 0.8824                10.1542

                     10                     11                     12
                      A                      A                      A
 Frequencies --    578.3327               728.5039               782.8234
 Red. masses --      3.0328                 3.6545                 2.6778
 Frc consts  --      0.5977                 1.1427                 0.9668
 IR Inten    --      2.0814                 0.4604                 2.2704

                     13                     14                     15
                      A                      A                      A
 Frequencies --    825.8712               838.8894               845.9379
 Red. masses --      2.3415                 2.0389                 1.9850
 Frc consts  --      0.9409                 0.8454                 0.8369
 IR Inten    --     17.6030                 0.2524                 1.6375

                     16                     17                     18
                      A                      A                      A
 Frequencies --    880.5545               921.8354               940.4304
 Red. masses --      2.0069                 1.8166                 1.7653
 Frc consts  --      0.9168                 0.9095                 0.9199
 IR Inten    --      7.9882                 5.8530                 1.3281

                     19                     20                     21
                      A                      A                      A
 Frequencies --    974.1549               998.1215              1015.7569
 Red. masses --      1.4877                 3.1303                 1.7990
 Frc consts  --      0.8318                 1.8374                 1.0936
 IR Inten    --      3.4236                 2.5854                36.9908

                     22                     23                     24
                      A                      A                      A
 Frequencies --   1062.6849              1083.7904              1093.2663
 Red. masses --      3.8049                 3.7962                 2.1565
 Frc consts  --      2.5316                 2.6272                 1.5186
 IR Inten    --     70.9420               115.0317                 1.8150

                     25                     26                     27
                      A                      A                      A
 Frequencies --   1113.5576              1128.6548              1144.3804
 Red. masses --      1.4775                 1.8961                 1.7781
 Frc consts  --      1.0795                 1.4231                 1.3720
 IR Inten    --      3.4829                26.6234                28.7944

                     28                     29                     30
                      A                      A                      A
 Frequencies --   1152.9065              1164.7116              1169.8556
 Red. masses --      1.7247                 1.5434                 1.6070
 Frc consts  --      1.3507                 1.2336                 1.2958
 IR Inten    --     31.1158                 9.4967                 4.2927

                     31                     32                     33
                      A                      A                      A
 Frequencies --   1200.9091              1228.2573              1244.3627
 Red. masses --      1.4563                 1.4713                 1.5694
 Frc consts  --      1.2374                 1.3078                 1.4318
 IR Inten    --      7.3241                 1.6877                 5.5782

                     34                     35                     36
                      A                      A                      A
 Frequencies --   1282.2428              1299.6493              1312.2347
 Red. masses --      1.4612                 1.6168                 1.9748
 Frc consts  --      1.4155                 1.6091                 2.0035
 IR Inten    --     10.5215                 0.9306                13.2590

                     37                     38                     39
                      A                      A                      A
 Frequencies --   1354.5297              1402.5105              1428.8529
 Red. masses --      1.3837                 1.2341                 1.4473
 Frc consts  --      1.4958                 1.4303                 1.7409
 IR Inten    --      1.4255                33.0052                39.0995

                     40                     41                     42
                      A                      A                      A
 Frequencies --   1446.4550              1503.1206              2980.6608
 Red. masses --      1.3163                 1.0859                 1.0688
 Frc consts  --      1.6226                 1.4456                 5.5945
 IR Inten    --     92.4061                 1.3781                35.4738

                     43                     44                     45
                      A                      A                      A
 Frequencies --   3035.2078              3063.1545              3067.1634
 Red. masses --      1.0823                 1.0941                 1.0853
 Frc consts  --      5.8748                 6.0483                 6.0155
 IR Inten    --     38.0832                47.0848                34.7074

                     46                     47                     48
                      A                      A                      A
 Frequencies --   3083.3438              3088.5166              3105.1534
 Red. masses --      1.0883                 1.0878                 1.0907
 Frc consts  --      6.0958                 6.1133                 6.1962
 IR Inten    --     57.4682                48.2275                85.3629

                     49                     50                     51
                      A                      A                      A
 Frequencies --   3114.8837              3804.7814              3816.2998
 Red. masses --      1.0961                 1.0654                 1.0661
 Frc consts  --      6.2660                 9.0871                 9.1482
 IR Inten    --      6.9692                10.0885                11.3507

 - Thermochemistry -
 -------------------
 Temperature   298.150 Kelvin.  Pressure   1.00000 Atm.
 Atom     1 has atomic number  8 and mass  15.99491

 Molecular mass:   126.06808 amu.
 Principal axes and moments of inertia in atomic units:
                           1         2         3
     Eigenvalues --   330.013251994.089652018.08104
           X            0.99999   0.00342   0.00392
           Y           -0.00301   0.99492  -0.10059
           Z           -0.00424   0.10058   0.99492
 This molecule is an asymmetric top.
 Rotational symmetry number  1.
 Rotational temperatures (Kelvin)      0.26246     0.04344     0.04292
 Rotational constants (GHZ):           5.46869     0.90505     0.89429
 Zero-point vibrational energy     418000.9 (Joules/Mol)
                                   99.90462 (Kcal/Mol)
 Warning -- explicit consideration of  10 degrees of freedom as
           vibrations may cause significant error
 Vibrational temperatures:    116.10   189.79   297.10   324.08   412.24
          (Kelvin)            447.31   554.90   615.90   750.29   832.09
                             1048.15  1126.31  1188.24  1206.97  1217.11
                             1266.92  1326.31  1353.07  1401.59  1436.07
                             1461.45  1528.96  1559.33  1572.96  1602.16
                             1623.88  1646.51  1658.77  1675.76  1683.16
                             1727.84  1767.19  1790.36  1844.86  1869.90
                             1888.01  1948.86  2017.90  2055.80  2081.12
                             2162.65  4288.50  4366.98  4407.19  4412.96
                             4436.24  4443.68  4467.62  4481.62  5474.22
                             5490.80

 Zero-point correction=                           0.159208 (Hartree/Particle)
 Thermal correction to Energy=                    0.167370
 Thermal correction to Enthalpy=                  0.168314
 Thermal correction to Gibbs Free Energy=         0.126405
 Sum of electronic and zero-point Energies=           -422.934918
 Sum of electronic and thermal Energies=              -422.926757
 Sum of electronic and thermal Enthalpies=            -422.925812
 Sum of electronic and thermal Free Energies=         -422.967721

                     E (Thermal)             CV                S
                      KCal/Mol        Cal/Mol-Kelvin    Cal/Mol-Kelvin
 Total                  105.026             31.704             88.205
 Electronic               0.000              0.000              0.000
 Translational            0.889              2.981             40.409
 Rotational               0.889              2.981             28.676
 Vibrational            103.249             25.742             19.121
 Vibration     1          0.600              1.962              3.874
 Vibration     2          0.612              1.921              2.918
 Vibration     3          0.641              1.831              2.074
 Vibration     4          0.650              1.803              1.917
 Vibration     5          0.684              1.699              1.494
 Vibration     6          0.700              1.653              1.358
 Vibration     7          0.754              1.501              1.017
 Vibration     8          0.790              1.409              0.865
 Vibration     9          0.876              1.202              0.607
 Vibration    10          0.935              1.078              0.488

 Optimization completed.
    -- Stationary point found.
 Normal termination of Gaussian 09 at Tue Jan 28 14:48:37 2020.
