 Gaussian 09, Revision D.01,
 Gaussian 09:  ES64L-G09RevD.01 24-Apr-2013

 -----------------------------
 # b3lyp 6-31G(2df,p) opt Freq
 -----------------------------

 -----
 titel
 -----
 Symbolic Z-matrix:
 Charge =  0 Multiplicity = 1

 SCF Done:  E(RB3LYP) =  -423.154323015     A.U. after   13 cycles
 Optimization completed.
    -- Stationary point found.
 Normal termination of Gaussian 09 at Mon Jan 27 17:27:08 2020.

 ----------------------------------------------------------------------
 #N Geom=AllCheck Guess=TCheck SCRF=Check GenChk RB3LYP/6-31G(2df,p) Fr
 eq
 ----------------------------------------------------------------------

 Structure from the checkpoint file:  "/scratch/puck/g09_5dde641a-0a3c-4626-89c3-e6e72242dbe8/Gau-72531.chk"
 -----
 titel
 -----
 Charge =  0 Multiplicity = 1

                         Standard orientation:
 ---------------------------------------------------------------------
 Center     Atomic      Atomic             Coordinates (Angstroms)
 Number     Number       Type             X           Y           Z
 ---------------------------------------------------------------------
      1          8           0       -2.438584   -0.265985   -0.765696
      2          6           0       -1.286027    0.036351   -0.035049
      3          6           0       -1.081837   -0.636894    1.295932
      4          6           0       -0.201826   -0.999055    0.110252
      5          6           0        1.146208   -0.320337   -0.083148
      6          8           0        2.082451   -1.000373   -0.864487
      7          6           0        1.620506    0.696093    0.925054
      8          6           0        0.894325    1.144793   -0.332663
      9          6           0       -0.613550    1.393763   -0.311461
     10          1           0       -3.193009    0.115356   -0.303851
     11          1           0       -0.674481   -0.090337    2.139265
     12          1           0       -1.830722   -1.375837    1.563301
     13          1           0       -0.312315   -1.982892   -0.329635
     14          1           0        2.519183   -1.651227   -0.304248
     15          1           0        1.149869    0.784478    1.898271
     16          1           0        2.689521    0.882489    0.930569
     17          1           0        1.489833    1.671554   -1.069325
     18          1           0       -0.910633    2.168465    0.405601
     19          1           0       -0.944972    1.720530   -1.301990
 ---------------------------------------------------------------------

 SCF Done:  E(RB3LYP) =  -423.154323015     A.U. after    1 cycles

 The electronic state is 1-A.
 Alpha  occ. eigenvalues --  -19.13983 -19.13962 -10.23514 -10.23365 -10.18445
 Alpha  occ. eigenvalues --  -10.18365 -10.18318 -10.18144 -10.18021  -1.02775
 Alpha  occ. eigenvalues --   -1.02375  -0.88237  -0.81435  -0.71691  -0.63965
 Alpha  occ. eigenvalues --   -0.58979  -0.56942  -0.55248  -0.52859  -0.49607
 Alpha  occ. eigenvalues --   -0.46359  -0.43810  -0.42190  -0.41932  -0.40808
 Alpha  occ. eigenvalues --   -0.38557  -0.36590  -0.34502  -0.32798  -0.31749
 Alpha  occ. eigenvalues --   -0.28176  -0.26290  -0.25511  -0.23866
 Alpha virt. eigenvalues --    0.07819   0.08453   0.09368   0.10246   0.11673
 Alpha virt. eigenvalues --    0.12897   0.14961   0.16536   0.17425   0.18144
 Alpha virt. eigenvalues --    0.19382   0.19818   0.20510   0.22310   0.24545

 Mulliken charges:
               1
     1  O   -0.463485
     2  C    0.404598
     3  C   -0.367757
     4  C   -0.161156
     5  C    0.410058
     6  O   -0.470938
     7  C   -0.366687
     8  C   -0.075103
     9  C   -0.316934
    10  H    0.281062
    11  H    0.109671
    12  H    0.110027
    13  H    0.097466
    14  H    0.281660
    15  H    0.107620
    16  H    0.111012
    17  H    0.096778
    18  H    0.095704
    19  H    0.116405
 Sum of Mulliken charges =   0.00000

 Dipole moment (field-independent basis, Debye):
    X=             -0.3131    Y=              0.3031    Z=              2.1659  Tot=              2.2093
 Quadrupole moment (field-independent basis, Debye-Ang):
   XX=            -48.1514   YY=            -50.7114   ZZ=            -55.8515
   XY=             -3.3808   XZ=             -0.3975   YZ=             -2.1118

  Exact polarizability:  83.300  -0.622  71.323   0.191  -1.720  67.551
 Approx polarizability: 112.157  -4.078 105.906   0.545  -0.422 106.269

                      1                      2                      3
                      A                      A                      A
 Frequencies --    152.5512               205.2650               279.5887
 Red. masses --      4.2610                 2.6227                 1.1732
 Frc consts  --      0.0584                 0.0651                 0.0540
 IR Inten    --      1.5289                 3.1891                56.8152

                      4                      5                      6
                      A                      A                      A
 Frequencies --    287.0579               326.7178               352.5429
 Red. masses --      1.0962                 4.4028                 2.5383
 Frc consts  --      0.0532                 0.2769                 0.1859
 IR Inten    --    105.7979                 7.6983                 8.8714

                      7                      8                      9
                      A                      A                      A
 Frequencies --    389.3170               415.5902               451.2856
 Red. masses --      3.0837                 3.3885                 2.3142
 Frc consts  --      0.2754                 0.3448                 0.2777
 IR Inten    --      8.2027                 9.3836                20.6021

                     10                     11                     12
                      A                      A                      A
 Frequencies --    479.9673               584.3725               607.8619
 Red. masses --      2.5289                 3.3474                 3.2137
 Frc consts  --      0.3433                 0.6735                 0.6996
 IR Inten    --      3.4327                 1.2926                 2.5975

                     13                     14                     15
                      A                      A                      A
 Frequencies --    683.9896               753.4822               837.0439
 Red. masses --      3.2615                 4.1777                 1.9164
 Frc consts  --      0.8990                 1.3974                 0.7911
 IR Inten    --      1.8084                 3.1434                 0.7925

                     16                     17                     18
                      A                      A                      A
 Frequencies --    847.8683               885.7257               903.8135
 Red. masses --      1.5820                 2.3693                 1.8889
 Frc consts  --      0.6701                 1.0952                 0.9091
 IR Inten    --      4.5457                22.9431                 4.7209

                     19                     20                     21
                      A                      A                      A
 Frequencies --    910.9578               939.3004               981.6960
 Red. masses --      1.7547                 1.8048                 1.8631
 Frc consts  --      0.8579                 0.9382                 1.0579
 IR Inten    --      4.7692                15.8087                10.9463

                     22                     23                     24
                      A                      A                      A
 Frequencies --   1005.6931              1026.1765              1041.7470
 Red. masses --      2.3176                 1.5474                 1.4148
 Frc consts  --      1.3811                 0.9601                 0.9046
 IR Inten    --      6.5328                21.5869                 5.3036

                     25                     26                     27
                      A                      A                      A
 Frequencies --   1052.8280              1067.1922              1088.0291
 Red. masses --      1.4288                 1.4281                 1.7319
 Frc consts  --      0.9331                 0.9583                 1.2080
 IR Inten    --      3.5856                13.1764                 3.9475

                     28                     29                     30
                      A                      A                      A
 Frequencies --   1102.5263              1183.6685              1205.2988
 Red. masses --      2.0695                 1.5570                 1.6296
 Frc consts  --      1.4821                 1.2853                 1.3949
 IR Inten    --      1.5843                65.0598                39.9858

                     31                     32                     33
                      A                      A                      A
 Frequencies --   1244.4081              1249.6151              1281.3709
 Red. masses --      1.8165                 1.6901                 2.8000
 Frc consts  --      1.6574                 1.5549                 2.7087
 IR Inten    --     20.3130                48.2978                 6.9475

                     34                     35                     36
                      A                      A                      A
 Frequencies --   1299.7721              1333.5549              1347.3433
 Red. masses --      1.5487                 1.5320                 2.1019
 Frc consts  --      1.5416                 1.6052                 2.2481
 IR Inten    --     69.5916                53.8480                14.5095

                     37                     38                     39
                      A                      A                      A
 Frequencies --   1390.0079              1407.0476              1480.4844
 Red. masses --      2.2435                 1.5778                 1.3564
 Frc consts  --      2.5539                 1.8404                 1.7516
 IR Inten    --      4.5103                17.4170                 8.3783

                     40                     41                     42
                      A                      A                      A
 Frequencies --   1485.3178              1502.9277              3033.1866
 Red. masses --      1.3185                 1.2376                 1.0637
 Frc consts  --      1.7138                 1.6470                 5.7662
 IR Inten    --      3.8260                10.0353                40.6627

                     43                     44                     45
                      A                      A                      A
 Frequencies --   3084.3877              3125.3098              3133.1547
 Red. masses --      1.0994                 1.0540                 1.0538
 Frc consts  --      6.1623                 6.0658                 6.0952
 IR Inten    --     13.8150                 5.7425                19.0918

                     46                     47                     48
                      A                      A                      A
 Frequencies --   3177.6182              3188.4177              3211.1313
 Red. masses --      1.0912                 1.0920                 1.1156
 Frc consts  --      6.4920                 6.5409                 6.7777
 IR Inten    --      7.5432                 3.2571                13.5257

                     49                     50                     51
                      A                      A                      A
 Frequencies --   3217.4700              3795.5530              3796.6409
 Red. masses --      1.1139                 1.0661                 1.0663
 Frc consts  --      6.7943                 9.0492                 9.0554
 IR Inten    --      9.9815                19.4193                17.1648

 - Thermochemistry -
 -------------------
 Temperature   298.150 Kelvin.  Pressure   1.00000 Atm.
 Atom     1 has atomic number  8 and mass  15.99491

 Molecular mass:   126.06808 amu.
 Principal axes and moments of inertia in atomic units:
                           1         2         3
     Eigenvalues --   606.767761294.947481407.73270
           X            0.99999   0.00424  -0.00043
           Y           -0.00426   0.99802  -0.06269
           Z            0.00016   0.06269   0.99803
 This molecule is an asymmetric top.
 Rotational symmetry number  1.
 Warning -- assumption of classical behavior for rotation
           may cause significant error
 Rotational temperatures (Kelvin)      0.14275     0.06689     0.06153
 Rotational constants (GHZ):           2.97435     1.39368     1.28202
 Zero-point vibrational energy     417699.3 (Joules/Mol)
                                   99.83253 (Kcal/Mol)
 Warning -- explicit consideration of  12 degrees of freedom as
           vibrations may cause significant error
 Vibrational temperatures:    219.49   295.33   402.27   413.01   470.07
          (Kelvin)            507.23   560.14   597.94   649.30   690.57
                              840.78   874.58   984.11  1084.09  1204.32
                             1219.89  1274.36  1300.38  1310.66  1351.44
                             1412.44  1446.97  1476.44  1498.84  1514.78
                             1535.45  1565.43  1586.29  1703.03  1734.15
                             1790.42  1797.92  1843.60  1870.08  1918.69
                             1938.52  1999.91  2024.43  2130.08  2137.04
                             2162.38  4364.07  4437.74  4496.62  4507.91
                             4571.88  4587.42  4620.10  4629.22  5460.95
                             5462.51

 Zero-point correction=                           0.159093 (Hartree/Particle)
 Thermal correction to Energy=                    0.167126
 Thermal correction to Enthalpy=                  0.168070
 Thermal correction to Gibbs Free Energy=         0.127288
 Sum of electronic and zero-point Energies=           -422.995230
 Sum of electronic and thermal Energies=              -422.987197
 Sum of electronic and thermal Enthalpies=            -422.986253
 Sum of electronic and thermal Free Energies=         -423.027035

                     E (Thermal)             CV                S
                      KCal/Mol        Cal/Mol-Kelvin    Cal/Mol-Kelvin
 Total                  104.873             33.096             85.834
 Electronic               0.000              0.000              0.000
 Translational            0.889              2.981             40.409
 Rotational               0.889              2.981             28.494
 Vibrational            103.096             27.134             16.931
 Vibration     1          0.619              1.900              2.640
 Vibration     2          0.640              1.832              2.085
 Vibration     3          0.680              1.711              1.536
 Vibration     4          0.684              1.698              1.491
 Vibration     5          0.710              1.622              1.276
 Vibration     6          0.729              1.570              1.155
 Vibration     7          0.757              1.493              1.003
 Vibration     8          0.779              1.436              0.907
 Vibration     9          0.810              1.358              0.792
 Vibration    10          0.836              1.294              0.710
 Vibration    11          0.941              1.065              0.477
 Vibration    12          0.967              1.015              0.436

 Optimization completed.
    -- Stationary point found.
 Normal termination of Gaussian 09 at Mon Jan 27 18:26:56 2020.
