 Gaussian 09, Revision D.01,
 Gaussian 09:  ES64L-G09RevD.01 24-Apr-2013

 -----------------------------
 # b3lyp 6-31G(2df,p) opt Freq
 -----------------------------

 -----
 titel
 -----
 Symbolic Z-matrix:
 Charge =  0 Multiplicity = 1

 SCF Done:  E(RB3LYP) =  -423.212162729     A.U. after   14 cycles
 Optimization completed.
    -- Stationary point found.
 Normal termination of Gaussian 09 at Tue Jan 28 00:40:22 2020.

 ----------------------------------------------------------------------
 #N Geom=AllCheck Guess=TCheck SCRF=Check GenChk RB3LYP/6-31G(2df,p) Fr
 eq
 ----------------------------------------------------------------------

 Structure from the checkpoint file:  "/scratch/puck/g09_c0b9ba60-cab6-4b83-8eb1-86847e37d56b/Gau-107655.chk"
 -----
 titel
 -----
 Charge =  0 Multiplicity = 1

                         Standard orientation:
 ---------------------------------------------------------------------
 Center     Atomic      Atomic             Coordinates (Angstroms)
 Number     Number       Type             X           Y           Z
 ---------------------------------------------------------------------
      1          6           0       -2.135830    1.686175    0.195983
      2          6           0       -1.095683    0.687854   -0.302820
      3          6           0        0.383392    1.087474   -0.070162
      4          6           0        1.077860   -0.248169    0.073831
      5          6           0        2.532615   -0.422870    0.020289
      6          8           0        3.321353    0.483832   -0.130829
      7          6           0        0.200294   -1.240981    0.275363
      8          6           0       -1.220876   -0.725369    0.313422
      9          8           0       -2.155517   -1.483613   -0.442393
     10          1           0       -2.025411    1.869179    1.271313
     11          1           0       -2.039928    2.648906   -0.315967
     12          1           0       -3.147901    1.309741    0.017496
     13          1           0       -1.236573    0.532292   -1.379695
     14          1           0        0.804953    1.693003   -0.877235
     15          1           0        0.497711    1.677223    0.849581
     16          1           0        2.877887   -1.475971    0.126250
     17          1           0        0.456910   -2.285425    0.426423
     18          1           0       -1.555902   -0.657017    1.363812
     19          1           0       -2.409071   -2.258371    0.068366
 ---------------------------------------------------------------------

 SCF Done:  E(RB3LYP) =  -423.212162729     A.U. after    1 cycles

 The electronic state is 1-A.
 Alpha  occ. eigenvalues --  -19.14701 -19.13338 -10.26573 -10.24514 -10.20531
 Alpha  occ. eigenvalues --  -10.19937 -10.19312 -10.18870 -10.17758  -1.03826
 Alpha  occ. eigenvalues --   -1.02893  -0.85815  -0.76582  -0.71086  -0.68064
 Alpha  occ. eigenvalues --   -0.61512  -0.56999  -0.53952  -0.52471  -0.48992
 Alpha  occ. eigenvalues --   -0.46569  -0.44172  -0.42126  -0.41323  -0.40963
 Alpha  occ. eigenvalues --   -0.38251  -0.37620  -0.37172  -0.34667  -0.33754
 Alpha  occ. eigenvalues --   -0.32670  -0.28290  -0.26526  -0.24993
 Alpha virt. eigenvalues --   -0.05878   0.06195   0.07097   0.09292   0.11600
 Alpha virt. eigenvalues --    0.12640   0.13807   0.15273   0.15835   0.16602
 Alpha virt. eigenvalues --    0.17107   0.18816   0.19349   0.20557   0.23030

 Mulliken charges:
               1
     1  C   -0.417947
     2  C    0.031755
     3  C   -0.337958
     4  C    0.237460
     5  C    0.076111
     6  O   -0.269585
     7  C   -0.203709
     8  C    0.082289
     9  O   -0.429588
    10  H    0.111471
    11  H    0.118044
    12  H    0.126671
    13  H    0.097409
    14  H    0.124745
    15  H    0.115250
    16  H    0.067298
    17  H    0.107200
    18  H    0.077213
    19  H    0.285869
 Sum of Mulliken charges =   0.00000

 Dipole moment (field-independent basis, Debye):
    X=             -2.5060    Y=             -1.8895    Z=              1.5049  Tot=              3.4806
 Quadrupole moment (field-independent basis, Debye-Ang):
   XX=            -64.4460   YY=            -47.9148   ZZ=            -53.1789
   XY=             -2.7173   XZ=             -2.0415   YZ=             -2.7882

  Exact polarizability: 102.229   6.544  84.626  -2.866  -3.589  55.391
 Approx polarizability: 146.201  30.194 131.206  -6.155  -7.462  89.162

                      1                      2                      3
                      A                      A                      A
 Frequencies --     89.3664                93.5970               162.0455
 Red. masses --      3.6396                 3.6174                 5.1604
 Frc consts  --      0.0171                 0.0187                 0.0798
 IR Inten    --      1.9279                 1.9046                 6.2050

                      4                      5                      6
                      A                      A                      A
 Frequencies --    208.7613               231.0300               238.0555
 Red. masses --      2.6960                 1.1621                 1.2214
 Frc consts  --      0.0692                 0.0365                 0.0408
 IR Inten    --      5.8299                89.3771                12.2964

                      7                      8                      9
                      A                      A                      A
 Frequencies --    274.3982               354.7181               388.1699
 Red. masses --      2.1608                 2.5428                 3.8930
 Frc consts  --      0.0959                 0.1885                 0.3456
 IR Inten    --      4.8513                 4.7047                 2.2797

                     10                     11                     12
                      A                      A                      A
 Frequencies --    440.7082               457.1103               561.8162
 Red. masses --      2.1557                 3.6931                 4.1916
 Frc consts  --      0.2467                 0.4547                 0.7795
 IR Inten    --      2.3574                 3.5668                 6.7227

                     13                     14                     15
                      A                      A                      A
 Frequencies --    617.6708               721.3626               816.6832
 Red. masses --      3.1374                 4.7340                 1.9436
 Frc consts  --      0.7052                 1.4514                 0.7638
 IR Inten    --      2.8251                21.6210                 3.8144

                     16                     17                     18
                      A                      A                      A
 Frequencies --    873.4776               888.1747               913.0088
 Red. masses --      1.9396                 2.6953                 1.5778
 Frc consts  --      0.8719                 1.2527                 0.7749
 IR Inten    --      7.5278                 6.3153                 0.8846

                     19                     20                     21
                      A                      A                      A
 Frequencies --    944.2724              1028.2843              1034.0210
 Red. masses --      1.5537                 2.0651                 1.6516
 Frc consts  --      0.8162                 1.2865                 1.0404
 IR Inten    --      2.0147                 9.9525                 1.9066

                     22                     23                     24
                      A                      A                      A
 Frequencies --   1053.4246              1091.0938              1110.0160
 Red. masses --      2.7553                 2.3455                 2.0998
 Frc consts  --      1.8015                 1.6452                 1.5243
 IR Inten    --     61.5964                 8.4517                 1.6326

                     25                     26                     27
                      A                      A                      A
 Frequencies --   1141.2075              1165.5630              1209.9748
 Red. masses --      1.6503                 1.4953                 1.8052
 Frc consts  --      1.2663                 1.1969                 1.5571
 IR Inten    --      1.3830                68.8869                50.6781

                     28                     29                     30
                      A                      A                      A
 Frequencies --   1249.4459              1268.3543              1312.1119
 Red. masses --      1.3387                 1.3612                 1.3910
 Frc consts  --      1.2313                 1.2902                 1.4110
 IR Inten    --     17.8344                15.7521                63.7142

                     31                     32                     33
                      A                      A                      A
 Frequencies --   1322.6044              1363.5634              1370.3617
 Red. masses --      1.3156                 3.3312                 1.4763
 Frc consts  --      1.3559                 3.6492                 1.6334
 IR Inten    --      1.7084                 9.3141                 2.9002

                     34                     35                     36
                      A                      A                      A
 Frequencies --   1407.7081              1411.4324              1426.7996
 Red. masses --      1.3478                 1.2500                 1.3432
 Frc consts  --      1.5736                 1.4672                 1.6111
 IR Inten    --      5.2962                 2.7673                 4.5971

                     37                     38                     39
                      A                      A                      A
 Frequencies --   1489.5054              1496.6534              1502.7652
 Red. masses --      1.0920                 1.0541                 1.0460
 Frc consts  --      1.4274                 1.3911                 1.3917
 IR Inten    --      1.9229                 3.9513                 6.2438

                     40                     41                     42
                      A                      A                      A
 Frequencies --   1680.3386              1785.9981              2877.4617
 Red. masses --      7.2152                10.3301                 1.0827
 Frc consts  --     12.0031                19.4141                 5.2816
 IR Inten    --     20.7974               239.5863               122.7805

                     43                     44                     45
                      A                      A                      A
 Frequencies --   2938.6429              3021.6272              3027.8668
 Red. masses --      1.0806                 1.0706                 1.0416
 Frc consts  --      5.4982                 5.7589                 5.6261
 IR Inten    --     40.3446                 8.3183                18.5036

                     46                     47                     48
                      A                      A                      A
 Frequencies --   3037.2469              3088.5134              3096.3200
 Red. masses --      1.0765                 1.0934                 1.0990
 Frc consts  --      5.8512                 6.1452                 6.2078
 IR Inten    --     27.6044                 6.0232                41.0948

                     49                     50                     51
                      A                      A                      A
 Frequencies --   3107.4016              3180.4241              3825.2061
 Red. masses --      1.1016                 1.0936                 1.0665
 Frc consts  --      6.2674                 6.5172                 9.1941
 IR Inten    --     17.5594                10.2349                31.6379

 - Thermochemistry -
 -------------------
 Temperature   298.150 Kelvin.  Pressure   1.00000 Atm.
 Atom     1 has atomic number  6 and mass  12.00000

 Molecular mass:   126.06808 amu.
 Principal axes and moments of inertia in atomic units:
                           1         2         3
     Eigenvalues --   592.553901724.212692214.13852
           X            0.99942  -0.03379  -0.00498
           Y            0.03374   0.99938  -0.00974
           Z            0.00531   0.00956   0.99994
 This molecule is an asymmetric top.
 Rotational symmetry number  1.
 Warning -- assumption of classical behavior for rotation
           may cause significant error
 Rotational temperatures (Kelvin)      0.14617     0.05023     0.03912
 Rotational constants (GHZ):           3.04570     1.04670     0.81510
 Zero-point vibrational energy     415082.4 (Joules/Mol)
                                   99.20708 (Kcal/Mol)
 Warning -- explicit consideration of  13 degrees of freedom as
           vibrations may cause significant error
 Vibrational temperatures:    128.58   134.66   233.15   300.36   332.40
          (Kelvin)            342.51   394.80   510.36   558.49   634.08
                              657.68   808.33   888.69  1037.88  1175.02
                             1256.74  1277.88  1313.61  1358.60  1479.47
                             1487.72  1515.64  1569.84  1597.06  1641.94
                             1676.98  1740.88  1797.67  1824.88  1887.83
                             1902.93  1961.86  1971.64  2025.38  2030.73
                             2052.84  2143.06  2153.35  2162.14  2417.63
                             2569.65  4140.02  4228.05  4347.44  4356.42
                             4369.92  4443.68  4454.91  4470.85  4575.92
                             5503.61

 Zero-point correction=                           0.158097 (Hartree/Particle)
 Thermal correction to Energy=                    0.167308
 Thermal correction to Enthalpy=                  0.168252
 Thermal correction to Gibbs Free Energy=         0.123977
 Sum of electronic and zero-point Energies=           -423.054066
 Sum of electronic and thermal Energies=              -423.044855
 Sum of electronic and thermal Enthalpies=            -423.043911
 Sum of electronic and thermal Free Energies=         -423.088185

                     E (Thermal)             CV                S
                      KCal/Mol        Cal/Mol-Kelvin    Cal/Mol-Kelvin
 Total                  104.987             33.868             93.184
 Electronic               0.000              0.000              0.000
 Translational            0.889              2.981             40.409
 Rotational               0.889              2.981             29.205
 Vibrational            103.210             27.906             23.570
 Vibration     1          0.602              1.957              3.674
 Vibration     2          0.603              1.954              3.583
 Vibration     3          0.622              1.889              2.526
 Vibration     4          0.642              1.827              2.054
 Vibration     5          0.653              1.794              1.871
 Vibration     6          0.656              1.782              1.817
 Vibration     7          0.677              1.721              1.568
 Vibration     8          0.731              1.566              1.145
 Vibration     9          0.756              1.495              1.007
 Vibration    10          0.801              1.381              0.824
 Vibration    11          0.815              1.345              0.775
 Vibration    12          0.918              1.114              0.520
 Vibration    13          0.977              0.995              0.420

 Normal termination of Gaussian 09 at Tue Jan 28 01:20:10 2020.
