 Gaussian 09, Revision D.01,
 Gaussian 09:  ES64L-G09RevD.01 24-Apr-2013

 -----------------------------
 # b3lyp 6-31G(2df,p) opt Freq
 -----------------------------

 -----
 titel
 -----
 Symbolic Z-matrix:
 Charge =  0 Multiplicity = 1

 SCF Done:  E(RB3LYP) =  -423.125832114     A.U. after   12 cycles
 Optimization completed.
    -- Stationary point found.
 Normal termination of Gaussian 09 at Mon Jan 27 22:02:31 2020.

 ----------------------------------------------------------------------
 #N Geom=AllCheck Guess=TCheck SCRF=Check GenChk RB3LYP/6-31G(2df,p) Fr
 eq
 ----------------------------------------------------------------------

 Structure from the checkpoint file:  "/scratch/puck/g09_cb8fd7bc-20e7-42b4-9f52-cd3bffcb6a3a/Gau-176344.chk"
 -----
 titel
 -----
 Charge =  0 Multiplicity = 1

                         Standard orientation:
 ---------------------------------------------------------------------
 Center     Atomic      Atomic             Coordinates (Angstroms)
 Number     Number       Type             X           Y           Z
 ---------------------------------------------------------------------
      1          6           0       -2.894914   -0.103919   -0.000425
      2          6           0       -1.476199   -0.097635   -0.555560
      3          6           0       -0.629130    1.091712   -0.086349
      4          6           0       -0.075034    0.309488    1.100315
      5          6           0       -0.465687   -0.970084    0.247238
      6          6           0        0.873542   -0.805514   -0.526140
      7          8           0        1.983105   -1.487843    0.032247
      8          6           0        0.821243    0.654244   -0.092419
      9          8           0        1.834874    1.573915   -0.209289
     10          1           0       -3.385552   -1.064810   -0.189856
     11          1           0       -2.894493    0.069615    1.081206
     12          1           0       -3.503594    0.679151   -0.465547
     13          1           0       -1.493899   -0.287417   -1.637437
     14          1           0       -0.874475    2.147170   -0.110592
     15          1           0       -0.044576    0.548348    2.152812
     16          1           0       -0.740463   -1.948426    0.639558
     17          1           0        0.883329   -1.048194   -1.594172
     18          1           0        1.935075   -1.372497    0.990126
     19          1           0        2.651899    1.118742    0.030275
 ---------------------------------------------------------------------

 SCF Done:  E(RB3LYP) =  -423.125832114     A.U. after    1 cycles

 The electronic state is 1-A.
 Alpha  occ. eigenvalues --  -19.15228 -19.14251 -10.23839 -10.23127 -10.19501
 Alpha  occ. eigenvalues --  -10.19312 -10.19244 -10.18931 -10.17474  -1.04535
 Alpha  occ. eigenvalues --   -1.02008  -0.92119  -0.75413  -0.70666  -0.65002
 Alpha  occ. eigenvalues --   -0.62707  -0.56797  -0.54790  -0.52464  -0.48543
 Alpha  occ. eigenvalues --   -0.46745  -0.45560  -0.43297  -0.40038  -0.39570
 Alpha  occ. eigenvalues --   -0.37659  -0.37019  -0.35384  -0.33983  -0.32331
 Alpha  occ. eigenvalues --   -0.31031  -0.27532  -0.25096  -0.23124
 Alpha virt. eigenvalues --    0.06231   0.09776   0.09813   0.11622   0.12124
 Alpha virt. eigenvalues --    0.13181   0.13869   0.15271   0.16804   0.16940
 Alpha virt. eigenvalues --    0.17515   0.18577   0.19751   0.21819   0.23013

 Mulliken charges:
               1
     1  C   -0.406041
     2  C    0.008348
     3  C   -0.108882
     4  C   -0.212240
     5  C   -0.115517
     6  C    0.072803
     7  O   -0.458279
     8  C    0.368849
     9  O   -0.466038
    10  H    0.112491
    11  H    0.116720
    12  H    0.114099
    13  H    0.064521
    14  H    0.092779
    15  H    0.094654
    16  H    0.072030
    17  H    0.082577
    18  H    0.277528
    19  H    0.289597
 Sum of Mulliken charges =   0.00000

 Dipole moment (field-independent basis, Debye):
    X=             -0.6879    Y=             -0.3135    Z=              1.2790  Tot=              1.4857
 Quadrupole moment (field-independent basis, Debye-Ang):
   XX=            -52.3880   YY=            -57.2426   ZZ=            -50.8305
   XY=              0.8104   XZ=              3.5021   YZ=             -0.4481

  Exact polarizability:  86.901  -0.443  70.529   1.523   0.111  66.682
 Approx polarizability: 115.208  -1.260 107.251   1.093  -2.169 108.437

                      1                      2                      3
                      A                      A                      A
 Frequencies --    179.6494               194.4024               215.2956
 Red. masses --      3.1231                 3.6538                 2.4637
 Frc consts  --      0.0594                 0.0814                 0.0673
 IR Inten    --      0.7118                13.7341                 5.6520

                      4                      5                      6
                      A                      A                      A
 Frequencies --    231.4669               255.6558               359.8616
 Red. masses --      2.8506                 1.2703                 1.8774
 Frc consts  --      0.0900                 0.0489                 0.1432
 IR Inten    --      0.7800                 1.9056                23.6124

                      7                      8                      9
                      A                      A                      A
 Frequencies --    375.6490               400.2238               445.1281
 Red. masses --      1.2257                 2.0203                 2.0039
 Frc consts  --      0.1019                 0.1907                 0.2339
 IR Inten    --     63.6546                37.9199                48.9516

                     10                     11                     12
                      A                      A                      A
 Frequencies --    455.5330               582.3026               649.4961
 Red. masses --      3.9114                 3.7665                 3.4831
 Frc consts  --      0.4782                 0.7525                 0.8657
 IR Inten    --      2.1502                 2.7185                15.1341

                     13                     14                     15
                      A                      A                      A
 Frequencies --    752.0770               805.0654               820.6279
 Red. masses --      2.4589                 2.0896                 1.3478
 Frc consts  --      0.8194                 0.7979                 0.5348
 IR Inten    --      3.6634                 1.1729                 4.9754

                     16                     17                     18
                      A                      A                      A
 Frequencies --    845.2864               874.4886               909.7373
 Red. masses --      3.8496                 2.4434                 3.0707
 Frc consts  --      1.6206                 1.1009                 1.4973
 IR Inten    --      3.7213                 2.7493                 7.9510

                     19                     20                     21
                      A                      A                      A
 Frequencies --    917.3498               928.8371               958.7712
 Red. masses --      1.9050                 1.8530                 3.0792
 Frc consts  --      0.9445                 0.9419                 1.6677
 IR Inten    --      2.1891                16.2499                20.5496

                     22                     23                     24
                      A                      A                      A
 Frequencies --   1013.0828              1040.3237              1057.5961
 Red. masses --      1.8169                 2.0754                 1.4892
 Frc consts  --      1.0987                 1.3234                 0.9814
 IR Inten    --      3.2543                36.1166                14.2537

                     25                     26                     27
                      A                      A                      A
 Frequencies --   1091.5934              1120.8278              1131.8974
 Red. masses --      1.7244                 2.9777                 1.7326
 Frc consts  --      1.2106                 2.2040                 1.3079
 IR Inten    --     19.1152                41.1798                 9.1125

                     28                     29                     30
                      A                      A                      A
 Frequencies --   1154.6042              1159.1314              1214.4821
 Red. masses --      2.0723                 1.4867                 1.6017
 Frc consts  --      1.6277                 1.1769                 1.3919
 IR Inten    --     30.4943                 3.4113                39.4307

                     31                     32                     33
                      A                      A                      A
 Frequencies --   1220.9947              1266.3049              1275.7381
 Red. masses --      1.6869                 1.7121                 1.4989
 Frc consts  --      1.4817                 1.6175                 1.4373
 IR Inten    --     17.3637                14.4236                12.7440

                     34                     35                     36
                      A                      A                      A
 Frequencies --   1285.2638              1346.1304              1381.9102
 Red. masses --      1.7644                 1.8875                 1.5988
 Frc consts  --      1.7172                 2.0151                 1.7989
 IR Inten    --      5.6041                95.9642                24.2797

                     37                     38                     39
                      A                      A                      A
 Frequencies --   1408.3719              1427.6732              1466.0040
 Red. masses --      1.2632                 1.4832                 3.1936
 Frc consts  --      1.4763                 1.7812                 4.0439
 IR Inten    --      4.6205                58.9532                77.0813

                     40                     41                     42
                      A                      A                      A
 Frequencies --   1495.1947              1498.0040              3008.8045
 Red. masses --      1.0479                 1.0502                 1.0829
 Frc consts  --      1.3803                 1.3885                 5.7760
 IR Inten    --      3.0615                 3.0535                36.4008

                     43                     44                     45
                      A                      A                      A
 Frequencies --   3026.9563              3058.6550              3093.7004
 Red. masses --      1.0350                 1.0857                 1.1014
 Frc consts  --      5.5872                 5.9847                 6.2109
 IR Inten    --     31.0182                51.9302                23.5246

                     46                     47                     48
                      A                      A                      A
 Frequencies --   3098.3894              3126.5552              3185.2274
 Red. masses --      1.1012                 1.0912                 1.0916
 Frc consts  --      6.2287                 6.2845                 6.5249
 IR Inten    --     35.0639                26.3850                12.0365

                     49                     50                     51
                      A                      A                      A
 Frequencies --   3228.1130              3765.1348              3775.5491
 Red. masses --      1.0974                 1.0650                 1.0654
 Frc consts  --      6.7376                 8.8951                 8.9478
 IR Inten    --      4.1140                 9.8541                27.5328

 - Thermochemistry -
 -------------------
 Temperature   298.150 Kelvin.  Pressure   1.00000 Atm.
 Atom     1 has atomic number  6 and mass  12.00000

 Molecular mass:   126.06808 amu.
 Principal axes and moments of inertia in atomic units:
                           1         2         3
     Eigenvalues --   591.473821254.393781589.04196
           X            0.99998   0.00234   0.00587
           Y           -0.00237   0.99998   0.00495
           Z           -0.00586  -0.00496   0.99997
 This molecule is an asymmetric top.
 Rotational symmetry number  1.
 Warning -- assumption of classical behavior for rotation
           may cause significant error
 Rotational temperatures (Kelvin)      0.14644     0.06905     0.05451
 Rotational constants (GHZ):           3.05126     1.43874     1.13574
 Zero-point vibrational energy     416175.5 (Joules/Mol)
                                   99.46834 (Kcal/Mol)
 Warning -- explicit consideration of  11 degrees of freedom as
           vibrations may cause significant error
 Vibrational temperatures:    258.48   279.70   309.76   333.03   367.83
          (Kelvin)            517.76   540.47   575.83   640.44   655.41
                              837.80   934.48  1082.07  1158.31  1180.70
                             1216.18  1258.19  1308.91  1319.86  1336.39
                             1379.46  1457.60  1496.79  1521.64  1570.56
                             1612.62  1628.55  1661.22  1667.73  1747.37
                             1756.74  1821.93  1835.50  1849.21  1936.78
                             1988.26  2026.33  2054.10  2109.25  2151.25
                             2155.29  4328.99  4355.11  4400.72  4451.14
                             4457.89  4498.41  4582.83  4644.53  5417.18
                             5432.17

 Zero-point correction=                           0.158513 (Hartree/Particle)
 Thermal correction to Energy=                    0.166747
 Thermal correction to Enthalpy=                  0.167691
 Thermal correction to Gibbs Free Energy=         0.126405
 Sum of electronic and zero-point Energies=           -422.967319
 Sum of electronic and thermal Energies=              -422.959085
 Sum of electronic and thermal Enthalpies=            -422.958141
 Sum of electronic and thermal Free Energies=         -422.999427

                     E (Thermal)             CV                S
                      KCal/Mol        Cal/Mol-Kelvin    Cal/Mol-Kelvin
 Total                  104.635             33.097             86.894
 Electronic               0.000              0.000              0.000
 Translational            0.889              2.981             40.409
 Rotational               0.889              2.981             28.557
 Vibrational            102.858             27.136             17.929
 Vibration     1          0.629              1.867              2.332
 Vibration     2          0.635              1.848              2.185
 Vibration     3          0.645              1.818              1.998
 Vibration     4          0.653              1.793              1.868
 Vibration     5          0.666              1.753              1.691
 Vibration     6          0.734              1.555              1.123
 Vibration     7          0.746              1.522              1.057
 Vibration     8          0.766              1.470              0.962
 Vibration     9          0.805              1.372              0.811
 Vibration    10          0.814              1.349              0.779
 Vibration    11          0.939              1.070              0.481

 Normal termination of Gaussian 09 at Mon Jan 27 22:53:09 2020.
