 Gaussian 09, Revision D.01,
 Gaussian 09:  ES64L-G09RevD.01 24-Apr-2013

 -----------------------------
 # b3lyp 6-31G(2df,p) opt Freq
 -----------------------------

 -----
 titel
 -----
 Symbolic Z-matrix:
 Charge =  0 Multiplicity = 1

 SCF Done:  E(RB3LYP) =  -423.120580948     A.U. after   14 cycles
 Optimization completed.
    -- Stationary point found.
 Normal termination of Gaussian 09 at Tue Jan 28 14:27:02 2020.

 ----------------------------------------------------------------------
 #N Geom=AllCheck Guess=TCheck SCRF=Check GenChk RB3LYP/6-31G(2df,p) Fr
 eq
 ----------------------------------------------------------------------

 Structure from the checkpoint file:  "/scratch/puck/g09_65bc43a7-1cd2-45a7-b96e-dc0ed842ff48/Gau-34995.chk"
 -----
 titel
 -----
 Charge =  0 Multiplicity = 1

                         Standard orientation:
 ---------------------------------------------------------------------
 Center     Atomic      Atomic             Coordinates (Angstroms)
 Number     Number       Type             X           Y           Z
 ---------------------------------------------------------------------
      1          6           0        4.092773   -0.403788    0.010030
      2          8           0        2.794631   -0.267122   -0.517222
      3          6           0        1.803581   -0.191335    0.481048
      4          6           0        0.463804   -0.053134   -0.189163
      5          8           0        0.022751    1.261925   -0.510588
      6          6           0       -0.684038    0.546629    0.520721
      7          6           0       -2.038878    0.144624    0.258601
      8          6           0       -3.181312   -0.182262    0.062470
      9          6           0       -4.559265   -0.577035   -0.185268
     10          1           0        4.193737   -1.318804    0.615787
     11          1           0        4.783242   -0.460986   -0.834559
     12          1           0        4.370809    0.456095    0.639623
     13          1           0        1.811452   -1.102960    1.105512
     14          1           0        1.972611    0.672007    1.145460
     15          1           0        0.253937   -0.797954   -0.956368
     16          1           0       -0.501776    0.941511    1.520864
     17          1           0       -5.234074   -0.161514    0.570941
     18          1           0       -4.897871   -0.221223   -1.164444
     19          1           0       -4.671109   -1.666788   -0.170970
 ---------------------------------------------------------------------

 SCF Done:  E(RB3LYP) =  -423.120580948     A.U. after    1 cycles

 The electronic state is 1-A.
 Alpha  occ. eigenvalues --  -19.15255 -19.14362 -10.25672 -10.24062 -10.23537
 Alpha  occ. eigenvalues --  -10.22655 -10.20807 -10.18400 -10.17358  -1.07473
 Alpha  occ. eigenvalues --   -1.03667  -0.78356  -0.75307  -0.72958  -0.67132
 Alpha  occ. eigenvalues --   -0.64845  -0.60054  -0.53283  -0.49608  -0.48208
 Alpha  occ. eigenvalues --   -0.47702  -0.45744  -0.43656  -0.43099  -0.42923
 Alpha  occ. eigenvalues --   -0.41981  -0.38070  -0.37791  -0.33555  -0.32453
 Alpha  occ. eigenvalues --   -0.27510  -0.26289  -0.25809  -0.24653
 Alpha virt. eigenvalues --    0.02797   0.04735   0.08884   0.10436   0.10790
 Alpha virt. eigenvalues --    0.13234   0.13380   0.15114   0.15684   0.16097
 Alpha virt. eigenvalues --    0.16934   0.17384   0.18567   0.19062   0.21477

 Mulliken charges:
               1
     1  C   -0.224539
     2  O   -0.231965
     3  C   -0.081573
     4  C    0.055990
     5  O   -0.236172
     6  C   -0.176438
     7  C    0.054495
     8  C    0.136959
     9  C   -0.501568
    10  H    0.103021
    11  H    0.131044
    12  H    0.107034
    13  H    0.090928
    14  H    0.095392
    15  H    0.108916
    16  H    0.108953
    17  H    0.151997
    18  H    0.156457
    19  H    0.151069
 Sum of Mulliken charges =   0.00000

 Dipole moment (field-independent basis, Debye):
    X=             -0.4054    Y=             -1.6917    Z=              1.7845  Tot=              2.4921
 Quadrupole moment (field-independent basis, Debye-Ang):
   XX=            -38.2149   YY=            -55.1436   ZZ=            -53.3038
   XY=              1.0519   XZ=              3.4237   YZ=              2.1098

  Exact polarizability: 130.716   5.336  62.023   1.812   2.847  61.236
 Approx polarizability: 160.762  12.699  95.710   2.117   2.538  93.741

                      1                      2                      3
                      A                      A                      A
 Frequencies --     21.4149                49.8908                72.8651
 Red. masses --      1.0389                 3.5715                 2.8127
 Frc consts  --      0.0003                 0.0052                 0.0088
 IR Inten    --      0.2713                 0.9296                 3.4021

                      4                      5                      6
                      A                      A                      A
 Frequencies --    104.2072               113.1666               167.8539
 Red. masses --      3.0439                 3.0750                 3.9861
 Frc consts  --      0.0195                 0.0232                 0.0662
 IR Inten    --      0.5513                 1.6546                 0.7740

                      7                      8                      9
                      A                      A                      A
 Frequencies --    230.9216               269.4542               313.2064
 Red. masses --      1.2756                 3.9270                 3.3740
 Frc consts  --      0.0401                 0.1680                 0.1950
 IR Inten    --      4.1649                 2.3467                 3.0922

                     10                     11                     12
                      A                      A                      A
 Frequencies --    349.9851               376.5241               433.9826
 Red. masses --      3.8002                 3.9166                 3.7487
 Frc consts  --      0.2743                 0.3272                 0.4160
 IR Inten    --      4.1629                 3.3096                 2.6838

                     13                     14                     15
                      A                      A                      A
 Frequencies --    515.0187               586.7917               767.5577
 Red. masses --      6.5391                 3.6086                 4.6445
 Frc consts  --      1.0219                 0.7321                 1.6122
 IR Inten    --      2.1952                11.5722                 3.7080

                     16                     17                     18
                      A                      A                      A
 Frequencies --    830.6790               912.1405               984.9112
 Red. masses --      4.8771                 4.7314                 2.9246
 Frc consts  --      1.9828                 2.3193                 1.6715
 IR Inten    --     28.8913                56.2368                11.7552

                     19                     20                     21
                      A                      A                      A
 Frequencies --   1000.5391              1050.2109              1053.5535
 Red. masses --      2.5476                 1.4095                 1.4028
 Frc consts  --      1.5026                 0.9160                 0.9174
 IR Inten    --     10.7165                 1.6736                 0.7125

                     22                     23                     24
                      A                      A                      A
 Frequencies --   1071.4003              1120.4105              1145.2173
 Red. masses --      1.7178                 1.4476                 1.7595
 Frc consts  --      1.1618                 1.0706                 1.3596
 IR Inten    --      4.3214                 3.0774                25.8903

                     25                     26                     27
                      A                      A                      A
 Frequencies --   1165.5976              1182.7448              1187.5199
 Red. masses --      4.6008                 3.8387                 1.3717
 Frc consts  --      3.6828                 3.1639                 1.1397
 IR Inten    --    160.7511                 3.5036                 6.8793

                     28                     29                     30
                      A                      A                      A
 Frequencies --   1228.7595              1265.2579              1274.5853
 Red. masses --      1.6828                 1.1343                 1.4589
 Frc consts  --      1.4970                 1.0698                 1.3964
 IR Inten    --     44.2959                 3.7794                 5.0799

                     31                     32                     33
                      A                      A                      A
 Frequencies --   1343.0340              1408.8668              1413.8742
 Red. masses --      1.1850                 1.3869                 1.2875
 Frc consts  --      1.2593                 1.6219                 1.5164
 IR Inten    --     35.3461                13.8632                 3.2118

                     34                     35                     36
                      A                      A                      A
 Frequencies --   1473.5890              1475.5113              1477.1563
 Red. masses --      1.3459                 1.0399                 1.0399
 Frc consts  --      1.7219                 1.3339                 1.3369
 IR Inten    --     20.2165                 6.1059                 5.7362

                     37                     38                     39
                      A                      A                      A
 Frequencies --   1485.1359              1486.1655              1495.5020
 Red. masses --      1.3164                 1.4165                 1.0785
 Frc consts  --      1.7107                 1.8433                 1.4211
 IR Inten    --      2.2902                13.8225                 9.9668

                     40                     41                     42
                      A                      A                      A
 Frequencies --   1519.0447              2372.4536              2943.9027
 Red. masses --      1.1141                11.8505                 1.0583
 Frc consts  --      1.5147                39.2991                 5.4041
 IR Inten    --      1.2118                13.8297                35.6517

                     43                     44                     45
                      A                      A                      A
 Frequencies --   2969.6965              2988.5918              3013.5909
 Red. masses --      1.0402                 1.0972                 1.1029
 Frc consts  --      5.4050                 5.7737                 5.9014
 IR Inten    --     76.8644                45.7279                54.0600

                     46                     47                     48
                      A                      A                      A
 Frequencies --   3028.8724              3090.1410              3092.6253
 Red. masses --      1.0347                 1.1003                 1.1001
 Frc consts  --      5.5927                 6.1903                 6.1992
 IR Inten    --     28.3632                 9.0068                 8.1401

                     49                     50                     51
                      A                      A                      A
 Frequencies --   3100.2870              3118.0739              3125.6411
 Red. masses --      1.0859                 1.0957                 1.0875
 Frc consts  --      6.1494                 6.2767                 6.2599
 IR Inten    --     18.0117                28.3605                19.7666

 - Thermochemistry -
 -------------------
 Temperature   298.150 Kelvin.  Pressure   1.00000 Atm.
 Atom     1 has atomic number  6 and mass  12.00000

 Molecular mass:   126.06808 amu.
 Principal axes and moments of inertia in atomic units:
                           1         2         3
     Eigenvalues --   251.793273429.068473503.12444
           X            0.99996   0.00196   0.00915
           Y           -0.00284   0.99532   0.09659
           Z           -0.00892  -0.09661   0.99528
 This molecule is an asymmetric top.
 Rotational symmetry number  1.
 Rotational temperatures (Kelvin)      0.34399     0.02526     0.02472
 Rotational constants (GHZ):           7.16755     0.52631     0.51518
 Zero-point vibrational energy     408334.1 (Joules/Mol)
                                   97.59418 (Kcal/Mol)
 Warning -- explicit consideration of  14 degrees of freedom as
           vibrations may cause significant error
 Vibrational temperatures:     30.81    71.78   104.84   149.93   162.82
          (Kelvin)            241.50   332.24   387.68   450.63   503.55
                              541.73   624.40   741.00   844.26  1104.34
                             1195.16  1312.37  1417.07  1439.55  1511.02
                             1515.83  1541.50  1612.02  1647.71  1677.03
                             1701.70  1708.57  1767.91  1820.42  1833.84
                             1932.32  2027.04  2034.25  2120.16  2122.93
                             2125.30  2136.78  2138.26  2151.69  2185.56
                             3413.43  4235.61  4272.73  4299.91  4335.88
                             4357.87  4446.02  4449.59  4460.62  4486.21
                             4497.09

 Zero-point correction=                           0.155526 (Hartree/Particle)
 Thermal correction to Energy=                    0.166230
 Thermal correction to Enthalpy=                  0.167174
 Thermal correction to Gibbs Free Energy=         0.117392
 Sum of electronic and zero-point Energies=           -422.965055
 Sum of electronic and thermal Energies=              -422.954351
 Sum of electronic and thermal Enthalpies=            -422.953407
 Sum of electronic and thermal Free Energies=         -423.003189

                     E (Thermal)             CV                S
                      KCal/Mol        Cal/Mol-Kelvin    Cal/Mol-Kelvin
 Total                  104.311             35.676            104.775
 Electronic               0.000              0.000              0.000
 Translational            0.889              2.981             40.409
 Rotational               0.889              2.981             29.493
 Vibrational            102.533             29.714             34.873
 Vibration     1          0.593              1.985              6.498
 Vibration     2          0.595              1.978              4.822
 Vibration     3          0.599              1.967              4.074
 Vibration     4          0.605              1.946              3.374
 Vibration     5          0.607              1.939              3.214
 Vibration     6          0.625              1.882              2.459
 Vibration     7          0.653              1.794              1.872
 Vibration     8          0.674              1.729              1.600
 Vibration     9          0.701              1.648              1.345
 Vibration    10          0.727              1.575              1.166
 Vibration    11          0.747              1.520              1.053
 Vibration    12          0.795              1.396              0.846
 Vibration    13          0.870              1.217              0.622
 Vibration    14          0.944              1.060              0.473

 Optimization completed on the basis of negligible forces.
    -- Stationary point found.
 Normal termination of Gaussian 09 at Tue Jan 28 14:55:04 2020.
