 Gaussian 09, Revision D.01,
 Gaussian 09:  ES64L-G09RevD.01 24-Apr-2013

 -----------------------------
 # b3lyp 6-31G(2df,p) opt Freq
 -----------------------------

 -----
 titel
 -----
 Symbolic Z-matrix:
 Charge =  0 Multiplicity = 1

 SCF Done:  E(RB3LYP) =  -423.153166299     A.U. after   12 cycles
 Optimization completed.
    -- Stationary point found.
 Normal termination of Gaussian 09 at Mon Jan 27 23:06:00 2020.

 ----------------------------------------------------------------------
 #N Geom=AllCheck Guess=TCheck SCRF=Check GenChk RB3LYP/6-31G(2df,p) Fr
 eq
 ----------------------------------------------------------------------

 Structure from the checkpoint file:  "/scratch/puck/g09_493d26bf-3603-431d-9ebc-4985dc810ae8/Gau-49634.chk"
 -----
 titel
 -----
 Charge =  0 Multiplicity = 1

                         Standard orientation:
 ---------------------------------------------------------------------
 Center     Atomic      Atomic             Coordinates (Angstroms)
 Number     Number       Type             X           Y           Z
 ---------------------------------------------------------------------
      1          8           0        0.202730    2.193582    0.091976
      2          6           0       -0.068282    0.946215   -0.533005
      3          6           0       -1.503278    0.505375   -0.287309
      4          6           0       -1.870594   -0.925727   -0.647327
      5          6           0       -1.406903   -0.590433    0.741935
      6          8           0       -0.057276   -0.823957    1.069662
      7          6           0        0.732421   -0.215229    0.061361
      8          6           0        1.635949   -1.090422   -0.767535
      9          6           0        2.202776   -0.163191    0.292989
     10          1           0        0.084446    2.070442    1.040836
     11          1           0        0.170516    1.097386   -1.589188
     12          1           0       -2.264623    1.275486   -0.271411
     13          1           0       -2.926550   -1.135352   -0.779586
     14          1           0       -1.212977   -1.493102   -1.296360
     15          1           0       -2.057934   -0.693246    1.601232
     16          1           0        1.625575   -2.150955   -0.541846
     17          1           0        1.788702   -0.842746   -1.813282
     18          1           0        2.569438   -0.618362    1.206108
     19          1           0        2.727249    0.733919   -0.016262
 ---------------------------------------------------------------------

 SCF Done:  E(RB3LYP) =  -423.153166299     A.U. after    1 cycles

 The electronic state is 1-A.
 Alpha  occ. eigenvalues --  -19.14892 -19.13559 -10.23808 -10.23774 -10.23711
 Alpha  occ. eigenvalues --  -10.19050 -10.18812 -10.18551 -10.18514  -1.05538
 Alpha  occ. eigenvalues --   -1.01465  -0.86025  -0.84079  -0.70992  -0.62081
 Alpha  occ. eigenvalues --   -0.60750  -0.58950  -0.56228  -0.52558  -0.49605
 Alpha  occ. eigenvalues --   -0.47615  -0.46429  -0.44436  -0.40206  -0.39523
 Alpha  occ. eigenvalues --   -0.38529  -0.38191  -0.36485  -0.33102  -0.30627
 Alpha  occ. eigenvalues --   -0.29800  -0.28818  -0.27059  -0.22381
 Alpha virt. eigenvalues --    0.08152   0.09296   0.09440   0.10880   0.11645
 Alpha virt. eigenvalues --    0.13817   0.15176   0.15813   0.16595   0.17016
 Alpha virt. eigenvalues --    0.17774   0.20108   0.20695   0.22628   0.23288

 Mulliken charges:
               1
     1  O   -0.431038
     2  C    0.054554
     3  C   -0.114781
     4  C   -0.333568
     5  C    0.097802
     6  O   -0.294727
     7  C    0.385288
     8  C   -0.327085
     9  C   -0.343872
    10  H    0.284502
    11  H    0.093412
    12  H    0.098098
    13  H    0.114465
    14  H    0.126478
    15  H    0.102368
    16  H    0.121287
    17  H    0.113120
    18  H    0.125193
    19  H    0.128505
 Sum of Mulliken charges =   0.00000

 Dipole moment (field-independent basis, Debye):
    X=             -0.8008    Y=             -0.5431    Z=             -0.1207  Tot=              0.9751
 Quadrupole moment (field-independent basis, Debye-Ang):
   XX=            -49.6515   YY=            -57.4924   ZZ=            -51.3922
   XY=             -0.4486   XZ=             -1.0118   YZ=              2.9484

  Exact polarizability:  84.211   1.303  71.490   0.168   2.633  67.197
 Approx polarizability: 109.750   2.501 106.704   0.411   2.322 106.526

                      1                      2                      3
                      A                      A                      A
 Frequencies --     92.6699               196.0991               225.3909
 Red. masses --      4.2147                 3.4107                 2.3247
 Frc consts  --      0.0213                 0.0773                 0.0696
 IR Inten    --      3.2178                 0.9214                 1.4904

                      4                      5                      6
                      A                      A                      A
 Frequencies --    277.4892               303.2708               366.7673
 Red. masses --      2.8084                 1.2889                 2.2588
 Frc consts  --      0.1274                 0.0698                 0.1790
 IR Inten    --      0.3473                49.1195                47.8437

                      7                      8                      9
                      A                      A                      A
 Frequencies --    406.5447               451.3821               531.2449
 Red. masses --      3.4065                 3.1916                 4.3835
 Frc consts  --      0.3317                 0.3831                 0.7289
 IR Inten    --      2.4754                 4.7581                 1.0011

                     10                     11                     12
                      A                      A                      A
 Frequencies --    586.0974               708.3612               766.4869
 Red. masses --      3.3729                 3.0952                 1.1640
 Frc consts  --      0.6826                 0.9151                 0.4029
 IR Inten    --      3.7494                 0.7501                 5.1075

                     13                     14                     15
                      A                      A                      A
 Frequencies --    793.2667               805.9430               822.1090
 Red. masses --      2.2123                 1.6373                 3.0561
 Frc consts  --      0.8202                 0.6266                 1.2170
 IR Inten    --     19.5925                 6.7071                34.2244

                     16                     17                     18
                      A                      A                      A
 Frequencies --    884.1319               899.0622               907.5557
 Red. masses --      1.7796                 2.3170                 1.3353
 Frc consts  --      0.8196                 1.1035                 0.6480
 IR Inten    --      6.7901                17.6708                 2.6677

                     19                     20                     21
                      A                      A                      A
 Frequencies --    959.0627               991.5275               995.0110
 Red. masses --      2.5077                 3.7870                 2.5401
 Frc consts  --      1.3590                 2.1936                 1.4817
 IR Inten    --     10.1123                 8.7213                 9.0904

                     22                     23                     24
                      A                      A                      A
 Frequencies --   1019.8013              1050.1962              1059.4976
 Red. masses --      2.0422                 1.5177                 1.7230
 Frc consts  --      1.2514                 0.9862                 1.1396
 IR Inten    --      7.7586                20.9092                17.7413

                     25                     26                     27
                      A                      A                      A
 Frequencies --   1068.9133              1073.2205              1092.3344
 Red. masses --      1.8087                 1.4563                 1.8566
 Frc consts  --      1.2176                 0.9883                 1.3052
 IR Inten    --     27.3654                 2.3014                58.4073

                     28                     29                     30
                      A                      A                      A
 Frequencies --   1099.5557              1156.8276              1187.2005
 Red. masses --      1.3716                 2.4578                 1.6278
 Frc consts  --      0.9771                 1.9379                 1.3518
 IR Inten    --     16.6556                75.3644                 4.7594

                     31                     32                     33
                      A                      A                      A
 Frequencies --   1190.0396              1236.8791              1254.3157
 Red. masses --      1.3111                 2.6346                 1.4916
 Frc consts  --      1.0940                 2.3748                 1.3827
 IR Inten    --      1.1082                60.2067                 9.1943

                     34                     35                     36
                      A                      A                      A
 Frequencies --   1275.3780              1336.4747              1366.3448
 Red. masses --      1.3525                 1.8770                 2.3494
 Frc consts  --      1.2961                 1.9753                 2.5843
 IR Inten    --     19.5622                 2.0116                 9.9355

                     37                     38                     39
                      A                      A                      A
 Frequencies --   1381.9428              1431.9422              1452.9717
 Red. masses --      1.6563                 1.2758                 1.0916
 Frc consts  --      1.8636                 1.5413                 1.3577
 IR Inten    --     12.3838                55.8674                 3.3737

                     40                     41                     42
                      A                      A                      A
 Frequencies --   1474.1701              1497.3794              3079.7686
 Red. masses --      1.2757                 1.5487                 1.0864
 Frc consts  --      1.6334                 2.0459                 6.0712
 IR Inten    --     11.2523                 8.9906                22.3186

                     43                     44                     45
                      A                      A                      A
 Frequencies --   3126.7539              3135.6900              3139.2872
 Red. masses --      1.0535                 1.0540                 1.0547
 Frc consts  --      6.0686                 6.1058                 6.1242
 IR Inten    --     11.1404                 9.3248                 6.4836

                     46                     47                     48
                      A                      A                      A
 Frequencies --   3186.0853              3194.3896              3215.7553
 Red. masses --      1.0892                 1.0965                 1.1182
 Frc consts  --      6.5143                 6.5926                 6.8128
 IR Inten    --     10.3359                13.8009                 1.9710

                     49                     50                     51
                      A                      A                      A
 Frequencies --   3224.0616              3232.4173              3799.7454
 Red. masses --      1.1153                 1.1161                 1.0659
 Frc consts  --      6.8304                 6.8705                 9.0669
 IR Inten    --      9.8160                 6.5470                19.0709

 - Thermochemistry -
 -------------------
 Temperature   298.150 Kelvin.  Pressure   1.00000 Atm.
 Atom     1 has atomic number  8 and mass  15.99491

 Molecular mass:   126.06808 amu.
 Principal axes and moments of inertia in atomic units:
                           1         2         3
     Eigenvalues --   731.964071021.786081353.10327
           X            0.99998  -0.00682  -0.00064
           Y            0.00684   0.99917   0.04005
           Z            0.00036  -0.04005   0.99920
 This molecule is an asymmetric top.
 Rotational symmetry number  1.
 Warning -- assumption of classical behavior for rotation
           may cause significant error
 Rotational temperatures (Kelvin)      0.11833     0.08477     0.06401
 Rotational constants (GHZ):           2.46561     1.76626     1.33378
 Zero-point vibrational energy     418745.7 (Joules/Mol)
                                  100.08262 (Kcal/Mol)
 Warning -- explicit consideration of  10 degrees of freedom as
           vibrations may cause significant error
 Vibrational temperatures:    133.33   282.14   324.29   399.24   436.34
          (Kelvin)            527.70   584.93   649.44   764.34   843.26
                             1019.17  1102.80  1141.33  1159.57  1182.83
                             1272.07  1293.55  1305.77  1379.88  1426.59
                             1431.60  1467.26  1511.00  1524.38  1537.93
                             1544.12  1571.62  1582.01  1664.41  1708.11
                             1712.20  1779.59  1804.68  1834.98  1922.89
                             1965.86  1988.30  2060.24  2090.50  2121.00
                             2154.39  4431.09  4498.70  4511.55  4516.73
                             4584.06  4596.01  4626.75  4638.70  4650.72
                             5466.98

 Zero-point correction=                           0.159492 (Hartree/Particle)
 Thermal correction to Energy=                    0.167360
 Thermal correction to Enthalpy=                  0.168305
 Thermal correction to Gibbs Free Energy=         0.127418
 Sum of electronic and zero-point Energies=           -422.993674
 Sum of electronic and thermal Energies=              -422.985806
 Sum of electronic and thermal Enthalpies=            -422.984862
 Sum of electronic and thermal Free Energies=         -423.025749

                     E (Thermal)             CV                S
                      KCal/Mol        Cal/Mol-Kelvin    Cal/Mol-Kelvin
 Total                  105.020             31.743             86.054
 Electronic               0.000              0.000              0.000
 Translational            0.889              2.981             40.409
 Rotational               0.889              2.981             28.405
 Vibrational            103.243             25.781             17.240
 Vibration     1          0.602              1.954              3.603
 Vibration     2          0.636              1.845              2.169
 Vibration     3          0.650              1.802              1.915
 Vibration     4          0.678              1.715              1.549
 Vibration     5          0.695              1.668              1.399
 Vibration     6          0.740              1.541              1.093
 Vibration     7          0.771              1.456              0.939
 Vibration     8          0.810              1.358              0.792
 Vibration     9          0.886              1.181              0.584
 Vibration    10          0.943              1.061              0.474

 Normal termination of Gaussian 09 at Mon Jan 27 23:57:27 2020.
