 Gaussian 09, Revision D.01,
 Gaussian 09:  ES64L-G09RevD.01 24-Apr-2013

 -----------------------------
 # b3lyp 6-31G(2df,p) opt Freq
 -----------------------------

 -----
 titel
 -----
 Symbolic Z-matrix:
 Charge =  0 Multiplicity = 1

 SCF Done:  E(RB3LYP) =  -423.119641949     A.U. after   14 cycles
 Optimization completed.
    -- Stationary point found.
 Normal termination of Gaussian 09 at Tue Jan 28 08:56:39 2020.

 ----------------------------------------------------------------------
 #N Geom=AllCheck Guess=TCheck SCRF=Check GenChk RB3LYP/6-31G(2df,p) Fr
 eq
 ----------------------------------------------------------------------

 Structure from the checkpoint file:  "/scratch/puck/g09_befa17e6-cc22-44bf-89c8-483638e82275/Gau-187739.chk"
 -----
 titel
 -----
 Charge =  0 Multiplicity = 1

                         Standard orientation:
 ---------------------------------------------------------------------
 Center     Atomic      Atomic             Coordinates (Angstroms)
 Number     Number       Type             X           Y           Z
 ---------------------------------------------------------------------
      1          6           0       -1.309035   -0.452149    1.585947
      2          6           0       -0.535063   -0.237875    0.292596
      3          6           0       -0.767362    1.155209   -0.302846
      4          8           0       -2.111149    1.339354   -0.725111
      5          6           0       -0.633430   -1.339218   -0.787286
      6          8           0        0.805820   -1.453184   -0.868037
      7          6           0        0.976952   -0.646030    0.320420
      8          6           0        2.006169    0.372680    0.203816
      9          6           0        2.861868    1.214054    0.129395
     10          1           0       -1.012824    0.276757    2.349479
     11          1           0       -2.387174   -0.349917    1.419208
     12          1           0       -1.138059   -1.453629    1.992515
     13          1           0       -0.458383    1.928977    0.415047
     14          1           0       -0.150262    1.277542   -1.197379
     15          1           0       -2.656522    1.478185    0.054490
     16          1           0       -1.094780   -2.274687   -0.443303
     17          1           0       -1.080884   -1.043178   -1.740831
     18          1           0        1.201592   -1.284525    1.188322
     19          1           0        3.619334    1.955089    0.055383
 ---------------------------------------------------------------------

 SCF Done:  E(RB3LYP) =  -423.119641949     A.U. after    1 cycles

 The electronic state is 1-A.
 Alpha  occ. eigenvalues --  -19.14242 -19.13796 -10.25780 -10.22973 -10.22788
 Alpha  occ. eigenvalues --  -10.20637 -10.19034 -10.18702 -10.18345  -1.04380
 Alpha  occ. eigenvalues --   -1.02182  -0.80343  -0.76730  -0.69652  -0.69466
 Alpha  occ. eigenvalues --   -0.65690  -0.57053  -0.53496  -0.51150  -0.50014
 Alpha  occ. eigenvalues --   -0.48239  -0.45902  -0.42870  -0.42102  -0.41439
 Alpha  occ. eigenvalues --   -0.40413  -0.37875  -0.34359  -0.32891  -0.31094
 Alpha  occ. eigenvalues --   -0.28351  -0.27622  -0.27100  -0.24930
 Alpha virt. eigenvalues --    0.01760   0.04436   0.06048   0.10745   0.11703
 Alpha virt. eigenvalues --    0.12247   0.13250   0.13486   0.14465   0.15324
 Alpha virt. eigenvalues --    0.16101   0.17304   0.18842   0.20261   0.21391

 Mulliken charges:
               1
     1  C   -0.486773
     2  C    0.247013
     3  C   -0.129155
     4  O   -0.423616
     5  C   -0.105545
     6  O   -0.286242
     7  C   -0.093557
     8  C    0.325139
     9  C   -0.437614
    10  H    0.122882
    11  H    0.117055
    12  H    0.124947
    13  H    0.096184
    14  H    0.128339
    15  H    0.286650
    16  H    0.093640
    17  H    0.122526
    18  H    0.095906
    19  H    0.202221
 Sum of Mulliken charges =   0.00000

 Dipole moment (field-independent basis, Debye):
    X=             -1.0311    Y=              0.8320    Z=              2.4315  Tot=              2.7691
 Quadrupole moment (field-independent basis, Debye-Ang):
   XX=            -50.7099   YY=            -52.6203   ZZ=            -54.9063
   XY=              4.9490   XZ=             -2.1904   YZ=              0.0705

  Exact polarizability:  90.890  14.214  76.144  -0.090  -0.336  64.764
 Approx polarizability: 128.083  25.277 115.613   0.280   0.244  95.876

                      1                      2                      3
                      A                      A                      A
 Frequencies --     66.4841               112.4304               126.8996
 Red. masses --      3.7127                 2.8704                 4.1554
 Frc consts  --      0.0097                 0.0214                 0.0394
 IR Inten    --      1.3609                 2.1546                 1.0826

                      4                      5                      6
                      A                      A                      A
 Frequencies --    178.8316               225.3822               241.4868
 Red. masses --      3.3208                 1.1399                 4.2256
 Frc consts  --      0.0626                 0.0341                 0.1452
 IR Inten    --      2.8332                 6.4330                10.0588

                      7                      8                      9
                      A                      A                      A
 Frequencies --    282.0672               311.5767               349.8928
 Red. masses --      1.6202                 1.6620                 2.4172
 Frc consts  --      0.0759                 0.0951                 0.1744
 IR Inten    --     70.1394                22.8665                 7.5902

                     10                     11                     12
                      A                      A                      A
 Frequencies --    362.0189               447.7108               527.7824
 Red. masses --      2.5814                 3.1599                 6.7280
 Frc consts  --      0.1993                 0.3732                 1.1042
 IR Inten    --      1.3994                 4.1654                 1.4233

                     13                     14                     15
                      A                      A                      A
 Frequencies --    574.9041               624.5951               675.1031
 Red. masses --      4.5892                 1.2419                 1.2725
 Frc consts  --      0.8937                 0.2855                 0.3417
 IR Inten    --      1.5539                42.2992                34.4167

                     16                     17                     18
                      A                      A                      A
 Frequencies --    689.6153               805.5973               874.2738
 Red. masses --      3.7562                 3.8591                 2.1530
 Frc consts  --      1.0525                 1.4756                 0.9696
 IR Inten    --      3.8893                 7.3125                 5.0768

                     19                     20                     21
                      A                      A                      A
 Frequencies --    931.9157               966.5909               982.4911
 Red. masses --      1.4128                 2.5571                 2.5078
 Frc consts  --      0.7229                 1.4076                 1.4262
 IR Inten    --      5.8763                29.6657                10.2073

                     22                     23                     24
                      A                      A                      A
 Frequencies --    997.6394              1011.9195              1062.6001
 Red. masses --      1.6166                 8.3474                 3.5054
 Frc consts  --      0.9480                 5.0361                 2.3320
 IR Inten    --     13.7854                92.8460                19.3473

                     25                     26                     27
                      A                      A                      A
 Frequencies --   1073.2395              1147.3884              1154.4440
 Red. masses --      4.9638                 1.3911                 1.2382
 Frc consts  --      3.3686                 1.0790                 0.9723
 IR Inten    --    100.4428                12.8965                 5.5833

                     28                     29                     30
                      A                      A                      A
 Frequencies --   1166.8728              1216.7582              1282.6590
 Red. masses --      2.5533                 1.5061                 1.9006
 Frc consts  --      2.0483                 1.3137                 1.8424
 IR Inten    --      2.0388                 7.8995                 3.9124

                     31                     32                     33
                      A                      A                      A
 Frequencies --   1293.5864              1353.5482              1371.6619
 Red. masses --      1.5185                 1.5581                 1.4794
 Frc consts  --      1.4972                 1.6818                 1.6399
 IR Inten    --     18.4636                 7.0373                13.6476

                     34                     35                     36
                      A                      A                      A
 Frequencies --   1387.0957              1406.8445              1421.0952
 Red. masses --      1.3728                 1.2178                 1.2455
 Frc consts  --      1.5562                 1.4201                 1.4820
 IR Inten    --      5.1882                10.3778                17.5730

                     37                     38                     39
                      A                      A                      A
 Frequencies --   1490.8408              1497.5738              1505.2179
 Red. masses --      1.0592                 1.0709                 1.0572
 Frc consts  --      1.3870                 1.4151                 1.4113
 IR Inten    --      4.2008                 0.5958                 7.5070

                     40                     41                     42
                      A                      A                      A
 Frequencies --   1530.7181              2232.0089              2981.2970
 Red. masses --      1.0983                 5.9319                 1.0816
 Frc consts  --      1.5162                17.4116                 5.6641
 IR Inten    --      1.9521                 2.3316                33.7451

                     43                     44                     45
                      A                      A                      A
 Frequencies --   3001.0428              3010.3976              3025.9166
 Red. masses --      1.0681                 1.0634                 1.0372
 Frc consts  --      5.6679                 5.6781                 5.5952
 IR Inten    --     49.6101                53.0058                27.8342

                     46                     47                     48
                      A                      A                      A
 Frequencies --   3082.5884              3090.3567              3094.1910
 Red. masses --      1.1014                 1.1007                 1.0959
 Frc consts  --      6.1662                 6.1935                 6.1815
 IR Inten    --     21.3364                20.8506                23.0570

                     49                     50                     51
                      A                      A                      A
 Frequencies --   3101.0680              3500.7833              3833.0720
 Red. masses --      1.1006                 1.1621                 1.0662
 Frc consts  --      6.2360                 8.3911                 9.2300
 IR Inten    --     23.6630                66.1524                21.3957

 - Thermochemistry -
 -------------------
 Temperature   298.150 Kelvin.  Pressure   1.00000 Atm.
 Atom     1 has atomic number  6 and mass  12.00000

 Molecular mass:   126.06808 amu.
 Principal axes and moments of inertia in atomic units:
                           1         2         3
     Eigenvalues --   817.174481385.355531632.85848
           X            0.99906   0.03858  -0.01976
           Y           -0.03916   0.99879  -0.02985
           Z            0.01858   0.03060   0.99936
 This molecule is an asymmetric top.
 Rotational symmetry number  1.
 Warning -- assumption of classical behavior for rotation
           may cause significant error
 Rotational temperatures (Kelvin)      0.10599     0.06252     0.05304
 Rotational constants (GHZ):           2.20851     1.30273     1.10526
 Zero-point vibrational energy     410810.0 (Joules/Mol)
                                   98.18596 (Kcal/Mol)
 Warning -- explicit consideration of  13 degrees of freedom as
           vibrations may cause significant error
 Vibrational temperatures:     95.66   161.76   182.58   257.30   324.27
          (Kelvin)            347.45   405.83   448.29   503.42   520.86
                              644.16   759.36   827.16   898.65   971.32
                              992.20  1159.07  1257.88  1340.82  1390.71
                             1413.58  1435.38  1455.92  1528.84  1544.15
                             1650.83  1660.99  1678.87  1750.64  1845.46
                             1861.18  1947.45  1973.51  1995.72  2024.13
                             2044.64  2144.98  2154.67  2165.67  2202.36
                             3211.36  4289.42  4317.83  4331.29  4353.61
                             4435.15  4446.33  4451.85  4461.74  5036.84
                             5514.93

 Zero-point correction=                           0.156469 (Hartree/Particle)
 Thermal correction to Energy=                    0.166255
 Thermal correction to Enthalpy=                  0.167200
 Thermal correction to Gibbs Free Energy=         0.121851
 Sum of electronic and zero-point Energies=           -422.963173
 Sum of electronic and thermal Energies=              -422.953387
 Sum of electronic and thermal Enthalpies=            -422.952442
 Sum of electronic and thermal Free Energies=         -422.997791

                     E (Thermal)             CV                S
                      KCal/Mol        Cal/Mol-Kelvin    Cal/Mol-Kelvin
 Total                  104.327             35.946             95.444
 Electronic               0.000              0.000              0.000
 Translational            0.889              2.981             40.409
 Rotational               0.889              2.981             29.004
 Vibrational            102.549             29.984             26.031
 Vibration     1          0.598              1.970              4.255
 Vibration     2          0.607              1.939              3.227
 Vibration     3          0.611              1.926              2.993
 Vibration     4          0.629              1.868              2.341
 Vibration     5          0.650              1.802              1.915
 Vibration     6          0.658              1.777              1.792
 Vibration     7          0.681              1.707              1.521
 Vibration     8          0.700              1.652              1.354
 Vibration     9          0.727              1.575              1.167
 Vibration    10          0.736              1.550              1.113
 Vibration    11          0.807              1.366              0.803
 Vibration    12          0.883              1.189              0.592
 Vibration    13          0.931              1.086              0.495

 Normal termination of Gaussian 09 at Tue Jan 28 09:30:19 2020.
