 Gaussian 09, Revision D.01,
 Gaussian 09:  ES64L-G09RevD.01 24-Apr-2013

 -----------------------------
 # b3lyp 6-31G(2df,p) opt Freq
 -----------------------------

 -----
 titel
 -----
 Symbolic Z-matrix:
 Charge =  0 Multiplicity = 1

 SCF Done:  E(RB3LYP) =  -423.173344134     A.U. after   14 cycles
 Optimization completed.
    -- Stationary point found.
 Normal termination of Gaussian 09 at Tue Jan 28 02:44:17 2020.

 ----------------------------------------------------------------------
 #N Geom=AllCheck Guess=TCheck SCRF=Check GenChk RB3LYP/6-31G(2df,p) Fr
 eq
 ----------------------------------------------------------------------

 Structure from the checkpoint file:  "/scratch/puck/g09_0d77be07-0bf1-4083-88cb-3d8a505b0b4b/Gau-77614.chk"
 -----
 titel
 -----
 Charge =  0 Multiplicity = 1

                         Standard orientation:
 ---------------------------------------------------------------------
 Center     Atomic      Atomic             Coordinates (Angstroms)
 Number     Number       Type             X           Y           Z
 ---------------------------------------------------------------------
      1          6           0        0.621987    2.068015   -0.636788
      2          6           0        0.554198    0.711075    0.004469
      3          6           0        0.146017    0.483712    1.416133
      4          6           0       -0.688697   -0.193866    0.346022
      5          6           0        0.039131   -1.432728   -0.165082
      6          6           0        1.263033   -0.530436   -0.541761
      7          8           0        2.500665   -0.772320    0.091266
      8          6           0       -2.093698    0.134995    0.105822
      9          8           0       -2.884856   -0.594014   -0.448854
     10          1           0        0.436938    2.014416   -1.714882
     11          1           0       -0.106017    2.759186   -0.202034
     12          1           0        1.618073    2.502414   -0.490242
     13          1           0        0.740174   -0.142725    2.074956
     14          1           0       -0.321724    1.335459    1.902175
     15          1           0        0.245466   -2.198802    0.588513
     16          1           0       -0.450017   -1.889486   -1.026813
     17          1           0        1.381555   -0.461659   -1.631731
     18          1           0        2.875920   -1.578492   -0.277691
     19          1           0       -2.398659    1.145760    0.465574
 ---------------------------------------------------------------------

 SCF Done:  E(RB3LYP) =  -423.173344134     A.U. after    1 cycles

 The electronic state is 1-A.
 Alpha  occ. eigenvalues --  -19.14502 -19.12572 -10.26236 -10.24409 -10.21690
 Alpha  occ. eigenvalues --  -10.20734 -10.20212 -10.19109 -10.18735  -1.03284
 Alpha  occ. eigenvalues --   -1.02863  -0.90861  -0.74630  -0.73115  -0.67450
 Alpha  occ. eigenvalues --   -0.62636  -0.57658  -0.52417  -0.51072  -0.49038
 Alpha  occ. eigenvalues --   -0.47633  -0.43241  -0.42886  -0.41656  -0.41126
 Alpha  occ. eigenvalues --   -0.39915  -0.39051  -0.37520  -0.36299  -0.33346
 Alpha  occ. eigenvalues --   -0.29849  -0.27729  -0.26203  -0.24197
 Alpha virt. eigenvalues --   -0.01944   0.06838   0.09397   0.11302   0.11567
 Alpha virt. eigenvalues --    0.11909   0.12991   0.13632   0.15589   0.16761
 Alpha virt. eigenvalues --    0.17348   0.18307   0.19336   0.20371   0.22474

 Mulliken charges:
               1
     1  C   -0.501881
     2  C    0.301751
     3  C   -0.376628
     4  C    0.223494
     5  C   -0.341496
     6  C    0.064003
     7  O   -0.434656
     8  C    0.053821
     9  O   -0.273461
    10  H    0.125256
    11  H    0.123937
    12  H    0.137747
    13  H    0.131744
    14  H    0.120262
    15  H    0.101276
    16  H    0.123555
    17  H    0.074546
    18  H    0.287164
    19  H    0.059566
 Sum of Mulliken charges =   0.00000

 Dipole moment (field-independent basis, Debye):
    X=              2.4978    Y=              0.6121    Z=              0.0114  Tot=              2.5718
 Quadrupole moment (field-independent basis, Debye-Ang):
   XX=            -63.5014   YY=            -48.9188   ZZ=            -51.6561
   XY=             -7.0639   XZ=             -5.2971   YZ=              0.9076

  Exact polarizability:  89.061   1.096  78.713   1.374   3.231  67.189
 Approx polarizability: 133.360  10.066 113.518   7.803   8.321 104.340

                      1                      2                      3
                      A                      A                      A
 Frequencies --     89.2278               123.2642               171.1340
 Red. masses --      5.4206                 3.2325                 3.6234
 Frc consts  --      0.0254                 0.0289                 0.0625
 IR Inten    --      3.4105                 2.5497                 9.4992

                      4                      5                      6
                      A                      A                      A
 Frequencies --    189.5891               220.5569               279.8896
 Red. masses --      1.1297                 2.3322                 1.2257
 Frc consts  --      0.0239                 0.0668                 0.0566
 IR Inten    --      3.1249                 2.2271                80.6093

                      7                      8                      9
                      A                      A                      A
 Frequencies --    293.5775               318.9606               403.1131
 Red. masses --      2.6297                 2.4750                 3.0085
 Frc consts  --      0.1335                 0.1484                 0.2880
 IR Inten    --     16.3589                 3.8531                11.2142

                     10                     11                     12
                      A                      A                      A
 Frequencies --    437.3066               478.8033               564.4360
 Red. masses --      2.0471                 3.9203                 2.9120
 Frc consts  --      0.2307                 0.5295                 0.5466
 IR Inten    --      3.4630                 3.5909                 3.0913

                     13                     14                     15
                      A                      A                      A
 Frequencies --    624.0940               698.8722               780.6631
 Red. masses --      3.9544                 3.7232                 3.6433
 Frc consts  --      0.9075                 1.0714                 1.3082
 IR Inten    --     21.7051                 2.9960                 9.8333

                     16                     17                     18
                      A                      A                      A
 Frequencies --    797.3315               853.9767               960.2857
 Red. masses --      3.5858                 2.1287                 1.4496
 Frc consts  --      1.3431                 0.9146                 0.7876
 IR Inten    --      7.6244                 4.6295                 4.2899

                     19                     20                     21
                      A                      A                      A
 Frequencies --    968.2534               978.7688              1003.0440
 Red. masses --      1.7339                 1.3468                 2.1379
 Frc consts  --      0.9577                 0.7602                 1.2673
 IR Inten    --     59.6137                 2.7752                 0.6979

                     22                     23                     24
                      A                      A                      A
 Frequencies --   1039.4478              1072.5247              1086.4983
 Red. masses --      1.7832                 1.3679                 1.9481
 Frc consts  --      1.1351                 0.9271                 1.3550
 IR Inten    --      1.5986                12.9491               107.9037

                     25                     26                     27
                      A                      A                      A
 Frequencies --   1103.2867              1150.1872              1161.5738
 Red. masses --      1.7119                 2.4452                 1.8467
 Frc consts  --      1.2278                 1.9059                 1.4680
 IR Inten    --      9.2824                12.0089                 8.7301

                     28                     29                     30
                      A                      A                      A
 Frequencies --   1207.7854              1233.9054              1266.4299
 Red. masses --      1.4145                 1.4705                 2.1102
 Frc consts  --      1.2157                 1.3191                 1.9941
 IR Inten    --      4.3251                20.9223                51.0623

                     31                     32                     33
                      A                      A                      A
 Frequencies --   1300.9162              1362.6687              1381.9094
 Red. masses --      1.7738                 2.1859                 2.1521
 Frc consts  --      1.7687                 2.3914                 2.4214
 IR Inten    --      0.9781                21.0533                31.2482

                     34                     35                     36
                      A                      A                      A
 Frequencies --   1414.7212              1426.7323              1443.7479
 Red. masses --      1.2691                 1.4335                 1.4866
 Frc consts  --      1.4966                 1.7192                 1.8257
 IR Inten    --      5.1078                 1.9039                12.5994

                     37                     38                     39
                      A                      A                      A
 Frequencies --   1476.2886              1485.2114              1496.3981
 Red. masses --      1.1404                 1.0499                 1.0842
 Frc consts  --      1.4644                 1.3644                 1.4303
 IR Inten    --      3.8486                 2.4844                12.2463

                     40                     41                     42
                      A                      A                      A
 Frequencies --   1502.4700              1793.5436              2850.6908
 Red. masses --      1.3819                10.3813                 1.0811
 Frc consts  --      1.8379                19.6755                 5.1762
 IR Inten    --     11.7275               274.3036               110.3181

                     43                     44                     45
                      A                      A                      A
 Frequencies --   3005.5887              3027.5404              3055.8599
 Red. masses --      1.0852                 1.0365                 1.0626
 Frc consts  --      5.7759                 5.5975                 5.8465
 IR Inten    --     43.1359                30.6402                30.3667

                     46                     47                     48
                      A                      A                      A
 Frequencies --   3088.1828              3106.6301              3117.6956
 Red. masses --      1.1002                 1.1003                 1.0546
 Frc consts  --      6.1820                 6.2564                 6.0393
 IR Inten    --     15.2140                15.2405                12.6224

                     49                     50                     51
                      A                      A                      A
 Frequencies --   3128.0548              3203.3640              3814.8251
 Red. masses --      1.1031                 1.1165                 1.0661
 Frc consts  --      6.3593                 6.7502                 9.1409
 IR Inten    --     12.2135                 5.1456                25.3863

 - Thermochemistry -
 -------------------
 Temperature   298.150 Kelvin.  Pressure   1.00000 Atm.
 Atom     1 has atomic number  6 and mass  12.00000

 Molecular mass:   126.06808 amu.
 Principal axes and moments of inertia in atomic units:
                           1         2         3
     Eigenvalues --   677.035671400.771241697.36720
           X            0.99976  -0.01681  -0.01438
           Y            0.01671   0.99984  -0.00695
           Z            0.01449   0.00671   0.99987
 This molecule is an asymmetric top.
 Rotational symmetry number  1.
 Warning -- assumption of classical behavior for rotation
           may cause significant error
 Rotational temperatures (Kelvin)      0.12793     0.06183     0.05103
 Rotational constants (GHZ):           2.66565     1.28839     1.06326
 Zero-point vibrational energy     412949.9 (Joules/Mol)
                                   98.69739 (Kcal/Mol)
 Warning -- explicit consideration of  12 degrees of freedom as
           vibrations may cause significant error
 Vibrational temperatures:    128.38   177.35   246.22   272.78   317.33
          (Kelvin)            402.70   422.39   458.91   579.99   629.19
                              688.89   812.10   897.93  1005.52  1123.20
                             1147.18  1228.68  1381.64  1393.10  1408.23
                             1443.15  1495.53  1543.12  1563.23  1587.38
                             1654.86  1671.24  1737.73  1775.31  1822.11
                             1871.73  1960.57  1988.26  2035.47  2052.75
                             2077.23  2124.05  2136.89  2152.98  2161.72
                             2580.51  4101.50  4324.37  4355.95  4396.70
                             4443.20  4469.74  4485.66  4500.57  4608.92
                             5488.68

 Zero-point correction=                           0.157284 (Hartree/Particle)
 Thermal correction to Energy=                    0.166463
 Thermal correction to Enthalpy=                  0.167407
 Thermal correction to Gibbs Free Energy=         0.123548
 Sum of electronic and zero-point Energies=           -423.016060
 Sum of electronic and thermal Energies=              -423.006881
 Sum of electronic and thermal Enthalpies=            -423.005937
 Sum of electronic and thermal Free Energies=         -423.049796

                     E (Thermal)             CV                S
                      KCal/Mol        Cal/Mol-Kelvin    Cal/Mol-Kelvin
 Total                  104.457             34.245             92.308
 Electronic               0.000              0.000              0.000
 Translational            0.889              2.981             40.409
 Rotational               0.889              2.981             28.867
 Vibrational            102.679             28.283             23.033
 Vibration     1          0.602              1.957              3.677
 Vibration     2          0.610              1.930              3.049
 Vibration     3          0.626              1.878              2.423
 Vibration     4          0.633              1.854              2.232
 Vibration     5          0.647              1.810              1.955
 Vibration     6          0.680              1.711              1.534
 Vibration     7          0.688              1.686              1.453
 Vibration     8          0.705              1.637              1.315
 Vibration     9          0.769              1.463              0.951
 Vibration    10          0.798              1.389              0.835
 Vibration    11          0.835              1.297              0.713
 Vibration    12          0.920              1.108              0.515

 Normal termination of Gaussian 09 at Tue Jan 28 03:27:10 2020.
