 Gaussian 09, Revision D.01,
 Gaussian 09:  ES64L-G09RevD.01 24-Apr-2013

 -----------------------------
 # b3lyp 6-31G(2df,p) opt Freq
 -----------------------------

 -----
 titel
 -----
 Symbolic Z-matrix:
 Charge =  0 Multiplicity = 1

 SCF Done:  E(RB3LYP) =  -423.113801193     A.U. after   12 cycles
 Optimization completed.
    -- Stationary point found.
 Normal termination of Gaussian 09 at Tue Jan 28 09:55:36 2020.

 ----------------------------------------------------------------------
 #N Geom=AllCheck Guess=TCheck SCRF=Check GenChk RB3LYP/6-31G(2df,p) Fr
 eq
 ----------------------------------------------------------------------

 Structure from the checkpoint file:  "/scratch/puck/g09_def45c19-8024-4d49-832c-45c1ccfd6792/Gau-21446.chk"
 -----
 titel
 -----
 Charge =  0 Multiplicity = 1

                         Standard orientation:
 ---------------------------------------------------------------------
 Center     Atomic      Atomic             Coordinates (Angstroms)
 Number     Number       Type             X           Y           Z
 ---------------------------------------------------------------------
      1          6           0        0.356718    2.285252   -0.008154
      2          6           0        0.478811    0.884942   -0.594265
      3          6           0        1.764094    0.143902   -0.210369
      4          6           0        1.358710   -1.336179   -0.177415
      5          8           0       -0.005241   -1.429472   -0.589460
      6          6           0       -0.236868   -0.230053    0.229551
      7          6           0       -1.652131   -0.152443    0.718509
      8          8           0       -2.550356   -0.086190   -0.376188
      9          6           0        1.107610   -0.486545    1.017600
     10          1           0        1.048173    2.976966   -0.500253
     11          1           0       -0.656971    2.676049   -0.143598
     12          1           0        0.588258    2.292190    1.063004
     13          1           0        0.210842    0.880023   -1.656398
     14          1           0        2.791776    0.466739   -0.323471
     15          1           0        2.021523   -2.172449   -0.355471
     16          1           0       -1.862621   -1.016201    1.367932
     17          1           0       -1.800216    0.757194    1.309606
     18          1           0       -2.337482   -0.831707   -0.950062
     19          1           0        1.379832   -0.556771    2.061157
 ---------------------------------------------------------------------

 SCF Done:  E(RB3LYP) =  -423.113801193     A.U. after    1 cycles

 The electronic state is 1-A.
 Alpha  occ. eigenvalues --  -19.13748 -19.13574 -10.24413 -10.24208 -10.23009
 Alpha  occ. eigenvalues --  -10.19642 -10.19611 -10.19137 -10.17694  -1.06327
 Alpha  occ. eigenvalues --   -1.01567  -0.86111  -0.76491  -0.72060  -0.65410
 Alpha  occ. eigenvalues --   -0.62170  -0.56096  -0.53220  -0.52838  -0.48715
 Alpha  occ. eigenvalues --   -0.48236  -0.44141  -0.43462  -0.41126  -0.40104
 Alpha  occ. eigenvalues --   -0.39702  -0.37656  -0.34557  -0.33881  -0.32365
 Alpha  occ. eigenvalues --   -0.29536  -0.27357  -0.26265  -0.23188
 Alpha virt. eigenvalues --    0.06275   0.08990   0.11138   0.11349   0.12364
 Alpha virt. eigenvalues --    0.13589   0.14449   0.14660   0.15919   0.16566
 Alpha virt. eigenvalues --    0.16953   0.18248   0.19095   0.20640   0.21621

 Mulliken charges:
               1
     1  C   -0.417278
     2  C   -0.020219
     3  C   -0.118109
     4  C    0.080061
     5  O   -0.349273
     6  C    0.414869
     7  C   -0.197528
     8  O   -0.418160
     9  C   -0.222194
    10  H    0.116740
    11  H    0.128019
    12  H    0.112864
    13  H    0.075879
    14  H    0.089549
    15  H    0.110209
    16  H    0.098666
    17  H    0.115836
    18  H    0.299708
    19  H    0.100362
 Sum of Mulliken charges =   0.00000

 Dipole moment (field-independent basis, Debye):
    X=              1.9041    Y=              0.0926    Z=              1.0229  Tot=              2.1634
 Quadrupole moment (field-independent basis, Debye-Ang):
   XX=            -54.5683   YY=            -52.9820   ZZ=            -51.6640
   XY=              0.4538   XZ=             -0.4161   YZ=             -0.1793

  Exact polarizability:  78.395  -2.080  76.381  -0.607  -0.683  66.383
 Approx polarizability: 110.136  -1.528 109.466   0.800   1.928 106.264

                      1                      2                      3
                      A                      A                      A
 Frequencies --     76.4894               155.6684               222.3956
 Red. masses --      4.0421                 4.0614                 2.4475
 Frc consts  --      0.0139                 0.0580                 0.0713
 IR Inten    --      3.5066                 0.9874                 0.9275

                      4                      5                      6
                      A                      A                      A
 Frequencies --    226.5189               253.4013               347.8832
 Red. masses --      2.3788                 1.0877                 2.0122
 Frc consts  --      0.0719                 0.0412                 0.1435
 IR Inten    --      0.6306                 0.3971                13.8693

                      7                      8                      9
                      A                      A                      A
 Frequencies --    403.3279               420.1285               505.3038
 Red. masses --      2.9825                 1.4472                 4.5947
 Frc consts  --      0.2859                 0.1505                 0.6912
 IR Inten    --      8.6568               111.6151                 7.0737

                     10                     11                     12
                      A                      A                      A
 Frequencies --    571.2062               692.2679               747.9913
 Red. masses --      3.8017                 3.7244                 2.8364
 Frc consts  --      0.7308                 1.0516                 0.9350
 IR Inten    --      4.1728                15.6985                 0.8391

                     13                     14                     15
                      A                      A                      A
 Frequencies --    774.9163               789.9206               807.1635
 Red. masses --      1.7657                 1.9823                 2.0346
 Frc consts  --      0.6247                 0.7288                 0.7810
 IR Inten    --      2.6471                14.0152                 9.1526

                     16                     17                     18
                      A                      A                      A
 Frequencies --    847.3855               897.4356               939.5365
 Red. masses --      2.8289                 2.3176                 1.4531
 Frc consts  --      1.1968                 1.0997                 0.7557
 IR Inten    --     28.3988                 4.2788                 6.4351

                     19                     20                     21
                      A                      A                      A
 Frequencies --    947.7194               991.1109              1021.7969
 Red. masses --      2.2936                 2.6855                 1.5835
 Frc consts  --      1.2137                 1.5542                 0.9741
 IR Inten    --      2.9676                66.0253                 7.3853

                     22                     23                     24
                      A                      A                      A
 Frequencies --   1028.6817              1048.1614              1062.3929
 Red. masses --      1.8655                 2.3719                 2.7980
 Frc consts  --      1.1631                 1.5353                 1.8607
 IR Inten    --      3.7097                28.7224                43.0498

                     25                     26                     27
                      A                      A                      A
 Frequencies --   1084.7309              1090.5913              1099.0191
 Red. masses --      1.7837                 2.0612                 2.2683
 Frc consts  --      1.2365                 1.4444                 1.6142
 IR Inten    --      3.5185                 6.8340                10.9424

                     28                     29                     30
                      A                      A                      A
 Frequencies --   1133.1289              1182.0691              1218.7439
 Red. masses --      2.6131                 1.7830                 1.1884
 Frc consts  --      1.9768                 1.4679                 1.0400
 IR Inten    --      1.9322                 5.5925                13.5508

                     31                     32                     33
                      A                      A                      A
 Frequencies --   1247.6174              1277.4026              1328.2867
 Red. masses --      1.7643                 1.5681                 2.2799
 Frc consts  --      1.6180                 1.5075                 2.3700
 IR Inten    --      1.3522                10.7613                13.4248

                     34                     35                     36
                      A                      A                      A
 Frequencies --   1350.2808              1366.3503              1384.4180
 Red. masses --      2.4481                 1.7347                 1.4738
 Frc consts  --      2.6298                 1.9081                 1.6643
 IR Inten    --      9.0550                15.1175                10.6479

                     37                     38                     39
                      A                      A                      A
 Frequencies --   1408.6417              1441.1942              1491.6395
 Red. masses --      1.2541                 1.4964                 1.0800
 Frc consts  --      1.4662                 1.8312                 1.4158
 IR Inten    --      2.6115                43.9914                 5.2008

                     40                     41                     42
                      A                      A                      A
 Frequencies --   1497.7471              1503.2461              2989.0132
 Red. masses --      1.0585                 1.0530                 1.0694
 Frc consts  --      1.3990                 1.4020                 5.6291
 IR Inten    --      1.9252                 2.3881                50.1516

                     43                     44                     45
                      A                      A                      A
 Frequencies --   3028.8027              3048.7915              3079.2646
 Red. masses --      1.0351                 1.0844                 1.0928
 Frc consts  --      5.5946                 5.9386                 6.1051
 IR Inten    --     21.7544                23.8251                22.6082

                     46                     47                     48
                      A                      A                      A
 Frequencies --   3096.8365              3101.1442              3191.4788
 Red. masses --      1.1004                 1.1015                 1.0913
 Frc consts  --      6.2181                 6.2416                 6.5490
 IR Inten    --     32.0476                23.0336                12.4483

                     49                     50                     51
                      A                      A                      A
 Frequencies --   3204.4966              3219.6698              3796.3613
 Red. masses --      1.0902                 1.1042                 1.0659
 Frc consts  --      6.5959                 6.7440                 9.0508
 IR Inten    --     12.0984                16.0023                27.7562

 - Thermochemistry -
 -------------------
 Temperature   298.150 Kelvin.  Pressure   1.00000 Atm.
 Atom     1 has atomic number  6 and mass  12.00000

 Molecular mass:   126.06808 amu.
 Principal axes and moments of inertia in atomic units:
                           1         2         3
     Eigenvalues --   733.000531033.734121442.55467
           X            0.99980   0.01838  -0.00801
           Y           -0.01845   0.99980  -0.00829
           Z            0.00786   0.00844   0.99993
 This molecule is an asymmetric top.
 Rotational symmetry number  1.
 Warning -- assumption of classical behavior for rotation
           may cause significant error
 Rotational temperatures (Kelvin)      0.11816     0.08379     0.06004
 Rotational constants (GHZ):           2.46213     1.74585     1.25107
 Zero-point vibrational energy     416538.3 (Joules/Mol)
                                   99.55505 (Kcal/Mol)
 Warning -- explicit consideration of  10 degrees of freedom as
           vibrations may cause significant error
 Vibrational temperatures:    110.05   223.97   319.98   325.91   364.59
          (Kelvin)            500.53   580.30   604.47   727.02   821.84
                              996.02  1076.19  1114.93  1136.52  1161.33
                             1219.20  1291.21  1351.78  1363.56  1425.99
                             1470.14  1480.04  1508.07  1528.54  1560.68
                             1569.12  1581.24  1630.32  1700.73  1753.50
                             1795.04  1837.90  1911.11  1942.75  1965.87
                             1991.87  2026.72  2073.55  2146.13  2154.92
                             2162.83  4300.52  4357.77  4386.53  4430.37
                             4455.65  4461.85  4591.82  4610.55  4632.38
                             5462.11

 Zero-point correction=                           0.158651 (Hartree/Particle)
 Thermal correction to Energy=                    0.166836
 Thermal correction to Enthalpy=                  0.167781
 Thermal correction to Gibbs Free Energy=         0.126009
 Sum of electronic and zero-point Energies=           -422.955150
 Sum of electronic and thermal Energies=              -422.946965
 Sum of electronic and thermal Enthalpies=            -422.946021
 Sum of electronic and thermal Free Energies=         -422.987793

                     E (Thermal)             CV                S
                      KCal/Mol        Cal/Mol-Kelvin    Cal/Mol-Kelvin
 Total                  104.691             32.040             87.917
 Electronic               0.000              0.000              0.000
 Translational            0.889              2.981             40.409
 Rotational               0.889              2.981             28.482
 Vibrational            102.914             26.078             19.026
 Vibration     1          0.599              1.965              3.979
 Vibration     2          0.620              1.896              2.602
 Vibration     3          0.648              1.807              1.940
 Vibration     4          0.650              1.801              1.906
 Vibration     5          0.665              1.757              1.707
 Vibration     6          0.726              1.580              1.176
 Vibration     7          0.769              1.463              0.951
 Vibration     8          0.783              1.426              0.892
 Vibration     9          0.861              1.238              0.645
 Vibration    10          0.927              1.094              0.502

 Optimization completed.
    -- Stationary point found.
 Normal termination of Gaussian 09 at Tue Jan 28 10:41:02 2020.
