 Gaussian 09, Revision D.01,
 Gaussian 09:  ES64L-G09RevD.01 24-Apr-2013

 -----------------------------
 # b3lyp 6-31G(2df,p) opt Freq
 -----------------------------

 -----
 titel
 -----
 Symbolic Z-matrix:
 Charge =  0 Multiplicity = 1

 SCF Done:  E(RB3LYP) =  -423.137876415     A.U. after   14 cycles
 Optimization completed.
    -- Stationary point found.
 Normal termination of Gaussian 09 at Mon Jan 27 14:08:14 2020.

 ----------------------------------------------------------------------
 #N Geom=AllCheck Guess=TCheck SCRF=Check GenChk RB3LYP/6-31G(2df,p) Fr
 eq
 ----------------------------------------------------------------------

 Structure from the checkpoint file:  "/scratch/puck/g09_94fbc84e-e0f8-4e82-b96d-cf43358ba65f/Gau-4524.chk"
 -----
 titel
 -----
 Charge =  0 Multiplicity = 1

                         Standard orientation:
 ---------------------------------------------------------------------
 Center     Atomic      Atomic             Coordinates (Angstroms)
 Number     Number       Type             X           Y           Z
 ---------------------------------------------------------------------
      1          6           0        3.792999    0.665089   -0.086895
      2          6           0        2.527503   -0.054186   -0.141000
      3          6           0        1.495006   -0.671805   -0.213896
      4          6           0        0.206524   -1.363318   -0.240084
      5          6           0       -0.922243   -0.448312    0.210885
      6          8           0       -0.699495    0.172619    1.454616
      7          6           0       -2.360187   -0.801925   -0.053901
      8          6           0       -1.720317    0.383755   -0.761553
      9          8           0       -2.057415    1.680329   -0.388742
     10          1           0        4.264754    0.572119    0.897350
     11          1           0        4.497371    0.275745   -0.830000
     12          1           0        3.653992    1.732303   -0.290780
     13          1           0       -0.010051   -1.733810   -1.249079
     14          1           0        0.243702   -2.242916    0.416856
     15          1           0        0.206405    0.513558    1.426921
     16          1           0       -2.576403   -1.704281   -0.616969
     17          1           0       -3.066704   -0.569708    0.735804
     18          1           0       -1.516841    0.305462   -1.825636
     19          1           0       -1.756658    1.772157    0.527212
 ---------------------------------------------------------------------

 SCF Done:  E(RB3LYP) =  -423.137876415     A.U. after    1 cycles

 The electronic state is 1-A.
 Alpha  occ. eigenvalues --  -19.15452 -19.12977 -10.24358 -10.22847 -10.21512
 Alpha  occ. eigenvalues --  -10.21116 -10.18555 -10.18028 -10.17919  -1.04704
 Alpha  occ. eigenvalues --   -1.00982  -0.84060  -0.79203  -0.75540  -0.68189
 Alpha  occ. eigenvalues --   -0.60720  -0.58545  -0.52828  -0.50896  -0.48602
 Alpha  occ. eigenvalues --   -0.45722  -0.44885  -0.43745  -0.43269  -0.42748
 Alpha  occ. eigenvalues --   -0.40575  -0.38668  -0.36934  -0.35485  -0.31972
 Alpha  occ. eigenvalues --   -0.26766  -0.26240  -0.25992  -0.22851
 Alpha virt. eigenvalues --    0.04121   0.05148   0.08016   0.10454   0.11017
 Alpha virt. eigenvalues --    0.11902   0.13854   0.14172   0.16100   0.16625
 Alpha virt. eigenvalues --    0.17606   0.18123   0.19278   0.20813   0.22401

 Mulliken charges:
               1
     1  C   -0.499049
     2  C    0.101065
     3  C    0.013739
     4  C   -0.418281
     5  C    0.372300
     6  O   -0.472444
     7  C   -0.382477
     8  C    0.093658
     9  O   -0.436696
    10  H    0.150296
    11  H    0.154125
    12  H    0.152365
    13  H    0.130185
    14  H    0.135132
    15  H    0.287923
    16  H    0.110513
    17  H    0.124950
    18  H    0.099364
    19  H    0.283331
 Sum of Mulliken charges =   0.00000

 Dipole moment (field-independent basis, Debye):
    X=              2.4432    Y=             -0.8943    Z=              0.0114  Tot=              2.6017
 Quadrupole moment (field-independent basis, Debye-Ang):
   XX=            -50.0180   YY=            -53.1754   ZZ=            -53.7341
   XY=              6.6304   XZ=              0.1577   YZ=              3.7593

  Exact polarizability: 105.399  12.696  73.451   1.768   2.417  62.645
 Approx polarizability: 138.625  23.520 111.552   3.917   3.578  95.892

                      1                      2                      3
                      A                      A                      A
 Frequencies --     40.7405                54.0713                79.0991
 Red. masses --      1.0239                 4.3886                 3.7339
 Frc consts  --      0.0010                 0.0076                 0.0138
 IR Inten    --      0.0093                 0.7555                 0.0360

                      4                      5                      6
                      A                      A                      A
 Frequencies --    187.2866               221.9866               242.4911
 Red. masses --      4.8743                 3.1365                 3.9937
 Frc consts  --      0.1007                 0.0911                 0.1384
 IR Inten    --      2.4424                 7.3395                19.8266

                      7                      8                      9
                      A                      A                      A
 Frequencies --    276.7588               330.3964               357.1290
 Red. masses --      3.7740                 2.7573                 1.3013
 Frc consts  --      0.1703                 0.1773                 0.0978
 IR Inten    --      9.6402                 7.9307                75.5293

                     10                     11                     12
                      A                      A                      A
 Frequencies --    386.7933               411.9016               451.1211
 Red. masses --      3.7530                 2.7013                 2.4197
 Frc consts  --      0.3308                 0.2700                 0.2901
 IR Inten    --      1.2305                24.7189                 0.6991

                     13                     14                     15
                      A                      A                      A
 Frequencies --    519.8520               548.3445               605.0877
 Red. masses --      3.3029                 1.1231                 3.7582
 Frc consts  --      0.5259                 0.1990                 0.8107
 IR Inten    --      8.1686                48.1020                18.9812

                     16                     17                     18
                      A                      A                      A
 Frequencies --    732.9210               763.2451               826.6594
 Red. masses --      3.2457                 3.4695                 2.1536
 Frc consts  --      1.0272                 1.1908                 0.8671
 IR Inten    --     14.1759                 6.2603                16.5896

                     19                     20                     21
                      A                      A                      A
 Frequencies --    876.4016               918.3110              1000.3004
 Red. masses --      2.5328                 1.5456                 2.4184
 Frc consts  --      1.1462                 0.7679                 1.4257
 IR Inten    --      3.2084                12.4174                17.5706

                     22                     23                     24
                      A                      A                      A
 Frequencies --   1009.4699              1039.0448              1052.5295
 Red. masses --      2.1102                 1.5233                 1.4108
 Frc consts  --      1.2669                 0.9690                 0.9208
 IR Inten    --      6.6192                19.0332                 1.0126

                     25                     26                     27
                      A                      A                      A
 Frequencies --   1055.4401              1086.9014              1140.7813
 Red. masses --      1.3986                 1.3963                 2.5088
 Frc consts  --      0.9180                 0.9719                 1.9237
 IR Inten    --      0.9561                 9.6633                67.3605

                     28                     29                     30
                      A                      A                      A
 Frequencies --   1159.7893              1198.1411              1240.0557
 Red. masses --      3.4222                 1.3865                 1.9496
 Frc consts  --      2.7122                 1.1727                 1.7663
 IR Inten    --      1.5099                52.9720                 3.7567

                     31                     32                     33
                      A                      A                      A
 Frequencies --   1302.6788              1319.4606              1333.2594
 Red. masses --      1.9162                 1.4475                 1.6156
 Frc consts  --      1.9159                 1.4848                 1.6920
 IR Inten    --     73.2954                26.8369                 5.2606

                     34                     35                     36
                      A                      A                      A
 Frequencies --   1409.5770              1416.7392              1432.1265
 Red. masses --      1.3503                 1.2657                 1.1491
 Frc consts  --      1.5807                 1.4968                 1.3886
 IR Inten    --     85.3244                15.7182                22.6321

                     37                     38                     39
                      A                      A                      A
 Frequencies --   1463.5080              1477.7859              1479.2358
 Red. masses --      1.0882                 1.0392                 1.0398
 Frc consts  --      1.3732                 1.3371                 1.3405
 IR Inten    --     12.1833                 6.1621                 5.7805

                     40                     41                     42
                      A                      A                      A
 Frequencies --   1496.4239              2364.9357              3015.8386
 Red. masses --      2.0403                11.8177                 1.0618
 Frc consts  --      2.6918                38.9423                 5.6899
 IR Inten    --     31.3694                 2.8784                21.0529

                     43                     44                     45
                      A                      A                      A
 Frequencies --   3029.6319              3057.6848              3091.0947
 Red. masses --      1.0348                 1.0982                 1.1004
 Frc consts  --      5.5961                 6.0497                 6.1948
 IR Inten    --     27.7796                11.2340                 9.2312

                     46                     47                     48
                      A                      A                      A
 Frequencies --   3092.1564              3127.0174              3152.0268
 Red. masses --      1.1001                 1.0546                 1.0901
 Frc consts  --      6.1975                 6.0758                 6.3813
 IR Inten    --      8.0931                 7.8032                17.8848

                     49                     50                     51
                      A                      A                      A
 Frequencies --   3221.9536              3721.1569              3733.1619
 Red. masses --      1.1166                 1.0650                 1.0648
 Frc consts  --      6.8293                 8.6888                 8.7429
 IR Inten    --      5.0155                69.5831                30.4018

 - Thermochemistry -
 -------------------
 Temperature   298.150 Kelvin.  Pressure   1.00000 Atm.
 Atom     1 has atomic number  6 and mass  12.00000

 Molecular mass:   126.06808 amu.
 Principal axes and moments of inertia in atomic units:
                           1         2         3
     Eigenvalues --   585.209852121.171382312.34607
           X            0.99961   0.02781   0.00249
           Y           -0.02790   0.99829   0.05142
           Z           -0.00105  -0.05147   0.99867
 This molecule is an asymmetric top.
 Rotational symmetry number  1.
 Warning -- assumption of classical behavior for rotation
           may cause significant error
 Rotational temperatures (Kelvin)      0.14800     0.04083     0.03746
 Rotational constants (GHZ):           3.08392     0.85082     0.78048
 Zero-point vibrational energy     410023.1 (Joules/Mol)
                                   97.99787 (Kcal/Mol)
 Warning -- explicit consideration of  15 degrees of freedom as
           vibrations may cause significant error
 Vibrational temperatures:     58.62    77.80   113.81   269.46   319.39
          (Kelvin)            348.89   398.19   475.37   513.83   556.51
                              592.63   649.06   747.95   788.94   870.59
                             1054.51  1098.14  1189.38  1260.94  1321.24
                             1439.21  1452.40  1494.95  1514.35  1518.54
                             1563.81  1641.33  1668.68  1723.86  1784.16
                             1874.26  1898.41  1918.26  2028.06  2038.37
                             2060.51  2105.66  2126.20  2128.29  2153.02
                             3402.61  4339.11  4358.96  4399.32  4447.39
                             4448.92  4499.07  4535.06  4635.67  5353.91
                             5371.18

 Zero-point correction=                           0.156170 (Hartree/Particle)
 Thermal correction to Energy=                    0.166397
 Thermal correction to Enthalpy=                  0.167341
 Thermal correction to Gibbs Free Energy=         0.119964
 Sum of electronic and zero-point Energies=           -422.981707
 Sum of electronic and thermal Energies=              -422.971479
 Sum of electronic and thermal Enthalpies=            -422.970535
 Sum of electronic and thermal Free Energies=         -423.017913

                     E (Thermal)             CV                S
                      KCal/Mol        Cal/Mol-Kelvin    Cal/Mol-Kelvin
 Total                  104.416             36.905             99.714
 Electronic               0.000              0.000              0.000
 Translational            0.889              2.981             40.409
 Rotational               0.889              2.981             29.441
 Vibrational            102.638             30.943             29.864
 Vibration     1          0.594              1.981              5.223
 Vibration     2          0.596              1.976              4.663
 Vibration     3          0.600              1.963              3.913
 Vibration     4          0.632              1.857              2.255
 Vibration     5          0.648              1.808              1.943
 Vibration     6          0.659              1.775              1.785
 Vibration     7          0.678              1.716              1.554
 Vibration     8          0.713              1.615              1.258
 Vibration     9          0.732              1.561              1.135
 Vibration    10          0.755              1.498              1.012
 Vibration    11          0.776              1.444              0.920
 Vibration    12          0.810              1.358              0.792
 Vibration    13          0.875              1.206              0.610
 Vibration    14          0.904              1.143              0.548
 Vibration    15          0.964              1.021              0.441

 Optimization completed.
    -- Stationary point found.
 Normal termination of Gaussian 09 at Mon Jan 27 15:52:30 2020.
