 Gaussian 09, Revision D.01,
 Gaussian 09:  ES64L-G09RevD.01 24-Apr-2013

 -----------------------------
 # b3lyp 6-31G(2df,p) opt Freq
 -----------------------------

 -----
 titel
 -----
 Symbolic Z-matrix:
 Charge =  0 Multiplicity = 1

 SCF Done:  E(RB3LYP) =  -423.175013712     A.U. after   14 cycles
 SCF Done:  E(RB3LYP) =  -423.175013722     A.U. after    7 cycles
 Optimization completed.
    -- Stationary point found.
 Normal termination of Gaussian 09 at Mon Jan 27 23:11:40 2020.

 ----------------------------------------------------------------------
 #N Geom=AllCheck Guess=TCheck SCRF=Check GenChk RB3LYP/6-31G(2df,p) Fr
 eq
 ----------------------------------------------------------------------

 Structure from the checkpoint file:  "/scratch/puck/g09_43434e2f-9a9c-4530-be45-91ca5c3e7d93/Gau-79630.chk"
 -----
 titel
 -----
 Charge =  0 Multiplicity = 1

                         Standard orientation:
 ---------------------------------------------------------------------
 Center     Atomic      Atomic             Coordinates (Angstroms)
 Number     Number       Type             X           Y           Z
 ---------------------------------------------------------------------
      1          6           0       -2.159063    1.426735   -0.212473
      2          6           0       -0.882028    0.626210   -0.414726
      3          6           0       -1.063306   -0.908498   -0.541590
      4          6           0        0.368549   -1.436459   -0.777016
      5          6           0        1.051597   -0.632664    0.396151
      6          6           0        2.210610    0.226541   -0.032174
      7          8           0        2.195984    1.432344   -0.080689
      8          6           0       -0.212603    0.109313    0.884225
      9          8           0       -1.184155   -0.984650    0.912957
     10          1           0       -2.807981    0.944268    0.522672
     11          1           0       -1.929511    2.438042    0.138678
     12          1           0       -2.713464    1.521741   -1.152339
     13          1           0       -0.219901    1.104389   -1.140564
     14          1           0       -1.885358   -1.376153   -1.084783
     15          1           0        0.438286   -2.516045   -0.635930
     16          1           0        0.756984   -1.182726   -1.767790
     17          1           0        1.414005   -1.330104    1.159789
     18          1           0        3.126636   -0.341424   -0.316812
     19          1           0       -0.156863    0.689394    1.804551
 ---------------------------------------------------------------------

 SCF Done:  E(RB3LYP) =  -423.175013722     A.U. after    1 cycles

 The electronic state is 1-A.
 Alpha  occ. eigenvalues --  -19.14442 -19.13726 -10.27544 -10.24143 -10.23979
 Alpha  occ. eigenvalues --  -10.20346 -10.20059 -10.19376 -10.17527  -1.05490
 Alpha  occ. eigenvalues --   -1.04832  -0.81263  -0.76280  -0.72084  -0.66589
 Alpha  occ. eigenvalues --   -0.62461  -0.56208  -0.53796  -0.51213  -0.48796
 Alpha  occ. eigenvalues --   -0.47737  -0.44781  -0.43749  -0.40689  -0.39739
 Alpha  occ. eigenvalues --   -0.38651  -0.37994  -0.36277  -0.35802  -0.34878
 Alpha  occ. eigenvalues --   -0.31380  -0.30348  -0.26188  -0.24828
 Alpha virt. eigenvalues --   -0.02683   0.08921   0.09623   0.10475   0.12243
 Alpha virt. eigenvalues --    0.12671   0.13754   0.15060   0.15309   0.16353
 Alpha virt. eigenvalues --    0.16903   0.18359   0.18763   0.19538   0.20470

 Mulliken charges:
               1
     1  C   -0.428257
     2  C    0.031533
     3  C    0.074635
     4  C   -0.262112
     5  C   -0.089537
     6  C    0.136809
     7  O   -0.251637
     8  C    0.063974
     9  O   -0.305893
    10  H    0.134408
    11  H    0.121724
    12  H    0.113295
    13  H    0.083919
    14  H    0.080471
    15  H    0.116668
    16  H    0.110196
    17  H    0.101404
    18  H    0.081593
    19  H    0.086806
 Sum of Mulliken charges =   0.00000

 Dipole moment (field-independent basis, Debye):
    X=              0.0998    Y=             -1.4651    Z=             -0.9884  Tot=              1.7701
 Quadrupole moment (field-independent basis, Debye-Ang):
   XX=            -54.8541   YY=            -56.2457   ZZ=            -52.0244
   XY=             -6.5665   XZ=              2.9426   YZ=              2.5330

  Exact polarizability:  82.484  -2.953  77.784   1.123   2.535  64.411
 Approx polarizability: 108.736   3.072 121.445  -0.091   1.165 102.243

                      1                      2                      3
                      A                      A                      A
 Frequencies --     72.3134               128.5844               213.2927
 Red. masses --      3.9106                 4.5051                 1.6512
 Frc consts  --      0.0120                 0.0439                 0.0443
 IR Inten    --      7.5603                 4.3759                 0.4066

                      4                      5                      6
                      A                      A                      A
 Frequencies --    245.0058               256.5037               272.9980
 Red. masses --      1.3386                 2.8059                 3.1238
 Frc consts  --      0.0473                 0.1088                 0.1372
 IR Inten    --      0.2076                 2.6074                 2.4427

                      7                      8                      9
                      A                      A                      A
 Frequencies --    365.1850               438.4039               564.7210
 Red. masses --      2.4021                 3.4767                 4.6928
 Frc consts  --      0.1887                 0.3937                 0.8818
 IR Inten    --      0.2044                 2.3597                12.4205

                     10                     11                     12
                      A                      A                      A
 Frequencies --    661.4356               720.0931               796.3692
 Red. masses --      4.2530                 4.4172                 2.1931
 Frc consts  --      1.0963                 1.3495                 0.8195
 IR Inten    --      5.2937                17.9874                 1.8365

                     13                     14                     15
                      A                      A                      A
 Frequencies --    816.2803               837.4049               873.6848
 Red. masses --      2.4979                 3.0248                 3.3287
 Frc consts  --      0.9806                 1.2497                 1.4970
 IR Inten    --      4.0220                 9.3192                32.8628

                     16                     17                     18
                      A                      A                      A
 Frequencies --    912.6430               917.8945               941.8307
 Red. masses --      2.6192                 2.2028                 2.0817
 Frc consts  --      1.2854                 1.0935                 1.0880
 IR Inten    --      9.2860                 4.0610                16.0222

                     19                     20                     21
                      A                      A                      A
 Frequencies --    981.7510              1000.7310              1037.6354
 Red. masses --      3.0253                 1.4704                 2.3779
 Frc consts  --      1.7180                 0.8676                 1.5085
 IR Inten    --      9.0486                11.4137                 5.6816

                     22                     23                     24
                      A                      A                      A
 Frequencies --   1057.9733              1074.7831              1098.9701
 Red. masses --      1.4137                 1.3894                 1.9918
 Frc consts  --      0.9323                 0.9457                 1.4173
 IR Inten    --      4.0600                 3.7729                 7.0208

                     25                     26                     27
                      A                      A                      A
 Frequencies --   1114.5412              1158.1645              1200.4913
 Red. masses --      2.1919                 1.4929                 1.6347
 Frc consts  --      1.6042                 1.1799                 1.3880
 IR Inten    --      8.1364                 6.5818                 2.4245

                     28                     29                     30
                      A                      A                      A
 Frequencies --   1226.5453              1232.9466              1250.5547
 Red. masses --      1.5286                 1.4838                 1.4878
 Frc consts  --      1.3549                 1.3289                 1.3709
 IR Inten    --      1.8714                 6.4105                 1.5019

                     31                     32                     33
                      A                      A                      A
 Frequencies --   1278.3729              1298.5991              1304.4618
 Red. masses --      1.4056                 1.6411                 1.3552
 Frc consts  --      1.3534                 1.6306                 1.3586
 IR Inten    --      7.4792                 1.5274                 5.0004

                     34                     35                     36
                      A                      A                      A
 Frequencies --   1351.2408              1403.4455              1410.5063
 Red. masses --      1.8147                 1.3411                 1.4975
 Frc consts  --      1.9522                 1.5564                 1.7554
 IR Inten    --     12.6503                 1.9580                 0.8318

                     37                     38                     39
                      A                      A                      A
 Frequencies --   1426.5359              1490.7198              1497.8064
 Red. masses --      1.2061                 1.0932                 1.0555
 Frc consts  --      1.4461                 1.4314                 1.3951
 IR Inten    --      9.7617                 0.9734                 5.5639

                     40                     41                     42
                      A                      A                      A
 Frequencies --   1505.3325              1816.7685              2863.2095
 Red. masses --      1.0489                10.3118                 1.0824
 Frc consts  --      1.4003                20.0532                 5.2281
 IR Inten    --      3.0978               138.7347               138.4201

                     43                     44                     45
                      A                      A                      A
 Frequencies --   3036.6105              3049.5537              3064.2911
 Red. masses --      1.0364                 1.0831                 1.0622
 Frc consts  --      5.6307                 5.9347                 5.8763
 IR Inten    --     30.1903                14.8286                21.0304

                     46                     47                     48
                      A                      A                      A
 Frequencies --   3083.2139              3096.7730              3115.9185
 Red. masses --      1.0847                 1.1009                 1.0916
 Frc consts  --      6.0754                 6.2206                 6.2442
 IR Inten    --     17.1326                19.4462                42.4328

                     49                     50                     51
                      A                      A                      A
 Frequencies --   3124.4305              3126.6125              3133.3632
 Red. masses --      1.1031                 1.1005                 1.0920
 Frc consts  --      6.3444                 6.3383                 6.3165
 IR Inten    --     13.3897                29.4227                20.6371

 - Thermochemistry -
 -------------------
 Temperature   298.150 Kelvin.  Pressure   1.00000 Atm.
 Atom     1 has atomic number  6 and mass  12.00000

 Molecular mass:   126.06808 amu.
 Principal axes and moments of inertia in atomic units:
                           1         2         3
     Eigenvalues --   676.066741212.354461528.75645
           X            0.99549  -0.09445   0.00872
           Y            0.09416   0.99512   0.02962
           Z           -0.01148  -0.02867   0.99952
 This molecule is an asymmetric top.
 Rotational symmetry number  1.
 Warning -- assumption of classical behavior for rotation
           may cause significant error
 Rotational temperatures (Kelvin)      0.12811     0.07144     0.05666
 Rotational constants (GHZ):           2.66947     1.48863     1.18053
 Zero-point vibrational energy     418378.9 (Joules/Mol)
                                   99.99497 (Kcal/Mol)
 Warning -- explicit consideration of   9 degrees of freedom as
           vibrations may cause significant error
 Vibrational temperatures:    104.04   185.00   306.88   352.51   369.05
          (Kelvin)            392.78   525.42   630.76   812.51   951.66
                             1036.05  1145.80  1174.44  1204.84  1257.04
                             1313.09  1320.64  1355.08  1412.52  1439.83
                             1492.92  1522.19  1546.37  1581.17  1603.57
                             1666.34  1727.24  1764.72  1773.93  1799.27
                             1839.29  1868.39  1876.83  1944.13  2019.24
                             2029.40  2052.46  2144.81  2155.01  2165.83
                             2613.92  4119.51  4369.00  4387.62  4408.83
                             4436.05  4455.56  4483.11  4495.35  4498.49
                             4508.21

 Zero-point correction=                           0.159352 (Hartree/Particle)
 Thermal correction to Energy=                    0.167458
 Thermal correction to Enthalpy=                  0.168402
 Thermal correction to Gibbs Free Energy=         0.126466
 Sum of electronic and zero-point Energies=           -423.015662
 Sum of electronic and thermal Energies=              -423.007556
 Sum of electronic and thermal Enthalpies=            -423.006612
 Sum of electronic and thermal Free Energies=         -423.048548

                     E (Thermal)             CV                S
                      KCal/Mol        Cal/Mol-Kelvin    Cal/Mol-Kelvin
 Total                  105.081             30.867             88.263
 Electronic               0.000              0.000              0.000
 Translational            0.889              2.981             40.409
 Rotational               0.889              2.981             28.618
 Vibrational            103.304             24.905             19.236
 Vibration     1          0.598              1.967              4.089
 Vibration     2          0.611              1.925              2.967
 Vibration     3          0.644              1.821              2.015
 Vibration     4          0.660              1.771              1.766
 Vibration     5          0.666              1.752              1.685
 Vibration     6          0.676              1.723              1.577
 Vibration     7          0.738              1.544              1.100
 Vibration     8          0.799              1.386              0.832
 Vibration     9          0.921              1.108              0.514

 Normal termination of Gaussian 09 at Mon Jan 27 23:57:11 2020.
