 Gaussian 09, Revision D.01,
 Gaussian 09:  ES64L-G09RevD.01 24-Apr-2013

 -----------------------------
 # b3lyp 6-31G(2df,p) opt Freq
 -----------------------------

 -----
 titel
 -----
 Symbolic Z-matrix:
 Charge =  0 Multiplicity = 1

 SCF Done:  E(RB3LYP) =  -423.144934311     A.U. after   13 cycles
 Optimization completed.
    -- Stationary point found.
 Normal termination of Gaussian 09 at Mon Jan 27 12:06:10 2020.

 ----------------------------------------------------------------------
 #N Geom=AllCheck Guess=TCheck SCRF=Check GenChk RB3LYP/6-31G(2df,p) Fr
 eq
 ----------------------------------------------------------------------

 Structure from the checkpoint file:  "/scratch/puck/g09_46b16926-81aa-4ec3-ab52-84e1fcf51349/Gau-165428.chk"
 -----
 titel
 -----
 Charge =  0 Multiplicity = 1

                         Standard orientation:
 ---------------------------------------------------------------------
 Center     Atomic      Atomic             Coordinates (Angstroms)
 Number     Number       Type             X           Y           Z
 ---------------------------------------------------------------------
      1          6           0       -2.872271    0.619402   -0.396325
      2          8           0       -2.698690   -0.794005   -0.278260
      3          6           0       -1.760384    0.060294    0.384108
      4          6           0       -0.357521    0.042317   -0.116104
      5          6           0        0.706136    0.780299    0.691200
      6          6           0        1.984150    1.171465   -0.034114
      7          6           0        2.397840   -0.141013   -0.741398
      8          8           0        1.814094   -1.214256   -0.000641
      9          6           0        0.688511   -0.719166    0.670841
     10          1           0       -2.675522    1.033210   -1.384939
     11          1           0       -3.743731    1.030909    0.111892
     12          1           0       -1.861266    0.063355    1.472104
     13          1           0       -0.270680    0.042067   -1.199080
     14          1           0        0.401307    1.347373    1.563591
     15          1           0        1.860901    1.991483   -0.747819
     16          1           0        2.736299    1.476053    0.700979
     17          1           0        2.030315   -0.156280   -1.776619
     18          1           0        3.479101   -0.300828   -0.767787
     19          1           0        0.401282   -1.342847    1.509638
 ---------------------------------------------------------------------

 SCF Done:  E(RB3LYP) =  -423.144934311     A.U. after    1 cycles

 The electronic state is 1-A.
 Alpha  occ. eigenvalues --  -19.14727 -19.14268 -10.24151 -10.23503 -10.23201
 Alpha  occ. eigenvalues --  -10.23127 -10.19633 -10.19452 -10.19415  -1.06765
 Alpha  occ. eigenvalues --   -1.04444  -0.85709  -0.76202  -0.69189  -0.65441
 Alpha  occ. eigenvalues --   -0.61831  -0.58014  -0.57500  -0.52206  -0.49436
 Alpha  occ. eigenvalues --   -0.48017  -0.45616  -0.44279  -0.41881  -0.40514
 Alpha  occ. eigenvalues --   -0.39555  -0.37975  -0.35758  -0.33824  -0.33366
 Alpha  occ. eigenvalues --   -0.31449  -0.28121  -0.26100  -0.23011
 Alpha virt. eigenvalues --    0.08728   0.08971   0.09547   0.10813   0.11908
 Alpha virt. eigenvalues --    0.12834   0.13583   0.14322   0.15556   0.16270
 Alpha virt. eigenvalues --    0.16399   0.18335   0.18878   0.20366   0.21898

 Mulliken charges:
               1
     1  C   -0.187476
     2  O   -0.238655
     3  C    0.080150
     4  C   -0.097067
     5  C   -0.101351
     6  C   -0.252088
     7  C   -0.087793
     8  O   -0.257294
     9  C    0.107093
    10  H    0.110453
    11  H    0.113083
    12  H    0.087404
    13  H    0.092399
    14  H    0.090189
    15  H    0.107411
    16  H    0.111988
    17  H    0.103452
    18  H    0.111938
    19  H    0.106164
 Sum of Mulliken charges =   0.00000

 Dipole moment (field-independent basis, Debye):
    X=              0.6933    Y=              2.9106    Z=              0.3798  Tot=              3.0161
 Quadrupole moment (field-independent basis, Debye-Ang):
   XX=            -53.9032   YY=            -56.5728   ZZ=            -49.9228
   XY=             -1.6986   XZ=             -2.1187   YZ=             -1.3497

  Exact polarizability:  94.360  -1.499  65.220   0.040  -1.766  67.709
 Approx polarizability: 117.151  -1.617 104.649   3.546  -2.146 102.866

                      1                      2                      3
                      A                      A                      A
 Frequencies --     68.8942               138.4048               144.7112
 Red. masses --      3.7183                 3.8676                 3.0988
 Frc consts  --      0.0104                 0.0437                 0.0382
 IR Inten    --      0.8351                 1.5815                 0.3364

                      4                      5                      6
                      A                      A                      A
 Frequencies --    225.5292               303.5616               340.5985
 Red. masses --      2.0917                 2.7331                 4.8308
 Frc consts  --      0.0627                 0.1484                 0.3302
 IR Inten    --      2.6810                 3.8670                 0.1888

                      7                      8                      9
                      A                      A                      A
 Frequencies --    429.5355               462.7743               666.3510
 Red. masses --      2.7529                 4.2334                 2.5582
 Frc consts  --      0.2993                 0.5342                 0.6693
 IR Inten    --      0.3738                14.8173                 2.0925

                     10                     11                     12
                      A                      A                      A
 Frequencies --    705.5530               831.3656               847.2128
 Red. masses --      4.9898                 2.7086                 2.0580
 Frc consts  --      1.4635                 1.1030                 0.8703
 IR Inten    --      4.7503                 6.9526                33.0365

                     13                     14                     15
                      A                      A                      A
 Frequencies --    854.0122               870.5507               882.9036
 Red. masses --      1.8323                 2.0240                 4.0393
 Frc consts  --      0.7874                 0.9037                 1.8552
 IR Inten    --      4.6027                19.0231                21.1610

                     16                     17                     18
                      A                      A                      A
 Frequencies --    918.5415               960.2569               974.9712
 Red. masses --      3.0825                 2.6657                 2.4818
 Frc consts  --      1.5323                 1.4482                 1.3900
 IR Inten    --     16.2588                16.7153                 4.8036

                     19                     20                     21
                      A                      A                      A
 Frequencies --   1005.0594              1010.6069              1038.4990
 Red. masses --      1.7377                 2.0119                 1.6701
 Frc consts  --      1.0342                 1.2107                 1.0612
 IR Inten    --      9.5319                22.7523                 4.4337

                     22                     23                     24
                      A                      A                      A
 Frequencies --   1070.6342              1098.4760              1123.0279
 Red. masses --      1.3524                 1.2576                 2.0525
 Frc consts  --      0.9133                 0.8941                 1.5252
 IR Inten    --      5.2326                 1.2331                11.4171

                     25                     26                     27
                      A                      A                      A
 Frequencies --   1139.7118              1157.0480              1166.6033
 Red. masses --      2.2243                 1.5046                 1.5691
 Frc consts  --      1.7023                 1.1868                 1.2582
 IR Inten    --     39.9645                 7.6358                44.7152

                     28                     29                     30
                      A                      A                      A
 Frequencies --   1175.0659              1210.6891              1218.4691
 Red. masses --      1.5208                 2.3507                 1.2765
 Frc consts  --      1.2372                 2.0301                 1.1166
 IR Inten    --     12.0342                 2.0500                 3.2585

                     31                     32                     33
                      A                      A                      A
 Frequencies --   1238.5164              1266.4978              1295.1477
 Red. masses --      1.3046                 1.2974                 1.7013
 Frc consts  --      1.1790                 1.2261                 1.6814
 IR Inten    --      6.0963                 2.7873                 7.4588

                     34                     35                     36
                      A                      A                      A
 Frequencies --   1306.7132              1315.3895              1386.3627
 Red. masses --      1.2983                 1.4208                 1.4923
 Frc consts  --      1.3062                 1.4484                 1.6898
 IR Inten    --      2.1085                 3.4803                 0.4670

                     37                     38                     39
                      A                      A                      A
 Frequencies --   1408.0708              1472.8998              1494.9129
 Red. masses --      1.7378                 1.8334                 1.0987
 Frc consts  --      2.0300                 2.3434                 1.4467
 IR Inten    --     12.0341                38.6869                 1.8599

                     40                     41                     42
                      A                      A                      A
 Frequencies --   1527.9167              1532.7098              3007.0041
 Red. masses --      1.1226                 1.3842                 1.0704
 Frc consts  --      1.5441                 1.9159                 5.7027
 IR Inten    --      0.3446                 9.7246                44.6035

                     43                     44                     45
                      A                      A                      A
 Frequencies --   3047.9270              3076.0425              3080.6479
 Red. masses --      1.0603                 1.0587                 1.0783
 Frc consts  --      5.8034                 5.9022                 6.0293
 IR Inten    --     29.9220                30.6538                20.0264

                     46                     47                     48
                      A                      A                      A
 Frequencies --   3083.6042              3096.3682              3150.5810
 Red. masses --      1.0946                 1.1044                 1.0895
 Frc consts  --      6.1324                 6.2384                 6.3715
 IR Inten    --     28.1209                38.6128                 3.8308

                     49                     50                     51
                      A                      A                      A
 Frequencies --   3163.5114              3169.0635              3182.3165
 Red. masses --      1.1188                 1.0890                 1.0931
 Frc consts  --      6.5971                 6.4437                 6.5221
 IR Inten    --     30.7022                11.0408                17.9386

 - Thermochemistry -
 -------------------
 Temperature   298.150 Kelvin.  Pressure   1.00000 Atm.
 Atom     1 has atomic number  6 and mass  12.00000

 Molecular mass:   126.06808 amu.
 Principal axes and moments of inertia in atomic units:
                           1         2         3
     Eigenvalues --   422.799361875.786762027.82604
           X            0.99997  -0.00091  -0.00805
           Y            0.00069   0.99964  -0.02697
           Z            0.00807   0.02697   0.99960
 This molecule is an asymmetric top.
 Rotational symmetry number  1.
 Rotational temperatures (Kelvin)      0.20486     0.04617     0.04271
 Rotational constants (GHZ):           4.26855     0.96212     0.88999
 Zero-point vibrational energy     420737.5 (Joules/Mol)
                                  100.55868 (Kcal/Mol)
 Warning -- explicit consideration of   8 degrees of freedom as
           vibrations may cause significant error
 Vibrational temperatures:     99.12   199.13   208.21   324.49   436.76
          (Kelvin)            490.04   618.01   665.83   958.73  1015.13
                             1196.15  1218.95  1228.73  1252.53  1270.30
                             1321.57  1381.59  1402.76  1446.05  1454.04
                             1494.17  1540.40  1580.46  1615.78  1639.79
                             1664.73  1678.48  1690.66  1741.91  1753.10
                             1781.95  1822.21  1863.43  1880.07  1892.55
                             1994.66  2025.90  2119.17  2150.84  2198.33
                             2205.22  4326.40  4385.28  4425.73  4432.36
                             4436.61  4454.98  4532.98  4551.58  4559.57
                             4578.64

 Zero-point correction=                           0.160250 (Hartree/Particle)
 Thermal correction to Energy=                    0.168112
 Thermal correction to Enthalpy=                  0.169056
 Thermal correction to Gibbs Free Energy=         0.127274
 Sum of electronic and zero-point Energies=           -422.984684
 Sum of electronic and thermal Energies=              -422.976822
 Sum of electronic and thermal Enthalpies=            -422.975878
 Sum of electronic and thermal Free Energies=         -423.017660

                     E (Thermal)             CV                S
                      KCal/Mol        Cal/Mol-Kelvin    Cal/Mol-Kelvin
 Total                  105.492             29.917             87.939
 Electronic               0.000              0.000              0.000
 Translational            0.889              2.981             40.409
 Rotational               0.889              2.981             28.866
 Vibrational            103.715             23.955             18.664
 Vibration     1          0.598              1.969              4.185
 Vibration     2          0.614              1.915              2.826
 Vibration     3          0.616              1.908              2.741
 Vibration     4          0.650              1.802              1.914
 Vibration     5          0.695              1.667              1.397
 Vibration     6          0.720              1.594              1.209
 Vibration     7          0.791              1.406              0.860
 Vibration     8          0.820              1.333              0.758

 Optimization completed.
    -- Stationary point found.
 Normal termination of Gaussian 09 at Mon Jan 27 12:43:55 2020.
