 Gaussian 09, Revision D.01,
 Gaussian 09:  ES64L-G09RevD.01 24-Apr-2013

 -----------------------------
 # b3lyp 6-31G(2df,p) opt Freq
 -----------------------------

 -----
 titel
 -----
 Symbolic Z-matrix:
 Charge =  0 Multiplicity = 1

 SCF Done:  E(RB3LYP) =  -423.160718672     A.U. after   14 cycles
 Optimization completed.
    -- Stationary point found.
 Normal termination of Gaussian 09 at Tue Jan 28 02:50:33 2020.

 ----------------------------------------------------------------------
 #N Geom=AllCheck Guess=TCheck SCRF=Check GenChk RB3LYP/6-31G(2df,p) Fr
 eq
 ----------------------------------------------------------------------

 Structure from the checkpoint file:  "/scratch/puck/g09_ce2a25a9-a4ec-4e6f-92fe-3467c6c9c5e3/Gau-77709.chk"
 -----
 titel
 -----
 Charge =  0 Multiplicity = 1

                         Standard orientation:
 ---------------------------------------------------------------------
 Center     Atomic      Atomic             Coordinates (Angstroms)
 Number     Number       Type             X           Y           Z
 ---------------------------------------------------------------------
      1          8           0        1.896512   -1.465118   -0.452988
      2          6           0        1.476565   -0.420840    0.416964
      3          6           0        0.088440   -0.668439    1.058834
      4          6           0       -0.914619   -0.044239    0.082341
      5          6           0       -1.881411   -0.878739   -0.731052
      6          6           0       -2.388356    0.031256    0.361647
      7          6           0       -0.163302    1.063474   -0.595030
      8          8           0        0.573017    1.891155    0.321046
      9          6           0        1.278449    0.862661   -0.381600
     10          1           0        1.216694   -1.576022   -1.127485
     11          1           0        2.266499   -0.336133    1.167830
     12          1           0       -0.074804   -1.735999    1.226179
     13          1           0        0.034186   -0.158306    2.024526
     14          1           0       -2.072444   -0.593871   -1.761311
     15          1           0       -1.899382   -1.949327   -0.554993
     16          1           0       -2.920873    0.930621    0.070800
     17          1           0       -2.751805   -0.423678    1.277136
     18          1           0       -0.575705    1.574667   -1.461902
     19          1           0        2.046804    1.188944   -1.077868
 ---------------------------------------------------------------------

 SCF Done:  E(RB3LYP) =  -423.160718672     A.U. after    1 cycles

 The electronic state is 1-A.
 Alpha  occ. eigenvalues --  -19.15111 -19.13957 -10.23821 -10.23506 -10.23188
 Alpha  occ. eigenvalues --  -10.20526 -10.19511 -10.19201 -10.18400  -1.07398
 Alpha  occ. eigenvalues --   -1.02046  -0.87178  -0.77082  -0.67903  -0.67453
 Alpha  occ. eigenvalues --   -0.60985  -0.59078  -0.55376  -0.52714  -0.49567
 Alpha  occ. eigenvalues --   -0.46565  -0.45908  -0.45615  -0.41619  -0.38788
 Alpha  occ. eigenvalues --   -0.38253  -0.36956  -0.36064  -0.34780  -0.32680
 Alpha  occ. eigenvalues --   -0.29711  -0.28342  -0.27157  -0.25256
 Alpha virt. eigenvalues --    0.06979   0.09014   0.09766   0.10189   0.10709
 Alpha virt. eigenvalues --    0.11935   0.13787   0.14962   0.16262   0.17430
 Alpha virt. eigenvalues --    0.18389   0.19114   0.19797   0.21708   0.22229

 Mulliken charges:
               1
     1  O   -0.434596
     2  C    0.096775
     3  C   -0.339438
     4  C    0.360746
     5  C   -0.326498
     6  C   -0.326360
     7  C   -0.029599
     8  O   -0.265674
     9  C    0.002380
    10  H    0.283128
    11  H    0.093644
    12  H    0.105985
    13  H    0.120522
    14  H    0.113113
    15  H    0.116585
    16  H    0.118143
    17  H    0.117686
    18  H    0.094298
    19  H    0.099162
 Sum of Mulliken charges =   0.00000

 Dipole moment (field-independent basis, Debye):
    X=             -1.5512    Y=             -0.7477    Z=             -1.0766  Tot=              2.0308
 Quadrupole moment (field-independent basis, Debye-Ang):
   XX=            -55.2109   YY=            -57.5672   ZZ=            -49.8991
   XY=              2.1202   XZ=              0.4190   YZ=             -2.2295

  Exact polarizability:  85.012   1.059  69.991   1.564  -0.751  67.911
 Approx polarizability: 116.349  -0.103 106.285   3.061   5.203 104.053

                      1                      2                      3
                      A                      A                      A
 Frequencies --     88.5494               170.0573               263.8542
 Red. masses --      3.9048                 3.2930                 2.5052
 Frc consts  --      0.0180                 0.0561                 0.1028
 IR Inten    --      0.9053                 2.5072                 0.9282

                      4                      5                      6
                      A                      A                      A
 Frequencies --    290.8613               297.6256               342.1984
 Red. masses --      2.9966                 1.5337                 1.6984
 Frc consts  --      0.1494                 0.0800                 0.1172
 IR Inten    --      1.9175                23.0655                64.5501

                      7                      8                      9
                      A                      A                      A
 Frequencies --    391.6752               445.1812               511.7907
 Red. masses --      2.6068                 4.2343                 5.7054
 Frc consts  --      0.2356                 0.4944                 0.8805
 IR Inten    --     12.5618                 2.0531                 1.9160

                     10                     11                     12
                      A                      A                      A
 Frequencies --    552.9635               741.0917               781.0117
 Red. masses --      3.2231                 4.0047                 1.0724
 Frc consts  --      0.5807                 1.2959                 0.3854
 IR Inten    --      3.7656                 7.0912                 0.1001

                     13                     14                     15
                      A                      A                      A
 Frequencies --    789.3065               831.6524               846.6904
 Red. masses --      2.8617                 3.3275                 2.4878
 Frc consts  --      1.0504                 1.3560                 1.0508
 IR Inten    --      1.0080                12.2407                15.1259

                     16                     17                     18
                      A                      A                      A
 Frequencies --    889.5869               893.5367               937.6067
 Red. masses --      3.7833                 3.1602                 1.7489
 Frc consts  --      1.7640                 1.4866                 0.9058
 IR Inten    --     31.3675                 5.1086                 0.7106

                     19                     20                     21
                      A                      A                      A
 Frequencies --    946.9419               972.7542               993.5473
 Red. masses --      1.3106                 2.1808                 2.6516
 Frc consts  --      0.6924                 1.2158                 1.5422
 IR Inten    --      2.4013                 9.2558                13.2556

                     22                     23                     24
                      A                      A                      A
 Frequencies --   1034.2453              1042.9361              1058.7194
 Red. masses --      1.7432                 1.7124                 1.5281
 Frc consts  --      1.0986                 1.0974                 1.0092
 IR Inten    --      3.9445                 3.6075                 5.0352

                     25                     26                     27
                      A                      A                      A
 Frequencies --   1079.0565              1088.6746              1116.6267
 Red. masses --      1.6417                 2.0207                 1.4066
 Frc consts  --      1.1262                 1.4111                 1.0333
 IR Inten    --     18.4861                72.1847                 3.1630

                     28                     29                     30
                      A                      A                      A
 Frequencies --   1182.3055              1189.5954              1236.8673
 Red. masses --      1.4115                 1.2914                 1.3088
 Frc consts  --      1.1625                 1.0767                 1.1797
 IR Inten    --     27.7609                 0.0503                11.2357

                     31                     32                     33
                      A                      A                      A
 Frequencies --   1248.0027              1276.9490              1295.9785
 Red. masses --      1.6568                 1.3452                 2.2604
 Frc consts  --      1.5204                 1.2924                 2.2368
 IR Inten    --      1.7742                 2.3954                 2.3550

                     34                     35                     36
                      A                      A                      A
 Frequencies --   1303.5633              1334.4056              1376.1789
 Red. masses --      1.6794                 1.7083                 2.2654
 Frc consts  --      1.6814                 1.7922                 2.5279
 IR Inten    --      2.1173                 0.4048                 3.5117

                     37                     38                     39
                      A                      A                      A
 Frequencies --   1426.2377              1434.3407              1466.6887
 Red. masses --      1.2841                 2.3691                 1.0985
 Frc consts  --      1.5390                 2.8716                 1.3923
 IR Inten    --     57.2627                 9.0368                 3.5218

                     40                     41                     42
                      A                      A                      A
 Frequencies --   1474.9786              1504.6393              3060.8564
 Red. masses --      1.1458                 1.4671                 1.0612
 Frc consts  --      1.4687                 1.9569                 5.8575
 IR Inten    --      7.1865                 0.0492                11.0310

                     43                     44                     45
                      A                      A                      A
 Frequencies --   3084.6351              3111.6233              3122.2662
 Red. masses --      1.0852                 1.1052                 1.0523
 Frc consts  --      6.0838                 6.3048                 6.0442
 IR Inten    --     36.0189                12.5254                15.5515

                     46                     47                     48
                      A                      A                      A
 Frequencies --   3130.3132              3140.2584              3155.8428
 Red. masses --      1.0565                 1.0876                 1.0952
 Frc consts  --      6.0996                 6.3192                 6.4267
 IR Inten    --     11.7789                17.0658                26.4623

                     49                     50                     51
                      A                      A                      A
 Frequencies --   3202.2634              3218.2359              3795.8389
 Red. masses --      1.1177                 1.1159                 1.0659
 Frc consts  --      6.7532                 6.8092                 9.0484
 IR Inten    --      1.1666                14.3319                 9.9504

 - Thermochemistry -
 -------------------
 Temperature   298.150 Kelvin.  Pressure   1.00000 Atm.
 Atom     1 has atomic number  8 and mass  15.99491

 Molecular mass:   126.06808 amu.
 Principal axes and moments of inertia in atomic units:
                           1         2         3
     Eigenvalues --   702.739211129.853251467.29380
           X            0.99978   0.02062   0.00370
           Y           -0.02049   0.99930  -0.03123
           Z           -0.00434   0.03115   0.99951
 This molecule is an asymmetric top.
 Rotational symmetry number  1.
 Warning -- assumption of classical behavior for rotation
           may cause significant error
 Rotational temperatures (Kelvin)      0.12325     0.07666     0.05903
 Rotational constants (GHZ):           2.56815     1.59732     1.22998
 Zero-point vibrational energy     419719.4 (Joules/Mol)
                                  100.31535 (Kcal/Mol)
 Warning -- explicit consideration of  10 degrees of freedom as
           vibrations may cause significant error
 Vibrational temperatures:    127.40   244.67   379.63   418.48   428.22
          (Kelvin)            492.35   563.53   640.52   736.35   795.59
                             1066.26  1123.70  1135.63  1196.56  1218.20
                             1279.92  1285.60  1349.01  1362.44  1399.57
                             1429.49  1488.05  1500.55  1523.26  1552.52
                             1566.36  1606.57  1701.07  1711.56  1779.57
                             1795.60  1837.24  1864.62  1875.53  1919.91
                             1980.01  2052.04  2063.69  2110.24  2122.16
                             2164.84  4403.88  4438.10  4476.93  4492.24
                             4503.82  4518.13  4540.55  4607.34  4630.32
                             5461.36

 Zero-point correction=                           0.159863 (Hartree/Particle)
 Thermal correction to Energy=                    0.167738
 Thermal correction to Enthalpy=                  0.168682
 Thermal correction to Gibbs Free Energy=         0.127654
 Sum of electronic and zero-point Energies=           -423.000856
 Sum of electronic and thermal Energies=              -422.992981
 Sum of electronic and thermal Enthalpies=            -422.992037
 Sum of electronic and thermal Free Energies=         -423.033065

                     E (Thermal)             CV                S
                      KCal/Mol        Cal/Mol-Kelvin    Cal/Mol-Kelvin
 Total                  105.257             31.465             86.351
 Electronic               0.000              0.000              0.000
 Translational            0.889              2.981             40.409
 Rotational               0.889              2.981             28.545
 Vibrational            103.479             25.504             17.397
 Vibration     1          0.601              1.957              3.692
 Vibration     2          0.625              1.879              2.435
 Vibration     3          0.670              1.739              1.636
 Vibration     4          0.687              1.691              1.469
 Vibration     5          0.691              1.678              1.430
 Vibration     6          0.721              1.591              1.202
 Vibration     7          0.759              1.488              0.994
 Vibration     8          0.805              1.372              0.810
 Vibration     9          0.867              1.224              0.629
 Vibration    10          0.908              1.133              0.538

 Normal termination of Gaussian 09 at Tue Jan 28 03:35:01 2020.
