 Gaussian 09, Revision D.01,
 Gaussian 09:  ES64L-G09RevD.01 24-Apr-2013

 -----------------------------
 # b3lyp 6-31G(2df,p) opt Freq
 -----------------------------

 -----
 titel
 -----
 Symbolic Z-matrix:
 Charge =  0 Multiplicity = 1

 SCF Done:  E(RB3LYP) =  -423.141912719     A.U. after   14 cycles
 Optimization completed.
    -- Stationary point found.
 Normal termination of Gaussian 09 at Mon Jan 27 23:47:03 2020.

 ----------------------------------------------------------------------
 #N Geom=AllCheck Guess=TCheck SCRF=Check GenChk RB3LYP/6-31G(2df,p) Fr
 eq
 ----------------------------------------------------------------------

 Structure from the checkpoint file:  "/scratch/puck/g09_9530cfdf-425b-4f0b-ab70-e9f69c67301c/Gau-186091.chk"
 -----
 titel
 -----
 Charge =  0 Multiplicity = 1

                         Standard orientation:
 ---------------------------------------------------------------------
 Center     Atomic      Atomic             Coordinates (Angstroms)
 Number     Number       Type             X           Y           Z
 ---------------------------------------------------------------------
      1          6           0       -1.517146    1.722227    0.059310
      2          6           0       -0.446295    0.830638   -0.558403
      3          6           0        1.006207    1.025430   -0.073633
      4          8           0        1.731711    0.119769   -0.960850
      5          6           0        1.121876   -0.923839   -0.203562
      6          6           0        1.028260   -0.094443    1.072559
      7          8           0       -0.305630   -0.499583    1.359463
      8          6           0       -0.460640   -0.652081   -0.094670
      9          6           0       -1.535838   -1.608803   -0.513889
     10          1           0       -1.531720    1.622621    1.146525
     11          1           0       -1.336082    2.772287   -0.192839
     12          1           0       -2.511711    1.462258   -0.318409
     13          1           0       -0.448510    0.904086   -1.650171
     14          1           0        1.443579    2.019513    0.002936
     15          1           0        1.518842   -1.928218   -0.343752
     16          1           0        1.716311   -0.047665    1.914144
     17          1           0       -1.374145   -2.595634   -0.070736
     18          1           0       -2.522486   -1.252722   -0.199342
     19          1           0       -1.541266   -1.712801   -1.603533
 ---------------------------------------------------------------------

 SCF Done:  E(RB3LYP) =  -423.141912719     A.U. after    1 cycles

 The electronic state is 1-A.
 Alpha  occ. eigenvalues --  -19.14035 -19.14014 -10.24248 -10.23864 -10.23724
 Alpha  occ. eigenvalues --  -10.23712 -10.18892 -10.18494 -10.17482  -1.08248
 Alpha  occ. eigenvalues --   -1.02183  -0.79394  -0.74887  -0.71962  -0.67429
 Alpha  occ. eigenvalues --   -0.65134  -0.56019  -0.53944  -0.50526  -0.49159
 Alpha  occ. eigenvalues --   -0.46178  -0.43411  -0.42980  -0.41050  -0.40075
 Alpha  occ. eigenvalues --   -0.39532  -0.37207  -0.36749  -0.34650  -0.33014
 Alpha  occ. eigenvalues --   -0.31468  -0.30650  -0.25625  -0.23717
 Alpha virt. eigenvalues --    0.06570   0.09735   0.10878   0.11926   0.12924
 Alpha virt. eigenvalues --    0.13700   0.14503   0.14754   0.16244   0.16628
 Alpha virt. eigenvalues --    0.17376   0.17676   0.18785   0.20069   0.21290

 Mulliken charges:
               1
     1  C   -0.429996
     2  C    0.008454
     3  C    0.005503
     4  O   -0.294510
     5  C    0.009916
     6  C    0.061391
     7  O   -0.324045
     8  C    0.367947
     9  C   -0.514534
    10  H    0.137107
    11  H    0.113148
    12  H    0.116163
    13  H    0.083406
    14  H    0.081840
    15  H    0.091581
    16  H    0.094953
    17  H    0.129366
    18  H    0.133350
    19  H    0.128961
 Sum of Mulliken charges =   0.00000

 Dipole moment (field-independent basis, Debye):
    X=             -0.5312    Y=             -0.0128    Z=             -0.1541  Tot=              0.5533
 Quadrupole moment (field-independent basis, Debye-Ang):
   XX=            -54.2471   YY=            -49.5807   ZZ=            -56.0190
   XY=             -0.0874   XZ=              5.0912   YZ=              1.6332

  Exact polarizability:  77.307   0.323  78.218   3.563   0.747  65.284
 Approx polarizability: 110.485   2.198 110.326  -0.375  -0.846 106.011

                      1                      2                      3
                      A                      A                      A
 Frequencies --    174.6819               192.9079               203.2674
 Red. masses --      1.2920                 1.3062                 1.3549
 Frc consts  --      0.0232                 0.0286                 0.0330
 IR Inten    --      0.0867                 0.0457                 0.1372

                      4                      5                      6
                      A                      A                      A
 Frequencies --    242.4867               279.7394               320.4304
 Red. masses --      2.4874                 3.0270                 2.7266
 Frc consts  --      0.0862                 0.1396                 0.1649
 IR Inten    --      0.1032                 0.7395                 1.3135

                      7                      8                      9
                      A                      A                      A
 Frequencies --    509.1804               519.0009               581.0660
 Red. masses --      4.0935                 5.7376                 4.1943
 Frc consts  --      0.6253                 0.9106                 0.8344
 IR Inten    --     10.3344                10.5218                 5.1865

                     10                     11                     12
                      A                      A                      A
 Frequencies --    621.7714               701.9234               749.4567
 Red. masses --      3.6942                 4.2609                 3.1801
 Frc consts  --      0.8414                 1.2369                 1.0524
 IR Inten    --      0.0593                 0.7076                 3.9802

                     13                     14                     15
                      A                      A                      A
 Frequencies --    782.4707               817.7284               844.9180
 Red. masses --      2.5121                 3.1965                 3.2878
 Frc consts  --      0.9062                 1.2593                 1.3829
 IR Inten    --     10.3840                 3.1383                11.2141

                     16                     17                     18
                      A                      A                      A
 Frequencies --    854.3412               863.2495               925.0574
 Red. masses --      1.8108                 2.1859                 3.9606
 Frc consts  --      0.7787                 0.9598                 1.9969
 IR Inten    --     24.9283                 4.3995                31.0936

                     19                     20                     21
                      A                      A                      A
 Frequencies --    978.1712              1005.0648              1028.3317
 Red. masses --      3.2163                 2.1147                 1.7045
 Frc consts  --      1.8131                 1.2586                 1.0620
 IR Inten    --     20.3897                39.5815                18.7924

                     22                     23                     24
                      A                      A                      A
 Frequencies --   1043.0131              1053.2208              1105.1390
 Red. masses --      1.7873                 2.0155                 1.8091
 Frc consts  --      1.1456                 1.3173                 1.3018
 IR Inten    --      4.9331                23.2659                 1.1160

                     25                     26                     27
                      A                      A                      A
 Frequencies --   1135.2177              1146.0956              1148.4848
 Red. masses --      1.8265                 2.3660                 2.4527
 Frc consts  --      1.3869                 1.8311                 1.9061
 IR Inten    --      4.9805                 4.7043                 3.7235

                     28                     29                     30
                      A                      A                      A
 Frequencies --   1171.7832              1206.4055              1226.0559
 Red. masses --      1.4783                 1.3665                 1.9044
 Frc consts  --      1.1959                 1.1718                 1.6867
 IR Inten    --      1.1303                 0.7462                 0.5402

                     31                     32                     33
                      A                      A                      A
 Frequencies --   1269.2169              1283.8764              1327.8853
 Red. masses --      1.6460                 1.7273                 1.9473
 Frc consts  --      1.5622                 1.6775                 2.0230
 IR Inten    --      4.7825                28.5308                 7.9606

                     34                     35                     36
                      A                      A                      A
 Frequencies --   1339.6501              1373.9485              1404.3835
 Red. masses --      1.9278                 1.7288                 1.2570
 Frc consts  --      2.0385                 1.9229                 1.4607
 IR Inten    --      2.5791                 0.6498                 4.6994

                     37                     38                     39
                      A                      A                      A
 Frequencies --   1415.1063              1477.9192              1490.3196
 Red. masses --      1.5599                 1.0500                 1.0469
 Frc consts  --      1.8404                 1.3513                 1.3699
 IR Inten    --      8.8901                 3.1159                 7.3639

                     40                     41                     42
                      A                      A                      A
 Frequencies --   1497.9459              1507.9535              3036.4976
 Red. masses --      1.0468                 1.0512                 1.0358
 Frc consts  --      1.3840                 1.4083                 5.6268
 IR Inten    --      0.8681                 4.0821                15.6750

                     43                     44                     45
                      A                      A                      A
 Frequencies --   3038.4413              3068.7970              3095.3085
 Red. masses --      1.0373                 1.0840                 1.1008
 Frc consts  --      5.6423                 6.0146                 6.2138
 IR Inten    --     29.4145                13.1324                22.4495

                     46                     47                     48
                      A                      A                      A
 Frequencies --   3105.4798              3114.8029              3132.5000
 Red. masses --      1.1007                 1.1015                 1.0902
 Frc consts  --      6.2541                 6.2963                 6.3030
 IR Inten    --     14.1483                12.8336                26.7732

                     49                     50                     51
                      A                      A                      A
 Frequencies --   3133.6029              3137.2934              3150.9458
 Red. masses --      1.0990                 1.0907                 1.0971
 Frc consts  --      6.3581                 6.3252                 6.4178
 IR Inten    --     12.9020                37.8174                36.2230

 - Thermochemistry -
 -------------------
 Temperature   298.150 Kelvin.  Pressure   1.00000 Atm.
 Atom     1 has atomic number  6 and mass  12.00000

 Molecular mass:   126.06808 amu.
 Principal axes and moments of inertia in atomic units:
                           1         2         3
     Eigenvalues --   770.63129 910.792091139.20618
           X            0.99782  -0.03385   0.05665
           Y            0.03119   0.99840   0.04724
           Z           -0.05816  -0.04537   0.99728
 This molecule is an asymmetric top.
 Rotational symmetry number  1.
 Warning -- assumption of classical behavior for rotation
           may cause significant error
 Rotational temperatures (Kelvin)      0.11239     0.09510     0.07603
 Rotational constants (GHZ):           2.34190     1.98151     1.58421
 Zero-point vibrational energy     417691.3 (Joules/Mol)
                                   99.83062 (Kcal/Mol)
 Warning -- explicit consideration of   9 degrees of freedom as
           vibrations may cause significant error
 Vibrational temperatures:    251.33   277.55   292.46   348.88   402.48
          (Kelvin)            461.03   732.60   746.73   836.02   894.59
                             1009.91  1078.30  1125.80  1176.53  1215.65
                             1229.20  1242.02  1330.95  1407.37  1446.06
                             1479.54  1500.66  1515.35  1590.05  1633.32
                             1648.97  1652.41  1685.93  1735.75  1764.02
                             1826.12  1847.21  1910.53  1927.46  1976.80
                             2020.59  2036.02  2126.39  2144.23  2155.21
                             2169.61  4368.84  4371.63  4415.31  4453.45
                             4468.09  4481.50  4506.96  4508.55  4513.86
                             4533.50

 Zero-point correction=                           0.159090 (Hartree/Particle)
 Thermal correction to Energy=                    0.166737
 Thermal correction to Enthalpy=                  0.167681
 Thermal correction to Gibbs Free Energy=         0.127473
 Sum of electronic and zero-point Energies=           -422.982822
 Sum of electronic and thermal Energies=              -422.975176
 Sum of electronic and thermal Enthalpies=            -422.974232
 Sum of electronic and thermal Free Energies=         -423.014439

                     E (Thermal)             CV                S
                      KCal/Mol        Cal/Mol-Kelvin    Cal/Mol-Kelvin
 Total                  104.629             30.778             84.625
 Electronic               0.000              0.000              0.000
 Translational            0.889              2.981             40.409
 Rotational               0.889              2.981             28.171
 Vibrational            102.852             24.817             16.045
 Vibration     1          0.627              1.874              2.385
 Vibration     2          0.635              1.850              2.200
 Vibration     3          0.639              1.835              2.103
 Vibration     4          0.659              1.775              1.785
 Vibration     5          0.680              1.711              1.535
 Vibration     6          0.706              1.634              1.308
 Vibration     7          0.864              1.230              0.636
 Vibration     8          0.874              1.208              0.612
 Vibration     9          0.938              1.072              0.483

 Optimization completed.
    -- Stationary point found.
 Normal termination of Gaussian 09 at Tue Jan 28 00:33:30 2020.
