 Gaussian 09, Revision D.01,
 Gaussian 09:  ES64L-G09RevD.01 24-Apr-2013

 -----------------------------
 # b3lyp 6-31G(2df,p) opt Freq
 -----------------------------

 -----
 titel
 -----
 Symbolic Z-matrix:
 Charge =  0 Multiplicity = 1

 SCF Done:  E(RB3LYP) =  -423.156360132     A.U. after   14 cycles
 Optimization completed.
    -- Stationary point found.
 Normal termination of Gaussian 09 at Mon Jan 27 12:19:48 2020.

 ----------------------------------------------------------------------
 #N Geom=AllCheck Guess=TCheck SCRF=Check GenChk RB3LYP/6-31G(2df,p) Fr
 eq
 ----------------------------------------------------------------------

 Structure from the checkpoint file:  "/scratch/puck/g09_d3541009-1822-4c6c-a3bd-e5729e6d2a34/Gau-152726.chk"
 -----
 titel
 -----
 Charge =  0 Multiplicity = 1

                         Standard orientation:
 ---------------------------------------------------------------------
 Center     Atomic      Atomic             Coordinates (Angstroms)
 Number     Number       Type             X           Y           Z
 ---------------------------------------------------------------------
      1          6           0        2.139942   -0.729895    0.122495
      2          8           0        2.148064    0.709492   -0.079786
      3          6           0        0.729328    0.670586   -0.375358
      4          6           0       -0.173555    1.765749    0.127389
      5          6           0       -1.612175    1.305216    0.033817
      6          6           0       -2.130968    0.071812   -0.028384
      7          6           0       -1.583171   -1.345225    0.038141
      8          8           0       -0.222775   -1.610817   -0.261479
      9          6           0        0.620145   -0.674570    0.334080
     10          1           0        2.425252   -1.273707   -0.788271
     11          1           0        2.774746   -1.034205    0.958817
     12          1           0        0.573882    0.523169   -1.455217
     13          1           0        0.074277    2.003106    1.172059
     14          1           0       -0.044966    2.695671   -0.438931
     15          1           0       -2.335511    2.118377    0.027965
     16          1           0       -3.220431    0.027952   -0.060113
     17          1           0       -1.813516   -1.719508    1.054058
     18          1           0       -2.158052   -1.968186   -0.655401
     19          1           0        0.384737   -0.544109    1.402076
 ---------------------------------------------------------------------

 SCF Done:  E(RB3LYP) =  -423.156360132     A.U. after    1 cycles

 The electronic state is 1-A.
 Alpha  occ. eigenvalues --  -19.14854 -19.13397 -10.24232 -10.23314 -10.22992
 Alpha  occ. eigenvalues --  -10.22571 -10.19416 -10.19315 -10.19054  -1.05412
 Alpha  occ. eigenvalues --   -1.02811  -0.80934  -0.76664  -0.71911  -0.67437
 Alpha  occ. eigenvalues --   -0.64552  -0.56904  -0.54209  -0.50895  -0.49390
 Alpha  occ. eigenvalues --   -0.48134  -0.44875  -0.43488  -0.42243  -0.41669
 Alpha  occ. eigenvalues --   -0.40546  -0.37483  -0.37411  -0.32847  -0.32764
 Alpha  occ. eigenvalues --   -0.31066  -0.26393  -0.25073  -0.24259
 Alpha virt. eigenvalues --    0.01436   0.07164   0.09800   0.10656   0.12098
 Alpha virt. eigenvalues --    0.12848   0.14010   0.15642   0.15692   0.17119
 Alpha virt. eigenvalues --    0.18349   0.18885   0.19312   0.20660   0.21374

 Mulliken charges:
               1
     1  C   -0.141419
     2  O   -0.309352
     3  C    0.162976
     4  C   -0.317292
     5  C   -0.072803
     6  C   -0.052647
     7  C   -0.133349
     8  O   -0.245012
     9  C    0.090828
    10  H    0.108304
    11  H    0.110137
    12  H    0.077693
    13  H    0.119314
    14  H    0.112230
    15  H    0.092125
    16  H    0.093690
    17  H    0.107938
    18  H    0.121641
    19  H    0.074995
 Sum of Mulliken charges =   0.00000

 Dipole moment (field-independent basis, Debye):
    X=             -1.7649    Y=             -0.1372    Z=              0.6985  Tot=              1.9030
 Quadrupole moment (field-independent basis, Debye-Ang):
   XX=            -53.0470   YY=            -53.5285   ZZ=            -53.0332
   XY=             -2.6419   XZ=              0.5967   YZ=             -1.0345

  Exact polarizability:  87.973   1.259  84.643   1.794   0.061  58.486
 Approx polarizability: 115.786   8.889 129.256   3.206   2.166  92.236

                      1                      2                      3
                      A                      A                      A
 Frequencies --    115.7566               150.5199               229.4451
 Red. masses --      2.1324                 3.8628                 2.2976
 Frc consts  --      0.0168                 0.0516                 0.0713
 IR Inten    --      0.1263                 0.2479                 5.3857

                      4                      5                      6
                      A                      A                      A
 Frequencies --    326.4138               335.7566               362.4738
 Red. masses --      3.1198                 5.1017                 3.9538
 Frc consts  --      0.1958                 0.3389                 0.3061
 IR Inten    --      5.1891                 4.3561                 0.7516

                      7                      8                      9
                      A                      A                      A
 Frequencies --    417.9416               486.4617               526.2639
 Red. masses --      2.5745                 4.5757                 2.8935
 Frc consts  --      0.2650                 0.6380                 0.4722
 IR Inten    --      0.4414                 2.5690                 2.9383

                     10                     11                     12
                      A                      A                      A
 Frequencies --    663.2103               708.3095               788.4364
 Red. masses --      1.4385                 2.5970                 4.0304
 Frc consts  --      0.3728                 0.7677                 1.4762
 IR Inten    --     18.7180                10.7623                 1.7028

                     13                     14                     15
                      A                      A                      A
 Frequencies --    803.9672               875.7893               932.1651
 Red. masses --      3.1961                 2.5298                 1.6615
 Frc consts  --      1.2171                 1.1432                 0.8506
 IR Inten    --      2.3335                12.9981                 5.4651

                     16                     17                     18
                      A                      A                      A
 Frequencies --    953.3928               975.2280              1000.5271
 Red. masses --      2.5286                 4.4534                 1.8250
 Frc consts  --      1.3542                 2.4955                 1.0764
 IR Inten    --      3.4129                62.5457                21.5094

                     19                     20                     21
                      A                      A                      A
 Frequencies --   1018.3875              1025.3675              1072.8750
 Red. masses --      2.6830                 1.5278                 2.6827
 Frc consts  --      1.6395                 0.9464                 1.8193
 IR Inten    --     33.4578                 4.3675                14.6877

                     22                     23                     24
                      A                      A                      A
 Frequencies --   1094.6427              1110.1635              1140.8104
 Red. masses --      3.2208                 1.9787                 1.6626
 Frc consts  --      2.2739                 1.4369                 1.2749
 IR Inten    --     19.6120                 2.0850                 4.5575

                     25                     26                     27
                      A                      A                      A
 Frequencies --   1169.9512              1198.7731              1204.0801
 Red. masses --      1.6505                 2.1106                 1.4629
 Frc consts  --      1.3311                 1.7870                 1.2496
 IR Inten    --     19.7443                85.7472                15.9880

                     28                     29                     30
                      A                      A                      A
 Frequencies --   1254.4910              1280.2429              1297.4800
 Red. masses --      1.3388                 1.2080                 1.1861
 Frc consts  --      1.2413                 1.1665                 1.1764
 IR Inten    --     14.6850                 4.7533                18.7845

                     31                     32                     33
                      A                      A                      A
 Frequencies --   1306.4052              1325.6152              1358.4050
 Red. masses --      1.3668                 1.3269                 1.4249
 Frc consts  --      1.3744                 1.3738                 1.5492
 IR Inten    --      0.8298                 2.6591                 0.3269

                     34                     35                     36
                      A                      A                      A
 Frequencies --   1399.5761              1405.9137              1431.4196
 Red. masses --      1.3273                 1.4171                 1.3291
 Frc consts  --      1.5319                 1.6503                 1.6045
 IR Inten    --      6.6364                17.3262                10.4970

                     37                     38                     39
                      A                      A                      A
 Frequencies --   1440.0819              1483.7544              1485.6453
 Red. masses --      1.5628                 1.1134                 1.1243
 Frc consts  --      1.9096                 1.4442                 1.4620
 IR Inten    --     24.9121                 2.2655                12.1767

                     40                     41                     42
                      A                      A                      A
 Frequencies --   1517.3244              1712.6411              2925.2886
 Red. masses --      1.1471                 6.8442                 1.0732
 Frc consts  --      1.5560                11.8279                 5.4108
 IR Inten    --      3.8363                 1.2571                52.7411

                     43                     44                     45
                      A                      A                      A
 Frequencies --   2978.4482              2989.9055              3012.1545
 Red. masses --      1.0820                 1.0832                 1.0646
 Frc consts  --      5.6552                 5.7051                 5.6909
 IR Inten    --      8.5001                42.7971                23.5388

                     46                     47                     48
                      A                      A                      A
 Frequencies --   3017.3480              3057.1199              3064.3498
 Red. masses --      1.0628                 1.0964                 1.0867
 Frc consts  --      5.7012                 6.0371                 6.0120
 IR Inten    --     68.1166                25.9762                24.4256

                     49                     50                     51
                      A                      A                      A
 Frequencies --   3095.8497              3113.1534              3146.0374
 Red. masses --      1.1041                 1.0837                 1.0911
 Frc consts  --      6.2346                 6.1881                 6.3626
 IR Inten    --     42.4089                11.1229                33.1215

 - Thermochemistry -
 -------------------
 Temperature   298.150 Kelvin.  Pressure   1.00000 Atm.
 Atom     1 has atomic number  6 and mass  12.00000

 Molecular mass:   126.06808 amu.
 Principal axes and moments of inertia in atomic units:
                           1         2         3
     Eigenvalues --   663.606251100.760561668.45256
           X            0.99959  -0.02857   0.00062
           Y            0.02857   0.99958  -0.00502
           Z           -0.00048   0.00503   0.99999
 This molecule is an asymmetric top.
 Rotational symmetry number  1.
 Warning -- assumption of classical behavior for rotation
           may cause significant error
 Rotational temperatures (Kelvin)      0.13052     0.07869     0.05191
 Rotational constants (GHZ):           2.71960     1.63954     1.08169
 Zero-point vibrational energy     423392.9 (Joules/Mol)
                                  101.19332 (Kcal/Mol)
 Warning -- explicit consideration of   9 degrees of freedom as
           vibrations may cause significant error
 Vibrational temperatures:    166.55   216.56   330.12   469.64   483.08
          (Kelvin)            521.52   601.32   699.91   757.18   954.21
                             1019.10  1134.38  1156.73  1260.06  1341.18
                             1371.72  1403.13  1439.53  1465.23  1475.27
                             1543.63  1574.94  1597.28  1641.37  1683.30
                             1724.76  1732.40  1804.93  1841.98  1866.78
                             1879.62  1907.26  1954.44  2013.68  2022.79
                             2059.49  2071.95  2134.79  2137.51  2183.09
                             2464.11  4208.83  4285.32  4301.80  4333.81
                             4341.29  4398.51  4408.91  4454.23  4479.13
                             4526.44

 Zero-point correction=                           0.161262 (Hartree/Particle)
 Thermal correction to Energy=                    0.168758
 Thermal correction to Enthalpy=                  0.169702
 Thermal correction to Gibbs Free Energy=         0.129316
 Sum of electronic and zero-point Energies=           -422.995098
 Sum of electronic and thermal Energies=              -422.987602
 Sum of electronic and thermal Enthalpies=            -422.986658
 Sum of electronic and thermal Free Energies=         -423.027044

                     E (Thermal)             CV                S
                      KCal/Mol        Cal/Mol-Kelvin    Cal/Mol-Kelvin
 Total                  105.897             29.501             84.999
 Electronic               0.000              0.000              0.000
 Translational            0.889              2.981             40.409
 Rotational               0.889              2.981             28.590
 Vibrational            104.120             23.539             16.001
 Vibration     1          0.608              1.936              3.170
 Vibration     2          0.618              1.902              2.666
 Vibration     3          0.652              1.796              1.883
 Vibration     4          0.710              1.623              1.278
 Vibration     5          0.717              1.604              1.232
 Vibration     6          0.736              1.550              1.111
 Vibration     7          0.781              1.431              0.899
 Vibration     8          0.842              1.280              0.693
 Vibration     9          0.881              1.192              0.596

 Optimization completed.
    -- Stationary point found.
 Normal termination of Gaussian 09 at Mon Jan 27 13:05:39 2020.
