 Gaussian 09, Revision D.01,
 Gaussian 09:  ES64L-G09RevD.01 24-Apr-2013

 -----------------------------
 # b3lyp 6-31G(2df,p) opt Freq
 -----------------------------

 -----
 titel
 -----
 Symbolic Z-matrix:
 Charge =  0 Multiplicity = 1

 SCF Done:  E(RB3LYP) =  -423.178889965     A.U. after   14 cycles
 SCF Done:  E(RB3LYP) =  -423.178889974     A.U. after    7 cycles
 SCF Done:  E(RB3LYP) =  -423.178889925     A.U. after    7 cycles
 SCF Done:  E(RB3LYP) =  -423.178890014     A.U. after    7 cycles
 SCF Done:  E(RB3LYP) =  -423.178890137     A.U. after    7 cycles
 Optimization completed.
    -- Stationary point found.
 Normal termination of Gaussian 09 at Mon Jan 27 16:20:17 2020.

 ----------------------------------------------------------------------
 #N Geom=AllCheck Guess=TCheck SCRF=Check GenChk RB3LYP/6-31G(2df,p) Fr
 eq
 ----------------------------------------------------------------------

 Structure from the checkpoint file:  "/scratch/puck/g09_f2faf043-c9e9-4a47-960d-b3a319f439ed/Gau-8710.chk"
 -----
 titel
 -----
 Charge =  0 Multiplicity = 1

                         Standard orientation:
 ---------------------------------------------------------------------
 Center     Atomic      Atomic             Coordinates (Angstroms)
 Number     Number       Type             X           Y           Z
 ---------------------------------------------------------------------
      1          6           0        1.466121   -1.887670   -0.131116
      2          6           0        1.399429   -0.364412   -0.296356
      3          6           0        2.490613    0.331196    0.527472
      4          6           0        0.006014    0.166835    0.096743
      5          8           0       -0.971467   -0.507982   -0.748216
      6          6           0       -2.166134   -0.774809   -0.194964
      7          8           0       -2.506903   -0.527733    0.927597
      8          6           0       -0.138397    1.608940   -0.078943
      9          6           0       -0.248402    2.795151   -0.233507
     10          1           0        1.313975   -2.175596    0.916043
     11          1           0        0.710107   -2.391826   -0.736676
     12          1           0        2.449411   -2.257772   -0.436417
     13          1           0        1.545557   -0.116185   -1.354867
     14          1           0        2.370016    0.120639    1.596662
     15          1           0        3.477633   -0.033145    0.227867
     16          1           0        2.470081    1.415034    0.391531
     17          1           0       -0.218229   -0.096983    1.135960
     18          1           0       -2.791434   -1.274270   -0.951253
     19          1           0       -0.355615    3.844440   -0.359871
 ---------------------------------------------------------------------

 SCF Done:  E(RB3LYP) =  -423.178890137     A.U. after    1 cycles

 The electronic state is 1-A.
 Alpha  occ. eigenvalues --  -19.19378 -19.13759 -10.31223 -10.26899 -10.20395
 Alpha  occ. eigenvalues --  -10.19070 -10.18597 -10.18056 -10.18011  -1.10857
 Alpha  occ. eigenvalues --   -1.02634  -0.82989  -0.76412  -0.71492  -0.69083
 Alpha  occ. eigenvalues --   -0.61616  -0.58904  -0.54421  -0.52470  -0.50112
 Alpha  occ. eigenvalues --   -0.47744  -0.45286  -0.44316  -0.41815  -0.40090
 Alpha  occ. eigenvalues --   -0.38883  -0.37609  -0.35952  -0.34523  -0.33976
 Alpha  occ. eigenvalues --   -0.31661  -0.28884  -0.27772  -0.27501
 Alpha virt. eigenvalues --    0.00444   0.02810   0.04424   0.08981   0.12024
 Alpha virt. eigenvalues --    0.12031   0.13320   0.14336   0.14784   0.16262
 Alpha virt. eigenvalues --    0.16889   0.17562   0.18666   0.20000   0.23037

 Mulliken charges:
               1
     1  C   -0.403462
     2  C    0.017376
     3  C   -0.401598
     4  C   -0.062347
     5  O   -0.214838
     6  C    0.185929
     7  O   -0.298180
     8  C    0.342171
     9  C   -0.444977
    10  H    0.117473
    11  H    0.127197
    12  H    0.116382
    13  H    0.094657
    14  H    0.117980
    15  H    0.117797
    16  H    0.133358
    17  H    0.138156
    18  H    0.112485
    19  H    0.204441
 Sum of Mulliken charges =   0.00000

 Dipole moment (field-independent basis, Debye):
    X=              1.6617    Y=             -0.0367    Z=             -1.1643  Tot=              2.0294
 Quadrupole moment (field-independent basis, Debye-Ang):
   XX=            -55.2489   YY=            -47.5634   ZZ=            -55.5958
   XY=             -0.0910   XZ=              4.7903   YZ=              0.2438

  Exact polarizability:  81.715   0.738  91.958   0.415  -0.193  61.794
 Approx polarizability: 104.534  -0.349 134.958  -5.287  -1.776 102.948

                      1                      2                      3
                      A                      A                      A
 Frequencies --     31.6025                68.9401               138.9392
 Red. masses --      7.8554                 2.7731                 4.1654
 Frc consts  --      0.0046                 0.0078                 0.0474
 IR Inten    --      1.0811                 0.1354                 1.2024

                      4                      5                      6
                      A                      A                      A
 Frequencies --    169.1109               193.1102               225.2438
 Red. masses --      3.4267                 2.5190                 1.1222
 Frc consts  --      0.0577                 0.0553                 0.0335
 IR Inten    --      2.1183                 3.0077                 0.7515

                      7                      8                      9
                      A                      A                      A
 Frequencies --    250.9655               282.9086               331.4657
 Red. masses --      1.1285                 5.2044                 3.2068
 Frc consts  --      0.0419                 0.2454                 0.2076
 IR Inten    --      0.9191                 3.4609                 9.0861

                     10                     11                     12
                      A                      A                      A
 Frequencies --    357.1487               408.2927               436.3282
 Red. masses --      2.5973                 2.8256                 3.1123
 Frc consts  --      0.1952                 0.2775                 0.3491
 IR Inten    --      1.0631                 2.9409                 2.7660

                     13                     14                     15
                      A                      A                      A
 Frequencies --    521.0064               571.5474               627.8515
 Red. masses --      4.5348                 7.4112                 1.2197
 Frc consts  --      0.7253                 1.4264                 0.2833
 IR Inten    --      5.0586                12.2610                40.2643

                     16                     17                     18
                      A                      A                      A
 Frequencies --    674.3807               758.5839               874.8403
 Red. masses --      1.2580                 4.9702                 2.3484
 Frc consts  --      0.3371                 1.6851                 1.0590
 IR Inten    --     33.4062                 1.9346                 6.2215

                     19                     20                     21
                      A                      A                      A
 Frequencies --    898.7447               935.3277               953.1857
 Red. masses --      3.3940                 1.2022                 2.0861
 Frc consts  --      1.6152                 0.6197                 1.1167
 IR Inten    --     11.4250                 0.2383                45.4260

                     22                     23                     24
                      A                      A                      A
 Frequencies --    975.5747              1021.7818              1045.5727
 Red. masses --      1.8850                 2.8940                 1.6577
 Frc consts  --      1.0570                 1.7802                 1.0678
 IR Inten    --     22.7453                22.6887                 1.0914

                     25                     26                     27
                      A                      A                      A
 Frequencies --   1137.3579              1168.4330              1190.2322
 Red. masses --      2.2675                 2.4232                 4.0667
 Frc consts  --      1.7282                 1.9492                 3.3943
 IR Inten    --     17.4915                38.5490               295.8033

                     28                     29                     30
                      A                      A                      A
 Frequencies --   1193.8872              1286.4249              1344.3641
 Red. masses --      1.9884                 1.3653                 1.3653
 Frc consts  --      1.6699                 1.3312                 1.4538
 IR Inten    --     45.9443                 9.2242                 4.0424

                     31                     32                     33
                      A                      A                      A
 Frequencies --   1360.0436              1379.4972              1401.2094
 Red. masses --      1.2622                 1.3818                 1.2511
 Frc consts  --      1.3755                 1.5493                 1.4472
 IR Inten    --     12.9580                 5.8174                 2.1016

                     34                     35                     36
                      A                      A                      A
 Frequencies --   1406.8934              1422.7044              1489.8229
 Red. masses --      1.1394                 1.2236                 1.0505
 Frc consts  --      1.3288                 1.4593                 1.3737
 IR Inten    --      2.5379                 5.3335                 1.7323

                     37                     38                     39
                      A                      A                      A
 Frequencies --   1492.6306              1503.1874              1515.6609
 Red. masses --      1.0418                 1.0487                 1.0535
 Frc consts  --      1.3676                 1.3961                 1.4259
 IR Inten    --      1.0660                 5.1441                 9.9213

                     40                     41                     42
                      A                      A                      A
 Frequencies --   1824.2919              2239.7449              3029.5005
 Red. masses --      9.5828                 5.8988                 1.0901
 Frc consts  --     18.7902                17.4346                 5.8947
 IR Inten    --    278.7029                 2.2700                62.0259

                     43                     44                     45
                      A                      A                      A
 Frequencies --   3031.0211              3033.1250              3039.1409
 Red. masses --      1.0725                 1.0393                 1.0480
 Frc consts  --      5.8054                 5.6332                 5.7031
 IR Inten    --      6.9897                13.2760                26.9832

                     46                     47                     48
                      A                      A                      A
 Frequencies --   3063.5889              3098.4157              3105.0081
 Red. masses --      1.0823                 1.0990                 1.0985
 Frc consts  --      5.9848                 6.2162                 6.2397
 IR Inten    --     10.9490                 2.3762                50.6793

                     49                     50                     51
                      A                      A                      A
 Frequencies --   3125.8397              3129.0425              3501.6496
 Red. masses --      1.1008                 1.1000                 1.1633
 Frc consts  --      6.3373                 6.3453                 8.4041
 IR Inten    --     18.5701                19.9280                65.1327

 - Thermochemistry -
 -------------------
 Temperature   298.150 Kelvin.  Pressure   1.00000 Atm.
 Atom     1 has atomic number  6 and mass  12.00000

 Molecular mass:   126.06808 amu.
 Principal axes and moments of inertia in atomic units:
                           1         2         3
     Eigenvalues --   920.199261341.849831997.40691
           X            0.99906  -0.03932   0.01841
           Y            0.03920   0.99921   0.00687
           Z           -0.01867  -0.00615   0.99981
 This molecule is an asymmetric top.
 Rotational symmetry number  1.
 Warning -- assumption of classical behavior for rotation
           may cause significant error
 Rotational temperatures (Kelvin)      0.09413     0.06455     0.04336
 Rotational constants (GHZ):           1.96125     1.34497     0.90354
 Zero-point vibrational energy     408316.4 (Joules/Mol)
                                   97.58996 (Kcal/Mol)
 Warning -- explicit consideration of  14 degrees of freedom as
           vibrations may cause significant error
 Vibrational temperatures:     45.47    99.19   199.90   243.31   277.84
          (Kelvin)            324.08   361.08   407.04   476.90   513.86
                              587.44   627.78   749.61   822.33   903.34
                              970.28  1091.43  1258.70  1293.09  1345.73
                             1371.42  1403.63  1470.11  1504.34  1636.40
                             1681.11  1712.48  1717.74  1850.88  1934.24
                             1956.80  1984.79  2016.03  2024.20  2046.95
                             2143.52  2147.56  2162.75  2180.70  2624.75
                             3222.49  4358.77  4360.96  4363.98  4372.64
                             4407.82  4457.92  4467.41  4497.38  4501.99
                             5038.09

 Zero-point correction=                           0.155520 (Hartree/Particle)
 Thermal correction to Energy=                    0.165840
 Thermal correction to Enthalpy=                  0.166784
 Thermal correction to Gibbs Free Energy=         0.119435
 Sum of electronic and zero-point Energies=           -423.023371
 Sum of electronic and thermal Energies=              -423.013050
 Sum of electronic and thermal Enthalpies=            -423.012106
 Sum of electronic and thermal Free Energies=         -423.059456

                     E (Thermal)             CV                S
                      KCal/Mol        Cal/Mol-Kelvin    Cal/Mol-Kelvin
 Total                  104.066             36.773             99.656
 Electronic               0.000              0.000              0.000
 Translational            0.889              2.981             40.409
 Rotational               0.889              2.981             29.291
 Vibrational            102.289             30.812             29.957
 Vibration     1          0.594              1.983              5.726
 Vibration     2          0.598              1.969              4.183
 Vibration     3          0.615              1.914              2.818
 Vibration     4          0.625              1.880              2.445
 Vibration     5          0.635              1.849              2.198
 Vibration     6          0.650              1.803              1.917
 Vibration     7          0.663              1.761              1.724
 Vibration     8          0.682              1.705              1.516
 Vibration     9          0.714              1.613              1.253
 Vibration    10          0.732              1.561              1.134
 Vibration    11          0.773              1.452              0.933
 Vibration    12          0.797              1.391              0.838
 Vibration    13          0.876              1.203              0.608
 Vibration    14          0.928              1.093              0.501

 Normal termination of Gaussian 09 at Mon Jan 27 18:01:50 2020.
 Normal termination of Gaussian 09 at Mon Jan 27 15:24:20 2020.
