 Gaussian 09, Revision D.01,
 Gaussian 09:  ES64L-G09RevD.01 24-Apr-2013

 -----------------------------
 # b3lyp 6-31G(2df,p) opt Freq
 -----------------------------

 -----
 titel
 -----
 Symbolic Z-matrix:
 Charge =  0 Multiplicity = 1

 SCF Done:  E(RB3LYP) =  -423.212342260     A.U. after   14 cycles
 Optimization completed.
    -- Stationary point found.
 Normal termination of Gaussian 09 at Tue Jan 28 00:44:57 2020.

 ----------------------------------------------------------------------
 #N Geom=AllCheck Guess=TCheck SCRF=Check GenChk RB3LYP/6-31G(2df,p) Fr
 eq
 ----------------------------------------------------------------------

 Structure from the checkpoint file:  "/scratch/puck/g09_cc6d0772-b830-4753-abdf-86c78845a2a2/Gau-189847.chk"
 -----
 titel
 -----
 Charge =  0 Multiplicity = 1

                         Standard orientation:
 ---------------------------------------------------------------------
 Center     Atomic      Atomic             Coordinates (Angstroms)
 Number     Number       Type             X           Y           Z
 ---------------------------------------------------------------------
      1          6           0       -2.950627   -0.469384   -0.420385
      2          6           0       -1.626045   -0.365609    0.335521
      3          8           0       -0.532984   -0.714256   -0.532720
      4          6           0        0.408977    0.346471   -0.618368
      5          6           0       -0.150245    1.434743    0.264383
      6          6           0       -1.284543    1.020475    0.815394
      7          6           0        1.819494   -0.064774   -0.147697
      8          6           0        1.928436   -1.320509    0.686178
      9          8           0        2.763182    0.632381   -0.436414
     10          1           0       -3.792224   -0.263434    0.249408
     11          1           0       -2.978007    0.245911   -1.247442
     12          1           0       -3.073055   -1.477634   -0.825566
     13          1           0       -1.642490   -1.082080    1.173084
     14          1           0        0.517785    0.678998   -1.661500
     15          1           0        0.352434    2.382564    0.400768
     16          1           0       -1.913584    1.575083    1.500188
     17          1           0        1.285315   -1.241544    1.569583
     18          1           0        1.564454   -2.180007    0.115502
     19          1           0        2.965110   -1.471343    0.988890
 ---------------------------------------------------------------------

 SCF Done:  E(RB3LYP) =  -423.212342260     A.U. after    1 cycles

 The electronic state is 1-A.
 Alpha  occ. eigenvalues --  -19.14581 -19.12801 -10.26750 -10.24485 -10.24188
 Alpha  occ. eigenvalues --  -10.19817 -10.19577 -10.18400 -10.18155  -1.04863
 Alpha  occ. eigenvalues --   -1.03512  -0.79975  -0.78270  -0.73822  -0.68839
 Alpha  occ. eigenvalues --   -0.60239  -0.57495  -0.53539  -0.51072  -0.48277
 Alpha  occ. eigenvalues --   -0.46079  -0.44293  -0.43329  -0.41948  -0.40725
 Alpha  occ. eigenvalues --   -0.38970  -0.38540  -0.38355  -0.36054  -0.34611
 Alpha  occ. eigenvalues --   -0.32736  -0.28716  -0.27248  -0.22646
 Alpha virt. eigenvalues --   -0.01918   0.01573   0.08998   0.11282   0.12044
 Alpha virt. eigenvalues --    0.13871   0.14209   0.15580   0.15708   0.16103
 Alpha virt. eigenvalues --    0.17355   0.18029   0.18232   0.19357   0.22187

 Mulliken charges:
               1
     1  C   -0.389021
     2  C    0.085918
     3  O   -0.284182
     4  C   -0.020189
     5  C   -0.100662
     6  C   -0.097513
     7  C    0.353179
     8  C   -0.474626
     9  O   -0.304566
    10  H    0.114028
    11  H    0.123792
    12  H    0.128543
    13  H    0.084790
    14  H    0.111284
    15  H    0.126495
    16  H    0.111797
    17  H    0.140925
    18  H    0.154372
    19  H    0.135635
 Sum of Mulliken charges =   0.00000

 Dipole moment (field-independent basis, Debye):
    X=             -2.6013    Y=             -0.3124    Z=              1.4030  Tot=              2.9720
 Quadrupole moment (field-independent basis, Debye-Ang):
   XX=            -58.2833   YY=            -51.8522   ZZ=            -52.1894
   XY=             -4.0263   XZ=              0.3113   YZ=              0.0481

  Exact polarizability:  98.115   5.244  72.321  -6.875  -2.126  63.161
 Approx polarizability: 136.024  15.741 108.229 -18.766  -5.039  98.735

                      1                      2                      3
                      A                      A                      A
 Frequencies --     45.1297                61.5586               144.4864
 Red. masses --      4.0154                 3.8853                 3.3976
 Frc consts  --      0.0048                 0.0087                 0.0418
 IR Inten    --      4.5296                 0.3190                 0.8747

                      4                      5                      6
                      A                      A                      A
 Frequencies --    158.0967               222.1841               234.8989
 Red. masses --      1.0892                 3.3710                 1.0399
 Frc consts  --      0.0160                 0.0980                 0.0338
 IR Inten    --      0.3114                 5.6772                 0.1287

                      7                      8                      9
                      A                      A                      A
 Frequencies --    302.2749               358.3370               436.8722
 Red. masses --      2.9555                 3.2504                 4.5802
 Frc consts  --      0.1591                 0.2459                 0.5150
 IR Inten    --      2.4395                 5.9395                 1.8341

                     10                     11                     12
                      A                      A                      A
 Frequencies --    508.6702               516.7318               597.5278
 Red. masses --      3.0863                 2.8509                 2.8054
 Frc consts  --      0.4705                 0.4485                 0.5901
 IR Inten    --     14.7733                 0.5187                 6.8228

                     13                     14                     15
                      A                      A                      A
 Frequencies --    726.9911               755.1168               796.3785
 Red. masses --      1.9929                 3.0684                 2.1669
 Frc consts  --      0.6206                 1.0308                 0.8097
 IR Inten    --     14.5223                 6.1156                23.0032

                     16                     17                     18
                      A                      A                      A
 Frequencies --    812.9661               857.4116               899.8521
 Red. masses --      4.2366                 3.0615                 2.0372
 Frc consts  --      1.6497                 1.3261                 0.9719
 IR Inten    --     11.6849                 8.3633                10.9512

                     19                     20                     21
                      A                      A                      A
 Frequencies --    953.1839               965.6835              1002.5673
 Red. masses --      2.1118                 1.3132                 1.8595
 Frc consts  --      1.1305                 0.7215                 1.1012
 IR Inten    --      5.5407                 0.3185                 0.5775

                     22                     23                     24
                      A                      A                      A
 Frequencies --   1021.9817              1042.3757              1087.8254
 Red. masses --      1.7692                 1.9256                 1.7204
 Frc consts  --      1.0887                 1.2327                 1.1995
 IR Inten    --      5.0497                 1.8860                16.5069

                     25                     26                     27
                      A                      A                      A
 Frequencies --   1116.3842              1126.7625              1132.4553
 Red. masses --      3.9299                 2.2168                 1.3668
 Frc consts  --      2.8858                 1.6582                 1.0327
 IR Inten    --    103.8325                43.4482                 8.4034

                     28                     29                     30
                      A                      A                      A
 Frequencies --   1231.2233              1256.5090              1303.6368
 Red. masses --      3.0297                 1.4921                 1.2666
 Frc consts  --      2.7060                 1.3880                 1.2682
 IR Inten    --     62.1206                 2.2263                 3.1198

                     31                     32                     33
                      A                      A                      A
 Frequencies --   1326.3273              1358.2515              1373.9800
 Red. masses --      1.4675                 1.6402                 1.3795
 Frc consts  --      1.5210                 1.7828                 1.5344
 IR Inten    --     10.6471                11.4545                19.3022

                     34                     35                     36
                      A                      A                      A
 Frequencies --   1378.5694              1400.5148              1455.0587
 Red. masses --      1.3157                 1.2513                 1.0529
 Frc consts  --      1.4733                 1.4460                 1.3134
 IR Inten    --     21.7257                 4.5518                14.2241

                     37                     38                     39
                      A                      A                      A
 Frequencies --   1466.4027              1486.2062              1494.0655
 Red. masses --      1.0511                 1.0532                 1.0509
 Frc consts  --      1.3317                 1.3707                 1.3822
 IR Inten    --      9.1232                 2.8934                 2.4951

                     40                     41                     42
                      A                      A                      A
 Frequencies --   1684.7095              1814.8836              2963.9127
 Red. masses --      6.8174                11.2040                 1.0826
 Frc consts  --     11.4003                21.7431                 5.6034
 IR Inten    --      1.5448               175.4791                51.1354

                     43                     44                     45
                      A                      A                      A
 Frequencies --   2995.7345              3038.2961              3045.0624
 Red. masses --      1.0829                 1.0345                 1.0360
 Frc consts  --      5.7260                 5.6267                 5.6599
 IR Inten    --     32.3134                19.0352                 1.5745

                     46                     47                     48
                      A                      A                      A
 Frequencies --   3109.3729              3112.2659              3123.2717
 Red. masses --      1.0960                 1.1010                 1.1032
 Frc consts  --      6.2434                 6.2832                 6.3403
 IR Inten    --      4.8793                20.1285                20.1696

                     49                     50                     51
                      A                      A                      A
 Frequencies --   3157.1715              3212.4037              3241.1144
 Red. masses --      1.1043                 1.0870                 1.1053
 Frc consts  --      6.4853                 6.6093                 6.8410
 IR Inten    --     12.0308                 1.5356                 3.9377

 - Thermochemistry -
 -------------------
 Temperature   298.150 Kelvin.  Pressure   1.00000 Atm.
 Atom     1 has atomic number  6 and mass  12.00000

 Molecular mass:   126.06808 amu.
 Principal axes and moments of inertia in atomic units:
                           1         2         3
     Eigenvalues --   505.992651658.478661860.18303
           X            0.99983  -0.01315   0.01295
           Y            0.01359   0.99929  -0.03503
           Z           -0.01248   0.03520   0.99930
 This molecule is an asymmetric top.
 Rotational symmetry number  1.
 Warning -- assumption of classical behavior for rotation
           may cause significant error
 Rotational temperatures (Kelvin)      0.17118     0.05222     0.04656
 Rotational constants (GHZ):           3.56673     1.08819     0.97020
 Zero-point vibrational energy     412195.1 (Joules/Mol)
                                   98.51700 (Kcal/Mol)
 Warning -- explicit consideration of  12 degrees of freedom as
           vibrations may cause significant error
 Vibrational temperatures:     64.93    88.57   207.88   227.47   319.67
          (Kelvin)            337.97   434.91   515.57   628.56   731.86
                              743.46   859.71  1045.98  1086.44  1145.81
                             1169.68  1233.62  1294.68  1371.42  1389.40
                             1442.47  1470.40  1499.74  1565.14  1606.23
                             1621.16  1629.35  1771.45  1807.83  1875.64
                             1908.29  1954.22  1976.85  1983.45  2015.03
                             2093.50  2109.82  2138.32  2149.62  2423.92
                             2611.21  4264.40  4310.19  4371.42  4381.16
                             4473.69  4477.85  4493.69  4542.46  4621.93
                             4663.23

 Zero-point correction=                           0.156997 (Hartree/Particle)
 Thermal correction to Energy=                    0.166293
 Thermal correction to Enthalpy=                  0.167238
 Thermal correction to Gibbs Free Energy=         0.122074
 Sum of electronic and zero-point Energies=           -423.055345
 Sum of electronic and thermal Energies=              -423.046049
 Sum of electronic and thermal Enthalpies=            -423.045105
 Sum of electronic and thermal Free Energies=         -423.090268

                     E (Thermal)             CV                S
                      KCal/Mol        Cal/Mol-Kelvin    Cal/Mol-Kelvin
 Total                  104.351             33.725             95.055
 Electronic               0.000              0.000              0.000
 Translational            0.889              2.981             40.409
 Rotational               0.889              2.981             28.836
 Vibrational            102.573             27.763             25.811
 Vibration     1          0.595              1.979              5.020
 Vibration     2          0.597              1.973              4.407
 Vibration     3          0.616              1.909              2.744
 Vibration     4          0.621              1.894              2.572
 Vibration     5          0.648              1.807              1.941
 Vibration     6          0.655              1.787              1.841
 Vibration     7          0.694              1.669              1.404
 Vibration     8          0.733              1.558              1.129
 Vibration     9          0.797              1.390              0.836
 Vibration    10          0.864              1.231              0.637
 Vibration    11          0.872              1.213              0.618
 Vibration    12          0.955              1.037              0.454

 Optimization completed.
    -- Stationary point found.
 Normal termination of Gaussian 09 at Tue Jan 28 01:25:35 2020.
