 Gaussian 09, Revision D.01,
 Gaussian 09:  ES64L-G09RevD.01 24-Apr-2013

 -----------------------------
 # b3lyp 6-31G(2df,p) opt Freq
 -----------------------------

 -----
 titel
 -----
 Symbolic Z-matrix:
 Charge =  0 Multiplicity = 1

 SCF Done:  E(RB3LYP) =  -423.169363293     A.U. after   14 cycles
 Optimization completed.
    -- Stationary point found.
 Normal termination of Gaussian 09 at Mon Jan 27 13:43:02 2020.

 ----------------------------------------------------------------------
 #N Geom=AllCheck Guess=TCheck SCRF=Check GenChk RB3LYP/6-31G(2df,p) Fr
 eq
 ----------------------------------------------------------------------

 Structure from the checkpoint file:  "/scratch/puck/g09_514f5d9b-1483-4413-9d5d-803e206ec6c0/Gau-28757.chk"
 -----
 titel
 -----
 Charge =  0 Multiplicity = 1

                         Standard orientation:
 ---------------------------------------------------------------------
 Center     Atomic      Atomic             Coordinates (Angstroms)
 Number     Number       Type             X           Y           Z
 ---------------------------------------------------------------------
      1          8           0        3.547370    0.122664   -0.129726
      2          6           0        2.446142    0.057258    0.352892
      3          6           0        1.232042   -0.529732   -0.330162
      4          6           0        0.073367    0.466340   -0.363783
      5          6           0       -1.291981    0.106076   -1.052025
      6          6           0       -1.922873    1.188251   -0.119045
      7          6           0       -0.882877    0.597925    0.858921
      8          8           0       -1.341185   -0.749149    1.068659
      9          6           0       -1.684300   -1.157156   -0.278788
     10          1           0        2.249229    0.450327    1.378154
     11          1           0        1.521545   -0.849147   -1.336166
     12          1           0        0.925381   -1.411603    0.246994
     13          1           0        0.407921    1.448883   -0.707824
     14          1           0       -1.418953    0.103497   -2.133790
     15          1           0       -1.699178    2.208100   -0.434335
     16          1           0       -2.974858    1.081617    0.154296
     17          1           0       -0.609638    1.042986    1.814354
     18          1           0       -1.114145   -2.049849   -0.558642
     19          1           0       -2.753904   -1.386709   -0.342558
 ---------------------------------------------------------------------

 SCF Done:  E(RB3LYP) =  -423.169363293     A.U. after    1 cycles

 The electronic state is 1-A.
 Alpha  occ. eigenvalues --  -19.14343 -19.13793 -10.27057 -10.24453 -10.23350
 Alpha  occ. eigenvalues --  -10.20925 -10.20687 -10.19461 -10.19356  -1.04796
 Alpha  occ. eigenvalues --   -1.04457  -0.85002  -0.76829  -0.73156  -0.65079
 Alpha  occ. eigenvalues --   -0.58556  -0.57724  -0.56869  -0.53077  -0.49201
 Alpha  occ. eigenvalues --   -0.47920  -0.44856  -0.43507  -0.41463  -0.40917
 Alpha  occ. eigenvalues --   -0.39199  -0.37496  -0.36119  -0.35492  -0.34655
 Alpha  occ. eigenvalues --   -0.32619  -0.31362  -0.25051  -0.24865
 Alpha virt. eigenvalues --   -0.02029   0.08597   0.09685   0.10999   0.11598
 Alpha virt. eigenvalues --    0.12747   0.12854   0.14486   0.14719   0.15703
 Alpha virt. eigenvalues --    0.16963   0.18392   0.19200   0.19680   0.21491

 Mulliken charges:
               1
     1  O   -0.241023
     2  C    0.158668
     3  C   -0.322106
     4  C    0.006929
     5  C   -0.093622
     6  C   -0.239337
     7  C    0.094245
     8  O   -0.277744
     9  C   -0.084990
    10  H    0.073887
    11  H    0.118369
    12  H    0.136709
    13  H    0.087412
    14  H    0.077781
    15  H    0.106881
    16  H    0.104155
    17  H    0.083982
    18  H    0.104203
    19  H    0.105601
 Sum of Mulliken charges =   0.00000

 Dipole moment (field-independent basis, Debye):
    X=             -2.7136    Y=              0.5743    Z=             -0.7756  Tot=              2.8801
 Quadrupole moment (field-independent basis, Debye-Ang):
   XX=            -66.0203   YY=            -51.2873   ZZ=            -53.3033
   XY=             -1.5174   XZ=              4.3203   YZ=              2.1926

  Exact polarizability:  90.893   0.715  69.251  -0.089   3.836  67.444
 Approx polarizability: 123.656   3.110 104.064  -4.739   3.308 106.870

                      1                      2                      3
                      A                      A                      A
 Frequencies --     48.5341                63.9605               174.8592
 Red. masses --      3.3593                 4.7321                 2.5493
 Frc consts  --      0.0047                 0.0114                 0.0459
 IR Inten    --      4.8208                 5.0897                 0.8372

                      4                      5                      6
                      A                      A                      A
 Frequencies --    223.6599               324.1726               401.2594
 Red. masses --      3.8879                 3.0009                 2.4850
 Frc consts  --      0.1146                 0.1858                 0.2357
 IR Inten    --      2.2621                 3.5673                 3.2031

                      7                      8                      9
                      A                      A                      A
 Frequencies --    455.7628               505.0112               588.3926
 Red. masses --      2.9066                 2.1999                 2.2073
 Frc consts  --      0.3557                 0.3306                 0.4502
 IR Inten    --     15.9285                 4.4491                 3.8432

                     10                     11                     12
                      A                      A                      A
 Frequencies --    689.8565               784.9973               824.3732
 Red. masses --      4.1299                 2.8289                 2.5599
 Frc consts  --      1.1580                 1.0271                 1.0250
 IR Inten    --      0.1969                 5.7457                 0.1769

                     13                     14                     15
                      A                      A                      A
 Frequencies --    844.8110               852.7222               874.6207
 Red. masses --      1.9825                 2.9129                 2.4175
 Frc consts  --      0.8337                 1.2479                 1.0896
 IR Inten    --      1.3363                 3.0365                15.6241

                     16                     17                     18
                      A                      A                      A
 Frequencies --    922.8799               951.7210               957.5662
 Red. masses --      3.4157                 1.8664                 1.9004
 Frc consts  --      1.7140                 0.9960                 1.0267
 IR Inten    --     20.8356                16.4397                14.6298

                     19                     20                     21
                      A                      A                      A
 Frequencies --    985.5179              1022.4769              1051.0721
 Red. masses --      1.6268                 2.1143                 2.0391
 Frc consts  --      0.9310                 1.3023                 1.3272
 IR Inten    --     14.5045                11.5595                 8.3707

                     22                     23                     24
                      A                      A                      A
 Frequencies --   1056.3283              1077.8119              1109.1946
 Red. masses --      2.2301                 2.0074                 1.3701
 Frc consts  --      1.4661                 1.3739                 0.9932
 IR Inten    --     11.2403                24.7810                 9.1676

                     25                     26                     27
                      A                      A                      A
 Frequencies --   1124.6055              1136.6848              1180.9579
 Red. masses --      1.6301                 2.1965                 1.6502
 Frc consts  --      1.2147                 1.6721                 1.3560
 IR Inten    --     10.1542                 6.7422                 2.6669

                     28                     29                     30
                      A                      A                      A
 Frequencies --   1193.3326              1224.0874              1228.1701
 Red. masses --      1.2884                 1.4037                 1.3934
 Frc consts  --      1.0810                 1.2393                 1.2383
 IR Inten    --      2.8927                 4.4545                11.0021

                     31                     32                     33
                      A                      A                      A
 Frequencies --   1258.6674              1284.9304              1293.8945
 Red. masses --      1.6118                 1.3219                 1.5173
 Frc consts  --      1.5045                 1.2859                 1.4966
 IR Inten    --      3.4662                 4.1222                 1.0437

                     34                     35                     36
                      A                      A                      A
 Frequencies --   1306.3061              1370.4833              1395.7665
 Red. masses --      1.6704                 1.4141                 1.3727
 Frc consts  --      1.6794                 1.5649                 1.5757
 IR Inten    --      4.1905                 2.4466                11.0085

                     37                     38                     39
                      A                      A                      A
 Frequencies --   1431.6882              1458.0087              1494.0400
 Red. masses --      1.1978                 1.0974                 1.1246
 Frc consts  --      1.4465                 1.3745                 1.4790
 IR Inten    --      4.8197                 5.0897                 3.1220

                     40                     41                     42
                      A                      A                      A
 Frequencies --   1532.3488              1834.6974              2855.2806
 Red. masses --      1.0961                 9.9764                 1.0815
 Frc consts  --      1.5163                19.7858                 5.1948
 IR Inten    --      0.7144               203.2357                97.3893

                     43                     44                     45
                      A                      A                      A
 Frequencies --   3028.8614              3032.9905              3069.6024
 Red. masses --      1.0580                 1.0576                 1.0939
 Frc consts  --      5.7186                 5.7321                 6.0730
 IR Inten    --     23.5188                40.9385                 9.5765

                     46                     47                     48
                      A                      A                      A
 Frequencies --   3070.1629              3077.4012              3096.3049
 Red. masses --      1.0901                 1.0672                 1.1014
 Frc consts  --      6.0538                 5.9549                 6.2215
 IR Inten    --     27.8655                42.8767                 9.3017

                     49                     50                     51
                      A                      A                      A
 Frequencies --   3129.5072              3137.4782              3143.3742
 Red. masses --      1.0897                 1.0942                 1.1077
 Frc consts  --      6.2877                 6.3464                 6.4485
 IR Inten    --     45.2115                18.6018                24.4150

 - Thermochemistry -
 -------------------
 Temperature   298.150 Kelvin.  Pressure   1.00000 Atm.
 Atom     1 has atomic number  8 and mass  15.99491

 Molecular mass:   126.06808 amu.
 Principal axes and moments of inertia in atomic units:
                           1         2         3
     Eigenvalues --   464.190491848.569891896.43596
           X            0.99990  -0.00932   0.01029
           Y            0.00689   0.97663   0.21483
           Z           -0.01206  -0.21473   0.97660
 This molecule is an asymmetric top.
 Rotational symmetry number  1.
 Warning -- assumption of classical behavior for rotation
           may cause significant error
 Rotational temperatures (Kelvin)      0.18659     0.04685     0.04567
 Rotational constants (GHZ):           3.88793     0.97629     0.95165
 Zero-point vibrational energy     419776.8 (Joules/Mol)
                                  100.32905 (Kcal/Mol)
 Warning -- explicit consideration of   9 degrees of freedom as
           vibrations may cause significant error
 Vibrational temperatures:     69.83    92.02   251.58   321.80   466.41
          (Kelvin)            577.32   655.74   726.60   846.56   992.55
                             1129.43  1186.09  1215.49  1226.88  1258.38
                             1327.82  1369.31  1377.72  1417.94  1471.11
                             1512.26  1519.82  1550.73  1595.88  1618.05
                             1635.43  1699.13  1716.94  1761.19  1767.06
                             1810.94  1848.73  1861.62  1879.48  1971.82
                             2008.19  2059.88  2097.75  2149.59  2204.71
                             2639.72  4108.11  4357.85  4363.79  4416.47
                             4417.27  4427.69  4454.89  4502.66  4514.13
                             4522.61

 Zero-point correction=                           0.159885 (Hartree/Particle)
 Thermal correction to Energy=                    0.167810
 Thermal correction to Enthalpy=                  0.168754
 Thermal correction to Gibbs Free Energy=         0.126246
 Sum of electronic and zero-point Energies=           -423.009479
 Sum of electronic and thermal Energies=              -423.001553
 Sum of electronic and thermal Enthalpies=            -423.000609
 Sum of electronic and thermal Free Energies=         -423.043117

                     E (Thermal)             CV                S
                      KCal/Mol        Cal/Mol-Kelvin    Cal/Mol-Kelvin
 Total                  105.303             29.946             89.466
 Electronic               0.000              0.000              0.000
 Translational            0.889              2.981             40.409
 Rotational               0.889              2.981             28.877
 Vibrational            103.525             23.984             20.180
 Vibration     1          0.595              1.978              4.876
 Vibration     2          0.597              1.972              4.331
 Vibration     3          0.627              1.873              2.383
 Vibration     4          0.649              1.805              1.929
 Vibration     5          0.709              1.627              1.289
 Vibration     6          0.767              1.467              0.958
 Vibration     7          0.814              1.348              0.779
 Vibration     8          0.860              1.239              0.646
 Vibration     9          0.946              1.057              0.470

 Optimization completed.
    -- Stationary point found.
 Normal termination of Gaussian 09 at Mon Jan 27 14:24:41 2020.
