 Gaussian 09, Revision D.01,
 Gaussian 09:  ES64L-G09RevD.01 24-Apr-2013

 -----------------------------
 # b3lyp 6-31G(2df,p) opt Freq
 -----------------------------

 -----
 titel
 -----
 Symbolic Z-matrix:
 Charge =  0 Multiplicity = 1

 SCF Done:  E(RB3LYP) =  -423.116091959     A.U. after   13 cycles
 Optimization completed.
    -- Stationary point found.
 Normal termination of Gaussian 09 at Tue Jan 28 13:24:43 2020.

 ----------------------------------------------------------------------
 #N Geom=AllCheck Guess=TCheck SCRF=Check GenChk RB3LYP/6-31G(2df,p) Fr
 eq
 ----------------------------------------------------------------------

 Structure from the checkpoint file:  "/scratch/puck/g09_1e2fb27a-b5c4-4261-9f40-1dbf03f05ff0/Gau-144741.chk"
 -----
 titel
 -----
 Charge =  0 Multiplicity = 1

                         Standard orientation:
 ---------------------------------------------------------------------
 Center     Atomic      Atomic             Coordinates (Angstroms)
 Number     Number       Type             X           Y           Z
 ---------------------------------------------------------------------
      1          8           0       -2.280910   -1.396015    0.229106
      2          6           0       -2.222674   -0.083275   -0.317093
      3          6           0       -1.176602    0.795533    0.331430
      4          6           0       -0.349779    1.733052   -0.528271
      5          6           0        0.279052    0.521934    0.089762
      6          6           0        1.393111    0.443028    1.166801
      7          6           0        1.926701   -0.792461    0.417554
      8          8           0        2.225317   -0.392768   -0.923583
      9          6           0        0.861333   -0.704649   -0.593439
     10          1           0       -2.487517   -1.317413    1.165843
     11          1           0       -1.985785   -0.222725   -1.377005
     12          1           0       -3.206415    0.409466   -0.270454
     13          1           0       -1.436816    1.156813    1.325669
     14          1           0       -0.530978    1.732962   -1.598903
     15          1           0       -0.087922    2.704421   -0.121923
     16          1           0        2.088868    1.284123    1.226484
     17          1           0        1.004650    0.209477    2.162354
     18          1           0        2.455591   -1.651348    0.813199
     19          1           0        0.364212   -1.474474   -1.169908
 ---------------------------------------------------------------------

 SCF Done:  E(RB3LYP) =  -423.116091959     A.U. after    1 cycles

 The electronic state is 1-A.
 Alpha  occ. eigenvalues --  -19.14342 -19.13727 -10.23286 -10.23203 -10.23123
 Alpha  occ. eigenvalues --  -10.20154 -10.19499 -10.18949 -10.18834  -1.06992
 Alpha  occ. eigenvalues --   -1.01730  -0.86966  -0.76896  -0.69392  -0.65195
 Alpha  occ. eigenvalues --   -0.60272  -0.59170  -0.53820  -0.52793  -0.49502
 Alpha  occ. eigenvalues --   -0.46791  -0.45134  -0.43188  -0.41854  -0.40522
 Alpha  occ. eigenvalues --   -0.38516  -0.37883  -0.34353  -0.33578  -0.31208
 Alpha  occ. eigenvalues --   -0.28424  -0.27595  -0.26526  -0.24706
 Alpha virt. eigenvalues --    0.06587   0.08582   0.10118   0.10834   0.12042
 Alpha virt. eigenvalues --    0.12272   0.13152   0.15361   0.15592   0.16056
 Alpha virt. eigenvalues --    0.17113   0.18263   0.18721   0.19596   0.21827

 Mulliken charges:
               1
     1  O   -0.416815
     2  C   -0.078660
     3  C   -0.118034
     4  C   -0.359746
     5  C    0.366356
     6  C   -0.348822
     7  C    0.038930
     8  O   -0.249497
     9  C   -0.061574
    10  H    0.280895
    11  H    0.107701
    12  H    0.092844
    13  H    0.078978
    14  H    0.117526
    15  H    0.115467
    16  H    0.110722
    17  H    0.104297
    18  H    0.104069
    19  H    0.115364
 Sum of Mulliken charges =   0.00000

 Dipole moment (field-independent basis, Debye):
    X=             -1.4888    Y=              0.7681    Z=              2.1164  Tot=              2.6992
 Quadrupole moment (field-independent basis, Debye-Ang):
   XX=            -56.1558   YY=            -53.7059   ZZ=            -50.0900
   XY=             -2.7581   XZ=              1.5671   YZ=             -1.1930

  Exact polarizability:  83.326  -3.255  72.752   3.475  -0.822  70.567
 Approx polarizability: 113.321  -2.605 104.815   0.933  -1.981 111.032

                      1                      2                      3
                      A                      A                      A
 Frequencies --     66.0185               129.0438               157.0595
 Red. masses --      4.2054                 3.8955                 2.9896
 Frc consts  --      0.0108                 0.0382                 0.0434
 IR Inten    --      0.9374                 2.8519                 2.7292

                      4                      5                      6
                      A                      A                      A
 Frequencies --    170.2682               289.4138               320.3953
 Red. masses --      2.7770                 1.1637                 2.9031
 Frc consts  --      0.0474                 0.0574                 0.1756
 IR Inten    --      1.4416               106.0712                 8.5680

                      7                      8                      9
                      A                      A                      A
 Frequencies --    399.1429               409.0715               456.2252
 Red. masses --      2.6533                 1.9841                 4.1959
 Frc consts  --      0.2491                 0.1956                 0.5146
 IR Inten    --      8.7254                 4.6957                10.3204

                     10                     11                     12
                      A                      A                      A
 Frequencies --    568.7527               597.7135               787.0571
 Red. masses --      3.2996                 3.9353                 2.6763
 Frc consts  --      0.6289                 0.8284                 0.9768
 IR Inten    --      4.9586                 3.7007                 5.2218

                     13                     14                     15
                      A                      A                      A
 Frequencies --    799.4106               844.7045               856.1048
 Red. masses --      2.8972                 1.9430                 1.9681
 Frc consts  --      1.0909                 0.8168                 0.8499
 IR Inten    --      1.2368                12.8153                19.3137

                     16                     17                     18
                      A                      A                      A
 Frequencies --    870.6948               903.9278               932.3033
 Red. masses --      1.8081                 1.8588                 2.9062
 Frc consts  --      0.8076                 0.8949                 1.4883
 IR Inten    --      0.8731                 1.1089                 8.7305

                     19                     20                     21
                      A                      A                      A
 Frequencies --    956.9192               976.6910              1016.8484
 Red. masses --      1.5081                 2.0955                 2.9997
 Frc consts  --      0.8136                 1.1777                 1.8274
 IR Inten    --     13.5382                20.0069                 5.7484

                     22                     23                     24
                      A                      A                      A
 Frequencies --   1033.8330              1041.0759              1065.9809
 Red. masses --      1.5323                 1.8673                 2.0801
 Frc consts  --      0.9649                 1.1924                 1.3926
 IR Inten    --      9.9003                41.2339                35.9534

                     25                     26                     27
                      A                      A                      A
 Frequencies --   1074.6994              1089.9716              1124.8670
 Red. masses --      1.9218                 2.1096                 1.3566
 Frc consts  --      1.3078                 1.4767                 1.0113
 IR Inten    --      8.5619                31.2841                 1.1030

                     28                     29                     30
                      A                      A                      A
 Frequencies --   1160.0921              1186.6796              1211.4834
 Red. masses --      1.3732                 1.8269                 1.4602
 Frc consts  --      1.0889                 1.5158                 1.2627
 IR Inten    --      4.8669                 3.9628                 7.9248

                     31                     32                     33
                      A                      A                      A
 Frequencies --   1230.4558              1243.3917              1268.0625
 Red. masses --      1.3776                 1.4425                 1.5924
 Frc consts  --      1.2288                 1.3140                 1.5086
 IR Inten    --      5.4248                 9.5901                 5.5917

                     34                     35                     36
                      A                      A                      A
 Frequencies --   1341.1947              1373.9907              1378.8690
 Red. masses --      1.5875                 1.3415                 3.2444
 Frc consts  --      1.6824                 1.4921                 3.6344
 IR Inten    --      4.6699                 3.9070                20.0320

                     37                     38                     39
                      A                      A                      A
 Frequencies --   1411.2596              1440.4710              1471.0982
 Red. masses --      1.3507                 1.5649                 1.1229
 Frc consts  --      1.5850                 1.9131                 1.4318
 IR Inten    --     31.9498                16.4027                 2.2197

                     40                     41                     42
                      A                      A                      A
 Frequencies --   1494.3310              1506.1281              2983.5921
 Red. masses --      1.5676                 1.1666                 1.0704
 Frc consts  --      2.0624                 1.5592                 5.6139
 IR Inten    --      0.9401                 2.1993                72.2070

                     43                     44                     45
                      A                      A                      A
 Frequencies --   3054.3475              3071.1120              3111.0434
 Red. masses --      1.0572                 1.0914                 1.1072
 Frc consts  --      5.8108                 6.0647                 6.3139
 IR Inten    --     29.9828                13.1323                13.1090

                     46                     47                     48
                      A                      A                      A
 Frequencies --   3113.1428              3125.1445              3187.0690
 Red. masses --      1.0890                 1.0550                 1.0893
 Frc consts  --      6.2186                 6.0709                 6.5191
 IR Inten    --     33.4971                12.9329                19.0293

                     49                     50                     51
                      A                      A                      A
 Frequencies --   3206.6512              3209.0540              3817.0214
 Red. masses --      1.0997                 1.1161                 1.0662
 Frc consts  --      6.6622                 6.7717                 9.1526
 IR Inten    --     12.3296                 8.6740                17.8129

 - Thermochemistry -
 -------------------
 Temperature   298.150 Kelvin.  Pressure   1.00000 Atm.
 Atom     1 has atomic number  8 and mass  15.99491

 Molecular mass:   126.06808 amu.
 Principal axes and moments of inertia in atomic units:
                           1         2         3
     Eigenvalues --   627.447031467.686341674.14990
           X            0.99976  -0.00901   0.01998
           Y            0.00918   0.99992  -0.00845
           Z           -0.01991   0.00863   0.99976
 This molecule is an asymmetric top.
 Rotational symmetry number  1.
 Warning -- assumption of classical behavior for rotation
           may cause significant error
 Rotational temperatures (Kelvin)      0.13804     0.05901     0.05174
 Rotational constants (GHZ):           2.87632     1.22965     1.07800
 Zero-point vibrational energy     415905.0 (Joules/Mol)
                                   99.40367 (Kcal/Mol)
 Warning -- explicit consideration of  11 degrees of freedom as
           vibrations may cause significant error
 Vibrational temperatures:     94.99   185.66   225.97   244.98   416.40
          (Kelvin)            460.98   574.28   588.56   656.41   818.31
                              859.98  1132.40  1150.17  1215.34  1231.74
                             1252.73  1300.55  1341.37  1376.79  1405.24
                             1463.02  1487.45  1497.87  1533.71  1546.25
                             1568.22  1618.43  1669.11  1707.37  1743.05
                             1770.35  1788.96  1824.46  1929.68  1976.86
                             1983.88  2030.49  2072.51  2116.58  2150.01
                             2166.98  4292.72  4394.52  4418.64  4476.09
                             4479.11  4496.38  4585.48  4613.65  4617.11
                             5491.84

 Zero-point correction=                           0.158410 (Hartree/Particle)
 Thermal correction to Energy=                    0.166890
 Thermal correction to Enthalpy=                  0.167835
 Thermal correction to Gibbs Free Energy=         0.124992
 Sum of electronic and zero-point Energies=           -422.957682
 Sum of electronic and thermal Energies=              -422.949201
 Sum of electronic and thermal Enthalpies=            -422.948257
 Sum of electronic and thermal Free Energies=         -422.991100

                     E (Thermal)             CV                S
                      KCal/Mol        Cal/Mol-Kelvin    Cal/Mol-Kelvin
 Total                  104.725             32.308             90.170
 Electronic               0.000              0.000              0.000
 Translational            0.889              2.981             40.409
 Rotational               0.889              2.981             28.824
 Vibrational            102.948             26.346             20.938
 Vibration     1          0.597              1.970              4.269
 Vibration     2          0.612              1.924              2.960
 Vibration     3          0.621              1.895              2.585
 Vibration     4          0.625              1.879              2.433
 Vibration     5          0.686              1.693              1.477
 Vibration     6          0.706              1.635              1.308
 Vibration     7          0.765              1.472              0.966
 Vibration     8          0.773              1.451              0.930
 Vibration     9          0.814              1.347              0.777
 Vibration    10          0.925              1.099              0.507
 Vibration    11          0.956              1.037              0.454

 Optimization completed.
    -- Stationary point found.
 Normal termination of Gaussian 09 at Tue Jan 28 14:07:00 2020.
