 Gaussian 09, Revision D.01,
 Gaussian 09:  ES64L-G09RevD.01 24-Apr-2013

 -----------------------------
 # b3lyp 6-31G(2df,p) opt Freq
 -----------------------------

 -----
 titel
 -----
 Symbolic Z-matrix:
 Charge =  0 Multiplicity = 1

 SCF Done:  E(RB3LYP) =  -423.086681708     A.U. after   14 cycles
 Optimization completed.
    -- Stationary point found.
 Normal termination of Gaussian 09 at Tue Jan 28 09:09:45 2020.

 ----------------------------------------------------------------------
 #N Geom=AllCheck Guess=TCheck SCRF=Check GenChk RB3LYP/6-31G(2df,p) Fr
 eq
 ----------------------------------------------------------------------

 Structure from the checkpoint file:  "/scratch/puck/g09_443a05ff-d79a-49c9-a17f-7a8408c5257b/Gau-20284.chk"
 -----
 titel
 -----
 Charge =  0 Multiplicity = 1

                         Standard orientation:
 ---------------------------------------------------------------------
 Center     Atomic      Atomic             Coordinates (Angstroms)
 Number     Number       Type             X           Y           Z
 ---------------------------------------------------------------------
      1          6           0       -2.100825   -1.454105   -0.295088
      2          8           0       -1.293715   -0.833018    0.697450
      3          6           0       -0.161256   -0.248188    0.181000
      4          6           0       -0.100416    1.132633   -0.429268
      5          6           0       -1.308601    2.028136   -0.249339
      6          6           0        0.697982    0.812368    0.829318
      7          6           0        1.955728   -0.055121    0.512295
      8          8           0        2.042730   -0.295007   -0.904455
      9          6           0        1.141063   -1.085188   -0.120034
     10          1           0       -1.551150   -2.243674   -0.825873
     11          1           0       -2.952139   -1.900644    0.222911
     12          1           0       -2.463121   -0.725534   -1.031440
     13          1           0        0.451617    1.268424   -1.352682
     14          1           0       -1.860759    1.779137    0.661279
     15          1           0       -1.006325    3.078930   -0.189941
     16          1           0       -1.998039    1.929985   -1.094673
     17          1           0        0.539294    1.332260    1.764779
     18          1           0        2.874051   -0.113284    1.083628
     19          1           0        1.232399   -2.164621   -0.155250
 ---------------------------------------------------------------------

 SCF Done:  E(RB3LYP) =  -423.086681708     A.U. after    1 cycles

 The electronic state is 1-A.
 Alpha  occ. eigenvalues --  -19.15504 -19.15362 -10.23924 -10.23862 -10.23632
 Alpha  occ. eigenvalues --  -10.22926 -10.19092 -10.18938 -10.17780  -1.07953
 Alpha  occ. eigenvalues --   -1.04580  -0.86648  -0.73481  -0.69889  -0.65776
 Alpha  occ. eigenvalues --   -0.64077  -0.55357  -0.54294  -0.53279  -0.49624
 Alpha  occ. eigenvalues --   -0.46282  -0.45425  -0.44240  -0.40874  -0.39228
 Alpha  occ. eigenvalues --   -0.38859  -0.38336  -0.37184  -0.34717  -0.33232
 Alpha  occ. eigenvalues --   -0.31006  -0.26544  -0.24715  -0.22670
 Alpha virt. eigenvalues --    0.06318   0.08335   0.10065   0.11007   0.13043
 Alpha virt. eigenvalues --    0.14138   0.14330   0.15133   0.16007   0.17000
 Alpha virt. eigenvalues --    0.17498   0.18051   0.18603   0.20325   0.20758

 Mulliken charges:
               1
     1  C   -0.259906
     2  O   -0.276164
     3  C    0.391710
     4  C   -0.081304
     5  C   -0.430735
     6  C   -0.214789
     7  C    0.016135
     8  O   -0.238407
     9  C   -0.060823
    10  H    0.113935
    11  H    0.129000
    12  H    0.118543
    13  H    0.108345
    14  H    0.127790
    15  H    0.119955
    16  H    0.117950
    17  H    0.099359
    18  H    0.110370
    19  H    0.109037
 Sum of Mulliken charges =   0.00000

 Dipole moment (field-independent basis, Debye):
    X=             -0.9114    Y=             -0.4140    Z=              0.4250  Tot=              1.0875
 Quadrupole moment (field-independent basis, Debye-Ang):
   XX=            -52.5700   YY=            -49.9279   ZZ=            -54.5824
   XY=              0.5354   XZ=              5.6938   YZ=              1.3929

  Exact polarizability:  83.390  -0.389  78.624   4.620   2.165  62.682
 Approx polarizability: 112.549   4.423 110.616   3.275   3.645 104.093

                      1                      2                      3
                      A                      A                      A
 Frequencies --    103.6448               157.5841               166.7203
 Red. masses --      2.6733                 1.3787                 1.7668
 Frc consts  --      0.0169                 0.0202                 0.0289
 IR Inten    --      2.2513                 0.5612                 1.7720

                      4                      5                      6
                      A                      A                      A
 Frequencies --    197.5379               231.9414               245.3604
 Red. masses --      1.1250                 3.3270                 2.6708
 Frc consts  --      0.0259                 0.1055                 0.0947
 IR Inten    --      0.4887                 3.1671                 4.4293

                      7                      8                      9
                      A                      A                      A
 Frequencies --    329.0610               372.2737               441.6658
 Red. masses --      3.9114                 3.7978                 4.1238
 Frc consts  --      0.2495                 0.3101                 0.4739
 IR Inten    --      6.8042                 6.5769                 1.0553

                     10                     11                     12
                      A                      A                      A
 Frequencies --    462.4513               604.2467               670.1233
 Red. masses --      3.7565                 4.5191                 4.1248
 Frc consts  --      0.4733                 0.9722                 1.0913
 IR Inten    --      3.0044                 7.1187                10.9707

                     13                     14                     15
                      A                      A                      A
 Frequencies --    750.8218               790.8221               826.0528
 Red. masses --      3.0634                 4.1253                 3.7744
 Frc consts  --      1.0175                 1.5201                 1.5175
 IR Inten    --      1.6251                 2.1194                 2.7047

                     16                     17                     18
                      A                      A                      A
 Frequencies --    849.1558               890.0829               923.9053
 Red. masses --      1.4970                 2.5697                 1.5414
 Frc consts  --      0.6360                 1.1995                 0.7752
 IR Inten    --     27.0104                 5.1426                 6.7592

                     19                     20                     21
                      A                      A                      A
 Frequencies --    971.2727               997.4605               999.7685
 Red. masses --      3.4185                 2.8768                 1.3971
 Frc consts  --      1.9001                 1.6864                 0.8228
 IR Inten    --     25.5038                13.9883                 6.1291

                     22                     23                     24
                      A                      A                      A
 Frequencies --   1035.3048              1054.6019              1063.7447
 Red. masses --      2.0206                 1.8070                 2.5174
 Frc consts  --      1.2760                 1.1841                 1.6783
 IR Inten    --     12.2522                 4.4559                48.4960

                     25                     26                     27
                      A                      A                      A
 Frequencies --   1120.5043              1135.5867              1164.7859
 Red. masses --      2.8122                 1.7012                 1.4373
 Frc consts  --      2.0803                 1.2925                 1.1489
 IR Inten    --     13.0506                 3.9291                 6.3256

                     28                     29                     30
                      A                      A                      A
 Frequencies --   1179.5952              1194.8202              1220.6895
 Red. masses --      1.2900                 1.4849                 1.4086
 Frc consts  --      1.0576                 1.2490                 1.2366
 IR Inten    --      3.5758                12.3815                 2.3392

                     31                     32                     33
                      A                      A                      A
 Frequencies --   1235.4918              1254.9502              1330.9748
 Red. masses --      1.5378                 1.5840                 2.3684
 Frc consts  --      1.3831                 1.4698                 2.4720
 IR Inten    --      1.9943                 8.5782                93.8390

                     34                     35                     36
                      A                      A                      A
 Frequencies --   1366.9171              1412.3293              1428.0053
 Red. masses --      4.2042                 1.4160                 2.1349
 Frc consts  --      4.6283                 1.6641                 2.5650
 IR Inten    --     22.8942                 2.3008                28.6902

                     37                     38                     39
                      A                      A                      A
 Frequencies --   1485.7930              1487.3015              1496.1244
 Red. masses --      1.1617                 1.1550                 1.0538
 Frc consts  --      1.5110                 1.5054                 1.3897
 IR Inten    --      4.8594                 4.2382                 4.0687

                     40                     41                     42
                      A                      A                      A
 Frequencies --   1500.1210              1506.5780              3000.9301
 Red. masses --      1.1097                 1.0538                 1.0347
 Frc consts  --      1.4713                 1.4093                 5.4903
 IR Inten    --      2.9536                12.6383                47.0081

                     43                     44                     45
                      A                      A                      A
 Frequencies --   3033.4872              3058.7700              3092.6190
 Red. masses --      1.0359                 1.1028                 1.1010
 Frc consts  --      5.6161                 6.0789                 6.2045
 IR Inten    --     29.3075                43.4613                24.1891

                     46                     47                     48
                      A                      A                      A
 Frequencies --   3111.4305              3126.3503              3172.6519
 Red. masses --      1.1003                 1.0998                 1.0877
 Frc consts  --      6.2758                 6.3335                 6.4508
 IR Inten    --     11.8724                26.7397                 9.8227

                     49                     50                     51
                      A                      A                      A
 Frequencies --   3180.3257              3195.8468              3208.0959
 Red. masses --      1.0876                 1.0995                 1.0953
 Frc consts  --      6.4816                 6.6164                 6.6417
 IR Inten    --     13.0521                18.8091                 6.7607

 - Thermochemistry -
 -------------------
 Temperature   298.150 Kelvin.  Pressure   1.00000 Atm.
 Atom     1 has atomic number  6 and mass  12.00000

 Molecular mass:   126.06808 amu.
 Principal axes and moments of inertia in atomic units:
                           1         2         3
     Eigenvalues --   733.999261132.715751536.44859
           X            0.99937  -0.01156   0.03355
           Y            0.01114   0.99986   0.01269
           Z           -0.03369  -0.01231   0.99936
 This molecule is an asymmetric top.
 Rotational symmetry number  1.
 Warning -- assumption of classical behavior for rotation
           may cause significant error
 Rotational temperatures (Kelvin)      0.11800     0.07647     0.05637
 Rotational constants (GHZ):           2.45878     1.59329     1.17462
 Zero-point vibrational energy     411734.8 (Joules/Mol)
                                   98.40697 (Kcal/Mol)
 Warning -- explicit consideration of  11 degrees of freedom as
           vibrations may cause significant error
 Vibrational temperatures:    149.12   226.73   239.87   284.21   333.71
          (Kelvin)            353.02   473.44   535.62   635.46   665.36
                              869.38   964.16  1080.26  1137.82  1188.50
                             1221.74  1280.63  1329.29  1397.44  1435.12
                             1438.44  1489.57  1517.34  1530.49  1612.15
                             1633.85  1675.87  1697.17  1719.08  1756.30
                             1777.59  1805.59  1914.97  1966.69  2032.02
                             2054.58  2137.72  2139.89  2152.59  2158.34
                             2167.63  4317.66  4364.51  4400.88  4449.58
                             4476.65  4498.12  4564.73  4575.77  4598.10
                             4615.73

 Zero-point correction=                           0.156821 (Hartree/Particle)
 Thermal correction to Energy=                    0.165549
 Thermal correction to Enthalpy=                  0.166493
 Thermal correction to Gibbs Free Energy=         0.123696
 Sum of electronic and zero-point Energies=           -422.929860
 Sum of electronic and thermal Energies=              -422.921133
 Sum of electronic and thermal Enthalpies=            -422.920189
 Sum of electronic and thermal Free Energies=         -422.962986

                     E (Thermal)             CV                S
                      KCal/Mol        Cal/Mol-Kelvin    Cal/Mol-Kelvin
 Total                  103.884             33.115             90.074
 Electronic               0.000              0.000              0.000
 Translational            0.889              2.981             40.409
 Rotational               0.889              2.981             28.637
 Vibrational            102.106             27.153             21.029
 Vibration     1          0.605              1.946              3.385
 Vibration     2          0.621              1.894              2.579
 Vibration     3          0.624              1.883              2.472
 Vibration     4          0.637              1.843              2.156
 Vibration     5          0.653              1.792              1.864
 Vibration     6          0.660              1.770              1.764
 Vibration     7          0.712              1.617              1.265
 Vibration     8          0.744              1.529              1.070
 Vibration     9          0.801              1.379              0.821
 Vibration    10          0.820              1.333              0.759
 Vibration    11          0.963              1.023              0.442

 Optimization completed.
    -- Stationary point found.
 Normal termination of Gaussian 09 at Tue Jan 28 09:53:07 2020.
