 Gaussian 09, Revision D.01,
 Gaussian 09:  ES64L-G09RevD.01 24-Apr-2013

 -----------------------------
 # b3lyp 6-31G(2df,p) opt Freq
 -----------------------------

 -----
 titel
 -----
 Symbolic Z-matrix:
 Charge =  0 Multiplicity = 1

 SCF Done:  E(RB3LYP) =  -423.173913929     A.U. after   14 cycles
 Optimization completed.
    -- Stationary point found.
 Normal termination of Gaussian 09 at Tue Jan 28 01:52:51 2020.

 ----------------------------------------------------------------------
 #N Geom=AllCheck Guess=TCheck SCRF=Check GenChk RB3LYP/6-31G(2df,p) Fr
 eq
 ----------------------------------------------------------------------

 Structure from the checkpoint file:  "/scratch/puck/g09_dadc8639-f4a3-45e6-939b-fb1988683ca8/Gau-57299.chk"
 -----
 titel
 -----
 Charge =  0 Multiplicity = 1

                         Standard orientation:
 ---------------------------------------------------------------------
 Center     Atomic      Atomic             Coordinates (Angstroms)
 Number     Number       Type             X           Y           Z
 ---------------------------------------------------------------------
      1          6           0       -2.846103    0.326812   -0.384003
      2          6           0       -1.590386   -0.485985   -0.200051
      3          8           0       -0.986955   -0.479081    1.099173
      4          6           0       -0.251834    0.084900   -0.000689
      5          6           0        0.125492    1.520875    0.080398
      6          6           0        1.452288    1.663503    0.045623
      7          6           0        2.170183    0.339092   -0.070468
      8          6           0        1.028124   -0.631305   -0.466929
      9          8           0        1.092788   -1.928030    0.080682
     10          1           0       -3.059298    0.470152   -1.449003
     11          1           0       -3.701952   -0.191213    0.061523
     12          1           0       -2.760978    1.306848    0.091326
     13          1           0       -1.615711   -1.481687   -0.649985
     14          1           0       -0.596059    2.318258    0.203255
     15          1           0        1.978256    2.609377    0.113242
     16          1           0        2.985611    0.354444   -0.802377
     17          1           0        2.601951    0.036195    0.892499
     18          1           0        0.985220   -0.674383   -1.567443
     19          1           0        1.809699   -2.398451   -0.355169
 ---------------------------------------------------------------------

 SCF Done:  E(RB3LYP) =  -423.173913929     A.U. after    1 cycles

 The electronic state is 1-A.
 Alpha  occ. eigenvalues --  -19.13800 -19.13578 -10.23430 -10.23172 -10.22707
 Alpha  occ. eigenvalues --  -10.19060 -10.18571 -10.18303 -10.17883  -1.05874
 Alpha  occ. eigenvalues --   -1.01896  -0.83614  -0.73905  -0.70522  -0.68658
 Alpha  occ. eigenvalues --   -0.60106  -0.57534  -0.53018  -0.51582  -0.50387
 Alpha  occ. eigenvalues --   -0.45624  -0.43227  -0.42055  -0.40922  -0.40117
 Alpha  occ. eigenvalues --   -0.39078  -0.37001  -0.36349  -0.35725  -0.32102
 Alpha  occ. eigenvalues --   -0.30472  -0.26697  -0.25742  -0.23867
 Alpha virt. eigenvalues --    0.00692   0.06866   0.10081   0.11507   0.12761
 Alpha virt. eigenvalues --    0.13356   0.14840   0.15337   0.15916   0.17068
 Alpha virt. eigenvalues --    0.18048   0.19049   0.19178   0.20849   0.23492

 Mulliken charges:
               1
     1  C   -0.424144
     2  C    0.003245
     3  O   -0.286035
     4  C    0.387417
     5  C   -0.145134
     6  C   -0.076869
     7  C   -0.310465
     8  C    0.023911
     9  O   -0.421609
    10  H    0.119835
    11  H    0.129486
    12  H    0.124714
    13  H    0.088418
    14  H    0.101830
    15  H    0.100386
    16  H    0.098693
    17  H    0.124801
    18  H    0.075176
    19  H    0.286344
 Sum of Mulliken charges =   0.00000

 Dipole moment (field-independent basis, Debye):
    X=              1.2035    Y=              0.7547    Z=             -2.5283  Tot=              2.9000
 Quadrupole moment (field-independent basis, Debye-Ang):
   XX=            -45.9361   YY=            -50.8530   ZZ=            -55.7181
   XY=             -2.2883   XZ=              0.2832   YZ=              3.6720

  Exact polarizability: 101.801   3.753  76.711   0.334   1.897  56.448
 Approx polarizability: 140.778   8.365 108.693  -2.312  -0.730  93.695

                      1                      2                      3
                      A                      A                      A
 Frequencies --     82.5660               160.6526               175.3342
 Red. masses --      3.1746                 1.8967                 1.5728
 Frc consts  --      0.0128                 0.0288                 0.0285
 IR Inten    --      0.3836                 1.2701                 2.3601

                      4                      5                      6
                      A                      A                      A
 Frequencies --    191.6525               259.9648               275.5958
 Red. masses --      2.4597                 1.3324                 2.1358
 Frc consts  --      0.0532                 0.0531                 0.0956
 IR Inten    --      1.2570                50.9538                41.2950

                      7                      8                      9
                      A                      A                      A
 Frequencies --    285.9301               425.5391               461.6771
 Red. masses --      4.4578                 2.8851                 3.1739
 Frc consts  --      0.2147                 0.3078                 0.3986
 IR Inten    --      2.8374                 7.0433                 3.0811

                     10                     11                     12
                      A                      A                      A
 Frequencies --    488.0197               527.1748               610.3563
 Red. masses --      3.0400                 3.9715                 3.5315
 Frc consts  --      0.4266                 0.6503                 0.7751
 IR Inten    --      2.6243                15.4530                 7.3289

                     13                     14                     15
                      A                      A                      A
 Frequencies --    681.6427               756.8513               771.8907
 Red. masses --      3.9172                 1.6074                 3.3034
 Frc consts  --      1.0723                 0.5425                 1.1596
 IR Inten    --      8.4857                12.4851                13.6308

                     16                     17                     18
                      A                      A                      A
 Frequencies --    813.5205               923.0628               927.5372
 Red. masses --      2.8690                 2.3830                 3.5365
 Frc consts  --      1.1187                 1.1963                 1.7926
 IR Inten    --      3.9789                13.2377                40.6794

                     19                     20                     21
                      A                      A                      A
 Frequencies --    961.1106               971.5014               993.2883
 Red. masses --      2.2879                 1.2660                 1.3629
 Frc consts  --      1.2452                 0.7040                 0.7922
 IR Inten    --      3.5742                 0.0189                 5.8300

                     22                     23                     24
                      A                      A                      A
 Frequencies --   1019.6371              1060.4471              1115.2352
 Red. masses --      2.4675                 2.5497                 1.7585
 Frc consts  --      1.5115                 1.6894                 1.2887
 IR Inten    --     22.1565                10.2274                13.8904

                     25                     26                     27
                      A                      A                      A
 Frequencies --   1123.3678              1136.0163              1167.6247
 Red. masses --      2.4673                 1.5877                 1.5413
 Frc consts  --      1.8345                 1.2073                 1.2380
 IR Inten    --     25.1062                23.9014                16.4199

                     28                     29                     30
                      A                      A                      A
 Frequencies --   1180.3413              1227.5474              1232.3299
 Red. masses --      1.5523                 1.8184                 1.1475
 Frc consts  --      1.2742                 1.6144                 1.0267
 IR Inten    --     19.5346                 7.4624                32.0609

                     31                     32                     33
                      A                      A                      A
 Frequencies --   1285.7354              1319.4633              1338.0152
 Red. masses --      1.5381                 1.4853                 1.3296
 Frc consts  --      1.4981                 1.5235                 1.4024
 IR Inten    --     27.5748                 2.9664                20.1132

                     34                     35                     36
                      A                      A                      A
 Frequencies --   1393.7319              1408.8825              1431.4855
 Red. masses --      1.5573                 1.3002                 1.5216
 Frc consts  --      1.7823                 1.5206                 1.8370
 IR Inten    --      7.1372                 6.0115                 3.2665

                     37                     38                     39
                      A                      A                      A
 Frequencies --   1470.1253              1483.3896              1491.0881
 Red. masses --      1.3462                 1.0972                 1.1153
 Frc consts  --      1.7142                 1.4225                 1.4610
 IR Inten    --      4.5081                 1.3847                 4.8693

                     40                     41                     42
                      A                      A                      A
 Frequencies --   1515.1004              1670.0615              2964.2571
 Red. masses --      2.0711                 6.4142                 1.0830
 Frc consts  --      2.8011                10.5405                 5.6068
 IR Inten    --      6.8477                 2.5841                41.7362

                     43                     44                     45
                      A                      A                      A
 Frequencies --   3024.1459              3036.5800              3065.0766
 Red. masses --      1.0605                 1.0366                 1.1016
 Frc consts  --      5.7145                 5.6315                 6.0977
 IR Inten    --     29.9257                21.8572                27.1672

                     46                     47                     48
                      A                      A                      A
 Frequencies --   3077.8398              3098.3565              3126.5559
 Red. masses --      1.0861                 1.1006                 1.1002
 Frc consts  --      6.0619                 6.2250                 6.3368
 IR Inten    --     20.4248                19.0985                27.0785

                     49                     50                     51
                      A                      A                      A
 Frequencies --   3189.8141              3221.0548              3826.9807
 Red. masses --      1.0873                 1.1017                 1.0663
 Frc consts  --      6.5183                 6.7343                 9.2014
 IR Inten    --      7.8782                13.5179                25.8496

 - Thermochemistry -
 -------------------
 Temperature   298.150 Kelvin.  Pressure   1.00000 Atm.
 Atom     1 has atomic number  6 and mass  12.00000

 Molecular mass:   126.06808 amu.
 Principal axes and moments of inertia in atomic units:
                           1         2         3
     Eigenvalues --   672.225321237.818391689.06099
           X            0.99986  -0.01323   0.00987
           Y            0.01302   0.99969   0.02140
           Z           -0.01015  -0.02127   0.99972
 This molecule is an asymmetric top.
 Rotational symmetry number  1.
 Warning -- assumption of classical behavior for rotation
           may cause significant error
 Rotational temperatures (Kelvin)      0.12885     0.06997     0.05128
 Rotational constants (GHZ):           2.68473     1.45800     1.06849
 Zero-point vibrational energy     415374.3 (Joules/Mol)
                                   99.27683 (Kcal/Mol)
 Warning -- explicit consideration of  12 degrees of freedom as
           vibrations may cause significant error
 Vibrational temperatures:    118.79   231.14   252.27   275.74   374.03
          (Kelvin)            396.52   411.39   612.26   664.25   702.15
                              758.49   878.17   980.73  1088.94  1110.58
                             1170.47  1328.08  1334.52  1382.82  1397.77
                             1429.12  1467.03  1525.74  1604.57  1616.27
                             1634.47  1679.95  1698.25  1766.16  1773.05
                             1849.88  1898.41  1925.10  2005.27  2027.07
                             2059.59  2115.18  2134.26  2145.34  2179.89
                             2402.84  4264.90  4351.07  4368.96  4409.96
                             4428.32  4457.84  4498.41  4589.43  4634.37
                             5506.16

 Zero-point correction=                           0.158208 (Hartree/Particle)
 Thermal correction to Energy=                    0.166970
 Thermal correction to Enthalpy=                  0.167914
 Thermal correction to Gibbs Free Energy=         0.124955
 Sum of electronic and zero-point Energies=           -423.015706
 Sum of electronic and thermal Energies=              -423.006944
 Sum of electronic and thermal Enthalpies=            -423.006000
 Sum of electronic and thermal Free Energies=         -423.048959

                     E (Thermal)             CV                S
                      KCal/Mol        Cal/Mol-Kelvin    Cal/Mol-Kelvin
 Total                  104.775             33.343             90.413
 Electronic               0.000              0.000              0.000
 Translational            0.889              2.981             40.409
 Rotational               0.889              2.981             28.732
 Vibrational            102.998             27.382             21.273
 Vibration     1          0.600              1.961              3.829
 Vibration     2          0.622              1.891              2.542
 Vibration     3          0.627              1.873              2.378
 Vibration     4          0.634              1.851              2.212
 Vibration     5          0.668              1.746              1.662
 Vibration     6          0.677              1.718              1.561
 Vibration     7          0.684              1.700              1.498
 Vibration     8          0.787              1.415              0.873
 Vibration     9          0.819              1.335              0.761
 Vibration    10          0.844              1.277              0.689
 Vibration    11          0.882              1.190              0.594
 Vibration    12          0.969              1.010              0.432

 Normal termination of Gaussian 09 at Tue Jan 28 02:37:14 2020.
