 Gaussian 09, Revision D.01,
 Gaussian 09:  ES64L-G09RevD.01 24-Apr-2013

 -----------------------------
 # b3lyp 6-31G(2df,p) opt Freq
 -----------------------------

 -----
 titel
 -----
 Symbolic Z-matrix:
 Charge =  0 Multiplicity = 1

 SCF Done:  E(RB3LYP) =  -423.124267710     A.U. after   14 cycles
 Optimization completed.
    -- Stationary point found.
 Normal termination of Gaussian 09 at Mon Jan 27 14:11:33 2020.

 ----------------------------------------------------------------------
 #N Geom=AllCheck Guess=TCheck SCRF=Check GenChk RB3LYP/6-31G(2df,p) Fr
 eq
 ----------------------------------------------------------------------

 Structure from the checkpoint file:  "/scratch/puck/g09_e2d0d253-f519-4259-be1f-8a34b537b92f/Gau-64282.chk"
 -----
 titel
 -----
 Charge =  0 Multiplicity = 1

                         Standard orientation:
 ---------------------------------------------------------------------
 Center     Atomic      Atomic             Coordinates (Angstroms)
 Number     Number       Type             X           Y           Z
 ---------------------------------------------------------------------
      1          6           0       -1.436031    1.923920   -0.265360
      2          6           0       -0.870266    0.491387   -0.341528
      3          6           0       -1.884616   -0.508738   -0.018666
      4          6           0       -2.729904   -1.310513    0.277104
      5          6           0        0.345213    0.352897    0.593191
      6          8           0        1.393876    1.283163    0.238818
      7          6           0        2.279212    0.224497   -0.184888
      8          6           0        1.311637   -0.848568    0.362572
      9          8           0        0.944343   -1.930371   -0.442136
     10          1           0       -0.642497    2.641425   -0.485667
     11          1           0       -2.250105    2.055088   -0.982281
     12          1           0       -1.827235    2.127637    0.735841
     13          1           0       -0.524638    0.328434   -1.373572
     14          1           0       -3.467544   -2.032393    0.526830
     15          1           0        0.017880    0.499807    1.629745
     16          1           0        2.401923    0.194375   -1.277291
     17          1           0        3.266622    0.299458    0.283074
     18          1           0        1.652435   -1.283621    1.304016
     19          1           0        0.575921   -1.601831   -1.268702
 ---------------------------------------------------------------------

 SCF Done:  E(RB3LYP) =  -423.124267710     A.U. after    1 cycles

 The electronic state is 1-A.
 Alpha  occ. eigenvalues --  -19.14982 -19.14122 -10.24255 -10.23915 -10.23235
 Alpha  occ. eigenvalues --  -10.21969 -10.18227 -10.18220 -10.17358  -1.05348
 Alpha  occ. eigenvalues --   -1.02447  -0.81768  -0.72877  -0.72814  -0.69048
 Alpha  occ. eigenvalues --   -0.63874  -0.57860  -0.53448  -0.52971  -0.50014
 Alpha  occ. eigenvalues --   -0.47320  -0.45287  -0.42693  -0.40775  -0.40724
 Alpha  occ. eigenvalues --   -0.39360  -0.38082  -0.36610  -0.36247  -0.30033
 Alpha  occ. eigenvalues --   -0.28262  -0.27229  -0.26189  -0.25043
 Alpha virt. eigenvalues --    0.04306   0.04943   0.06564   0.08743   0.09722
 Alpha virt. eigenvalues --    0.12018   0.12838   0.13453   0.15714   0.16626
 Alpha virt. eigenvalues --    0.17189   0.18327   0.19624   0.20089   0.21960

 Mulliken charges:
               1
     1  C   -0.397868
     2  C   -0.197872
     3  C    0.338153
     4  C   -0.467374
     5  C    0.099016
     6  O   -0.288096
     7  C   -0.116531
     8  C    0.079961
     9  O   -0.415382
    10  H    0.139883
    11  H    0.124041
    12  H    0.127215
    13  H    0.087377
    14  H    0.197881
    15  H    0.088268
    16  H    0.094316
    17  H    0.111804
    18  H    0.107869
    19  H    0.287339
 Sum of Mulliken charges =   0.00000

 Dipole moment (field-independent basis, Debye):
    X=             -0.0377    Y=              0.0308    Z=             -0.5856  Tot=              0.5876
 Quadrupole moment (field-independent basis, Debye-Ang):
   XX=            -50.5594   YY=            -58.4666   ZZ=            -49.8672
   XY=              0.6153   XZ=             -0.6721   YZ=             -0.8724

  Exact polarizability:  91.339   9.308  77.005  -3.391  -3.312  62.573
 Approx polarizability: 122.230  21.368 115.422  -8.056  -6.067  97.224

                      1                      2                      3
                      A                      A                      A
 Frequencies --     41.7963                91.9223               122.9373
 Red. masses --      3.0667                 3.5048                 4.4474
 Frc consts  --      0.0032                 0.0174                 0.0396
 IR Inten    --      3.9158                 1.6873                 0.6863

                      4                      5                      6
                      A                      A                      A
 Frequencies --    192.1925               213.1426               238.6477
 Red. masses --      4.1347                 2.7132                 1.1293
 Frc consts  --      0.0900                 0.0726                 0.0379
 IR Inten    --      0.2766                 0.4284                 1.5274

                      7                      8                      9
                      A                      A                      A
 Frequencies --    255.8781               290.1007               389.9612
 Red. masses --      1.1696                 3.1549                 4.1380
 Frc consts  --      0.0451                 0.1564                 0.3707
 IR Inten    --     87.7872                25.2060                12.2938

                     10                     11                     12
                      A                      A                      A
 Frequencies --    429.7863               464.1455               525.9265
 Red. masses --      3.1915                 4.9475                 4.0337
 Frc consts  --      0.3473                 0.6280                 0.6574
 IR Inten    --     14.5267                15.3118                 1.0531

                     13                     14                     15
                      A                      A                      A
 Frequencies --    597.4434               634.7147               648.6887
 Red. masses --      4.4071                 1.2305                 1.2303
 Frc consts  --      0.9268                 0.2921                 0.3050
 IR Inten    --      6.0681                40.5960                41.1837

                     16                     17                     18
                      A                      A                      A
 Frequencies --    732.6779               828.6522               874.3163
 Red. masses --      3.5076                 1.9553                 2.5095
 Frc consts  --      1.1094                 0.7911                 1.1303
 IR Inten    --      6.7546                 3.1449                 5.2572

                     19                     20                     21
                      A                      A                      A
 Frequencies --    910.9337               969.9395              1019.0695
 Red. masses --      2.5496                 1.6473                 6.0494
 Frc consts  --      1.2465                 0.9131                 3.7014
 IR Inten    --      8.2978                 7.0464                91.1488

                     22                     23                     24
                      A                      A                      A
 Frequencies --   1026.3201              1045.4779              1076.1015
 Red. masses --      3.7592                 2.7384                 2.6356
 Frc consts  --      2.3330                 1.7635                 1.7982
 IR Inten    --     64.1165                 8.6842                 0.3716

                     25                     26                     27
                      A                      A                      A
 Frequencies --   1089.8067              1140.3470              1152.6396
 Red. masses --      1.7603                 1.8911                 1.1505
 Frc consts  --      1.2318                 1.4489                 0.9006
 IR Inten    --      6.3278                14.2141                 0.4341

                     28                     29                     30
                      A                      A                      A
 Frequencies --   1172.6545              1246.4319              1267.7600
 Red. masses --      2.8671                 1.6463                 1.2686
 Frc consts  --      2.3229                 1.5070                 1.2013
 IR Inten    --    129.5167                 1.1042                 0.4165

                     31                     32                     33
                      A                      A                      A
 Frequencies --   1282.6704              1309.8161              1333.0852
 Red. masses --      1.3346                 1.4800                 1.3800
 Frc consts  --      1.2937                 1.4960                 1.4449
 IR Inten    --      8.4783                 2.0403                 5.9916

                     34                     35                     36
                      A                      A                      A
 Frequencies --   1343.9158              1381.7600              1402.9440
 Red. masses --      1.4650                 1.3359                 1.2240
 Frc consts  --      1.5589                 1.5027                 1.4194
 IR Inten    --      4.1674                 2.1699                 5.2500

                     37                     38                     39
                      A                      A                      A
 Frequencies --   1446.2700              1494.8119              1498.7502
 Red. masses --      1.2676                 1.0458                 1.0495
 Frc consts  --      1.5622                 1.3768                 1.3890
 IR Inten    --     49.0384                 4.5365                 3.9951

                     40                     41                     42
                      A                      A                      A
 Frequencies --   1519.7807              2235.5203              2986.4749
 Red. masses --      1.1021                 5.9308                 1.0795
 Frc consts  --      1.4998                17.4630                 5.6728
 IR Inten    --      2.0062                 1.3465                 4.9044

                     43                     44                     45
                      A                      A                      A
 Frequencies --   2999.6583              3033.6103              3048.3779
 Red. masses --      1.0641                 1.0860                 1.0345
 Frc consts  --      5.6414                 5.8886                 5.6642
 IR Inten    --     79.1006                30.6641                22.2348

                     46                     47                     48
                      A                      A                      A
 Frequencies --   3066.3016              3100.7899              3122.3020
 Red. masses --      1.1005                 1.0889                 1.1020
 Frc consts  --      6.0961                 6.1687                 6.3298
 IR Inten    --     33.5346                36.7838                20.4663

                     49                     50                     51
                      A                      A                      A
 Frequencies --   3137.9514              3505.0938              3816.0362
 Red. masses --      1.1030                 1.1620                 1.0657
 Frc consts  --      6.3993                 8.4110                 9.1433
 IR Inten    --     11.3863                67.4223                12.7400

 - Thermochemistry -
 -------------------
 Temperature   298.150 Kelvin.  Pressure   1.00000 Atm.
 Atom     1 has atomic number  6 and mass  12.00000

 Molecular mass:   126.06808 amu.
 Principal axes and moments of inertia in atomic units:
                           1         2         3
     Eigenvalues --   775.977141291.980691888.99915
           X            0.99942  -0.03402  -0.00174
           Y            0.03399   0.99933  -0.01338
           Z            0.00220   0.01331   0.99991
 This molecule is an asymmetric top.
 Rotational symmetry number  1.
 Warning -- assumption of classical behavior for rotation
           may cause significant error
 Rotational temperatures (Kelvin)      0.11162     0.06704     0.04585
 Rotational constants (GHZ):           2.32577     1.39688     0.95540
 Zero-point vibrational energy     411254.2 (Joules/Mol)
                                   98.29211 (Kcal/Mol)
 Warning -- explicit consideration of  13 degrees of freedom as
           vibrations may cause significant error
 Vibrational temperatures:     60.14   132.26   176.88   276.52   306.66
          (Kelvin)            343.36   368.15   417.39   561.07   618.37
                              667.80   756.69   859.59   913.21   933.32
                             1054.16  1192.24  1257.94  1310.63  1395.52
                             1466.21  1476.64  1504.21  1548.27  1567.99
                             1640.70  1658.39  1687.19  1793.34  1824.02
                             1845.47  1884.53  1918.01  1933.59  1988.04
                             2018.52  2080.86  2150.70  2156.36  2186.62
                             3216.41  4296.87  4315.83  4364.68  4385.93
                             4411.72  4461.34  4492.29  4514.81  5043.04
                             5490.42

 Zero-point correction=                           0.156638 (Hartree/Particle)
 Thermal correction to Energy=                    0.166429
 Thermal correction to Enthalpy=                  0.167373
 Thermal correction to Gibbs Free Energy=         0.121501
 Sum of electronic and zero-point Energies=           -422.967629
 Sum of electronic and thermal Energies=              -422.957839
 Sum of electronic and thermal Enthalpies=            -422.956895
 Sum of electronic and thermal Free Energies=         -423.002767

                     E (Thermal)             CV                S
                      KCal/Mol        Cal/Mol-Kelvin    Cal/Mol-Kelvin
 Total                  104.436             35.648             96.546
 Electronic               0.000              0.000              0.000
 Translational            0.889              2.981             40.409
 Rotational               0.889              2.981             29.028
 Vibrational            102.658             29.686             27.110
 Vibration     1          0.594              1.980              5.172
 Vibration     2          0.602              1.955              3.619
 Vibration     3          0.610              1.930              3.054
 Vibration     4          0.634              1.851              2.207
 Vibration     5          0.644              1.821              2.017
 Vibration     6          0.657              1.781              1.813
 Vibration     7          0.666              1.753              1.690
 Vibration     8          0.686              1.692              1.473
 Vibration     9          0.758              1.492              1.000
 Vibration    10          0.791              1.405              0.859
 Vibration    11          0.822              1.330              0.754
 Vibration    12          0.881              1.193              0.596
 Vibration    13          0.955              1.037              0.454

 Optimization completed.
    -- Stationary point found.
 Normal termination of Gaussian 09 at Mon Jan 27 15:07:30 2020.
