 Gaussian 09, Revision D.01,
 Gaussian 09:  ES64L-G09RevD.01 24-Apr-2013

 -----------------------------
 # b3lyp 6-31G(2df,p) opt Freq
 -----------------------------

 -----
 titel
 -----
 Symbolic Z-matrix:
 Charge =  0 Multiplicity = 1

 SCF Done:  E(RB3LYP) =  -423.148667410     A.U. after   13 cycles
 SCF Done:  E(RB3LYP) =  -423.148667270     A.U. after    7 cycles
 SCF Done:  E(RB3LYP) =  -423.148667300     A.U. after    7 cycles
 SCF Done:  E(RB3LYP) =  -423.148667397     A.U. after    7 cycles
 SCF Done:  E(RB3LYP) =  -423.148667460     A.U. after    6 cycles
 Optimization completed.
    -- Stationary point found.
 Normal termination of Gaussian 09 at Mon Jan 27 11:30:34 2020.

 ----------------------------------------------------------------------
 #N Geom=AllCheck Guess=TCheck SCRF=Check GenChk RB3LYP/6-31G(2df,p) Fr
 eq
 ----------------------------------------------------------------------

 Structure from the checkpoint file:  "/scratch/puck/g09_7e8d8fe7-a9e5-497b-9bc4-7698235523d8/Gau-94783.chk"
 -----
 titel
 -----
 Charge =  0 Multiplicity = 1

                         Standard orientation:
 ---------------------------------------------------------------------
 Center     Atomic      Atomic             Coordinates (Angstroms)
 Number     Number       Type             X           Y           Z
 ---------------------------------------------------------------------
      1          6           0        3.483144   -0.038404   -0.022159
      2          6           0        2.287063   -0.025808   -0.133126
      3          6           0        0.833210    0.028320   -0.272631
      4          6           0        0.269211    1.395699    0.167611
      5          6           0       -1.227556    1.568486   -0.126910
      6          6           0       -2.106961    0.383902    0.285484
      7          8           0       -1.815798   -0.754427   -0.524857
      8          6           0       -0.865165   -1.633193    0.008798
      9          8           0        0.257490   -0.992215    0.554800
     10          1           0        4.540550   -0.062796    0.073277
     11          1           0        0.570055   -0.157543   -1.323802
     12          1           0        0.462322    1.480928    1.242731
     13          1           0        0.837922    2.191910   -0.324263
     14          1           0       -1.589452    2.473747    0.375654
     15          1           0       -1.377861    1.723821   -1.202295
     16          1           0       -1.986978    0.146500    1.350951
     17          1           0       -3.160102    0.623955    0.107363
     18          1           0       -1.272552   -2.223196    0.842770
     19          1           0       -0.595128   -2.298201   -0.824337
 ---------------------------------------------------------------------

 SCF Done:  E(RB3LYP) =  -423.148667460     A.U. after    1 cycles

 The electronic state is 1-A.
 Alpha  occ. eigenvalues --  -19.14791 -19.14506 -10.27448 -10.25801 -10.23117
 Alpha  occ. eigenvalues --  -10.18876 -10.18711 -10.18104 -10.17570  -1.07195
 Alpha  occ. eigenvalues --   -1.00748  -0.81397  -0.76041  -0.71246  -0.69835
 Alpha  occ. eigenvalues --   -0.60850  -0.59182  -0.53491  -0.52571  -0.50365
 Alpha  occ. eigenvalues --   -0.48547  -0.45871  -0.44432  -0.43411  -0.40969
 Alpha  occ. eigenvalues --   -0.38277  -0.36367  -0.35340  -0.33545  -0.30354
 Alpha  occ. eigenvalues --   -0.29141  -0.28003  -0.26717  -0.24984
 Alpha virt. eigenvalues --    0.03976   0.05389   0.09604   0.11178   0.12127
 Alpha virt. eigenvalues --    0.12681   0.14271   0.14587   0.15332   0.15805
 Alpha virt. eigenvalues --    0.17006   0.17427   0.17916   0.20869   0.22265

 Mulliken charges:
               1
     1  C   -0.406144
     2  C    0.315294
     3  C   -0.098489
     4  C   -0.186723
     5  C   -0.212665
     6  C   -0.077146
     7  O   -0.237120
     8  C   -0.007411
     9  O   -0.247003
    10  H    0.195954
    11  H    0.111789
    12  H    0.116484
    13  H    0.108805
    14  H    0.097944
    15  H    0.109133
    16  H    0.105315
    17  H    0.107007
    18  H    0.101796
    19  H    0.103177
 Sum of Mulliken charges =   0.00000

 Dipole moment (field-independent basis, Debye):
    X=             -0.3554    Y=              0.9853    Z=             -0.0041  Tot=              1.0475
 Quadrupole moment (field-independent basis, Debye-Ang):
   XX=            -49.6687   YY=            -51.5927   ZZ=            -54.2238
   XY=             -0.6627   XZ=             -2.4305   YZ=              0.3638

  Exact polarizability: 103.387  -0.965  72.874  -0.269   0.206  58.716
 Approx polarizability: 142.709  -0.320  98.526   3.796  -0.036  93.732

                      1                      2                      3
                      A                      A                      A
 Frequencies --    100.7156               137.0635               206.6951
 Red. masses --      3.6263                 3.6904                 2.7234
 Frc consts  --      0.0217                 0.0408                 0.0686
 IR Inten    --      1.0575                 1.1640                 9.1812

                      4                      5                      6
                      A                      A                      A
 Frequencies --    219.7571               283.7546               303.1651
 Red. masses --      2.7202                 4.4355                 3.5434
 Frc consts  --      0.0774                 0.2104                 0.1919
 IR Inten    --      1.6479                 5.3543                 0.5902

                      7                      8                      9
                      A                      A                      A
 Frequencies --    374.3717               410.2454               498.9741
 Red. masses --      2.3301                 3.6659                 1.8354
 Frc consts  --      0.1924                 0.3635                 0.2692
 IR Inten    --      0.9934                 2.4863                 5.4963

                     10                     11                     12
                      A                      A                      A
 Frequencies --    514.3016               533.3113               625.1464
 Red. masses --      5.5077                 3.8895                 1.2231
 Frc consts  --      0.8583                 0.6518                 0.2816
 IR Inten    --      6.4666                 1.8090                40.6697

                     13                     14                     15
                      A                      A                      A
 Frequencies --    654.2653               665.9299               812.6082
 Red. masses --      4.3686                 1.2952                 2.6028
 Frc consts  --      1.1018                 0.3384                 1.0126
 IR Inten    --      8.6977                31.7325                 0.9528

                     16                     17                     18
                      A                      A                      A
 Frequencies --    843.2025               896.1034               923.8619
 Red. masses --      2.0366                 2.7653                 2.2688
 Frc consts  --      0.8531                 1.3083                 1.1409
 IR Inten    --      7.0233                 5.9670                13.2401

                     19                     20                     21
                      A                      A                      A
 Frequencies --    941.2745              1017.4729              1038.3216
 Red. masses --      2.5716                 3.0257                 3.0099
 Frc consts  --      1.3424                 1.8455                 1.9119
 IR Inten    --      8.3948                11.5096                18.3063

                     22                     23                     24
                      A                      A                      A
 Frequencies --   1074.0596              1083.6249              1123.2115
 Red. masses --      2.1274                 5.1522                 2.4330
 Frc consts  --      1.4460                 3.5645                 1.8085
 IR Inten    --      9.2272               218.7071                44.6378

                     25                     26                     27
                      A                      A                      A
 Frequencies --   1151.6365              1162.0903              1224.9622
 Red. masses --      3.1044                 1.9673                 1.3418
 Frc consts  --      2.4259                 1.5653                 1.1863
 IR Inten    --    126.3029                55.4453                 5.6506

                     28                     29                     30
                      A                      A                      A
 Frequencies --   1256.1306              1280.7095              1312.8159
 Red. masses --      1.4315                 1.1538                 1.2726
 Frc consts  --      1.3308                 1.1150                 1.2922
 IR Inten    --      8.2884                31.4952                 9.4460

                     31                     32                     33
                      A                      A                      A
 Frequencies --   1322.7335              1373.2890              1377.8885
 Red. masses --      1.1487                 1.2314                 1.3849
 Frc consts  --      1.1842                 1.3683                 1.5492
 IR Inten    --      3.3479                21.1480                 2.8161

                     34                     35                     36
                      A                      A                      A
 Frequencies --   1389.0648              1403.4774              1442.3317
 Red. masses --      1.3945                 1.2993                 1.1981
 Frc consts  --      1.5853                 1.5079                 1.4685
 IR Inten    --      6.4772                 9.7406                 8.2638

                     37                     38                     39
                      A                      A                      A
 Frequencies --   1470.6183              1478.2008              1496.4082
 Red. masses --      1.0832                 1.0962                 1.0920
 Frc consts  --      1.3803                 1.4113                 1.4407
 IR Inten    --      2.3208                 4.5257                 3.1794

                     40                     41                     42
                      A                      A                      A
 Frequencies --   1519.3079              2241.9964              2989.3186
 Red. masses --      1.0957                 5.9071                 1.0527
 Frc consts  --      1.4902                17.4942                 5.5422
 IR Inten    --      0.0377                 0.4407                96.6679

                     43                     44                     45
                      A                      A                      A
 Frequencies --   3005.5583              3018.5145              3027.7147
 Red. masses --      1.0812                 1.0620                 1.0605
 Frc consts  --      5.7546                 5.7013                 5.7281
 IR Inten    --     10.7253                33.1663                19.5858

                     46                     47                     48
                      A                      A                      A
 Frequencies --   3032.5019              3044.0299              3068.5959
 Red. masses --      1.1121                 1.0624                 1.0982
 Frc consts  --      6.0255                 5.7999                 6.0928
 IR Inten    --     48.2481                15.1104                29.9528

                     49                     50                     51
                      A                      A                      A
 Frequencies --   3079.7589              3092.0652              3504.1004
 Red. masses --      1.1036                 1.1041                 1.1631
 Frc consts  --      6.1672                 6.2198                 8.4140
 IR Inten    --     37.7329                35.2012                66.3845

 - Thermochemistry -
 -------------------
 Temperature   298.150 Kelvin.  Pressure   1.00000 Atm.
 Atom     1 has atomic number  6 and mass  12.00000

 Molecular mass:   126.06808 amu.
 Principal axes and moments of inertia in atomic units:
                           1         2         3
     Eigenvalues --   566.360131479.714011901.71484
           X            0.99993  -0.00900  -0.00711
           Y            0.00903   0.99995   0.00421
           Z            0.00707  -0.00427   0.99997
 This molecule is an asymmetric top.
 Rotational symmetry number  1.
 Warning -- assumption of classical behavior for rotation
           may cause significant error
 Rotational temperatures (Kelvin)      0.15293     0.05853     0.04555
 Rotational constants (GHZ):           3.18656     1.21966     0.94901
 Zero-point vibrational energy     418975.6 (Joules/Mol)
                                  100.13758 (Kcal/Mol)
 Warning -- explicit consideration of  11 degrees of freedom as
           vibrations may cause significant error
 Vibrational temperatures:    144.91   197.20   297.39   316.18   408.26
          (Kelvin)            436.19   538.64   590.25   717.91   739.96
                              767.32   899.45   941.34   958.12  1169.16
                             1213.18  1289.29  1329.23  1354.28  1463.91
                             1493.91  1545.33  1559.09  1616.05  1656.95
                             1671.99  1762.45  1807.29  1842.65  1888.85
                             1903.12  1975.85  1982.47  1998.55  2019.29
                             2075.19  2115.89  2126.80  2152.99  2185.94
                             3225.73  4300.96  4324.32  4342.96  4356.20
                             4363.09  4379.67  4415.02  4431.08  4448.79
                             5041.61

 Zero-point correction=                           0.159579 (Hartree/Particle)
 Thermal correction to Energy=                    0.168024
 Thermal correction to Enthalpy=                  0.168968
 Thermal correction to Gibbs Free Energy=         0.126692
 Sum of electronic and zero-point Energies=           -422.989088
 Sum of electronic and thermal Energies=              -422.980643
 Sum of electronic and thermal Enthalpies=            -422.979699
 Sum of electronic and thermal Free Energies=         -423.021975

                     E (Thermal)             CV                S
                      KCal/Mol        Cal/Mol-Kelvin    Cal/Mol-Kelvin
 Total                  105.437             32.557             88.978
 Electronic               0.000              0.000              0.000
 Translational            0.889              2.981             40.409
 Rotational               0.889              2.981             28.857
 Vibrational            103.659             26.595             19.713
 Vibration     1          0.604              1.949              3.440
 Vibration     2          0.614              1.916              2.844
 Vibration     3          0.641              1.830              2.073
 Vibration     4          0.647              1.811              1.961
 Vibration     5          0.682              1.704              1.511
 Vibration     6          0.695              1.668              1.399
 Vibration     7          0.745              1.525              1.062
 Vibration     8          0.774              1.448              0.926
 Vibration     9          0.854              1.252              0.661
 Vibration    10          0.869              1.218              0.623
 Vibration    11          0.888              1.176              0.580

 Optimization completed.
    -- Stationary point found.
 Normal termination of Gaussian 09 at Mon Jan 27 12:10:22 2020.
