 Gaussian 09, Revision D.01,
 Gaussian 09:  ES64L-G09RevD.01 24-Apr-2013

 -----------------------------
 # b3lyp 6-31G(2df,p) opt Freq
 -----------------------------

 -----
 titel
 -----
 Symbolic Z-matrix:
 Charge =  0 Multiplicity = 1

 SCF Done:  E(RB3LYP) =  -423.153190485     A.U. after   14 cycles
 Optimization completed.
    -- Stationary point found.
 Normal termination of Gaussian 09 at Tue Jan 28 08:17:36 2020.

 ----------------------------------------------------------------------
 #N Geom=AllCheck Guess=TCheck SCRF=Check GenChk RB3LYP/6-31G(2df,p) Fr
 eq
 ----------------------------------------------------------------------

 Structure from the checkpoint file:  "/scratch/puck/g09_80647dbd-ce78-4180-a392-9339a44b4bd3/Gau-8481.chk"
 -----
 titel
 -----
 Charge =  0 Multiplicity = 1

                         Standard orientation:
 ---------------------------------------------------------------------
 Center     Atomic      Atomic             Coordinates (Angstroms)
 Number     Number       Type             X           Y           Z
 ---------------------------------------------------------------------
      1          6           0        0.271195    2.522921    0.119977
      2          8           0       -0.393516    1.402810   -0.429170
      3          6           0       -0.160519    0.190216    0.274735
      4          6           0       -1.141919   -0.840626   -0.310281
      5          6           0       -2.591302   -0.475151   -0.059744
      6          8           0       -3.448359   -1.275612    0.215978
      7          6           0        1.228184   -0.270207    0.169072
      8          6           0        2.364104   -0.658602    0.070701
      9          6           0        3.736010   -1.130414   -0.046891
     10          1           0       -0.043200    2.708776    1.158538
     11          1           0        1.361483    2.395174    0.101852
     12          1           0       -0.000820    3.384831   -0.493048
     13          1           0       -0.395523    0.344480    1.343280
     14          1           0       -0.979066   -0.865779   -1.395679
     15          1           0       -0.948876   -1.839290    0.086840
     16          1           0       -2.818888    0.607320   -0.159973
     17          1           0        3.780304   -2.224078   -0.003524
     18          1           0        4.180309   -0.818725   -0.998307
     19          1           0        4.364753   -0.739124    0.760141
 ---------------------------------------------------------------------

 SCF Done:  E(RB3LYP) =  -423.153190485     A.U. after    1 cycles

 The electronic state is 1-A.
 Alpha  occ. eigenvalues --  -19.15312 -19.13594 -10.26724 -10.26703 -10.22908
 Alpha  occ. eigenvalues --  -10.21229 -10.19671 -10.18814 -10.17653  -1.04640
 Alpha  occ. eigenvalues --   -1.04152  -0.80811  -0.77822  -0.71563  -0.69203
 Alpha  occ. eigenvalues --   -0.64153  -0.57497  -0.51499  -0.50905  -0.48282
 Alpha  occ. eigenvalues --   -0.46316  -0.44532  -0.43598  -0.43464  -0.43146
 Alpha  occ. eigenvalues --   -0.42326  -0.40238  -0.37759  -0.36036  -0.33631
 Alpha  occ. eigenvalues --   -0.27917  -0.26592  -0.26274  -0.24283
 Alpha virt. eigenvalues --   -0.02173   0.03636   0.04784   0.10025   0.10531
 Alpha virt. eigenvalues --    0.12285   0.13431   0.14071   0.15106   0.16032
 Alpha virt. eigenvalues --    0.17200   0.17513   0.18122   0.19073   0.20412

 Mulliken charges:
               1
     1  C   -0.239049
     2  O   -0.231340
     3  C   -0.106062
     4  C   -0.283402
     5  C    0.149427
     6  O   -0.244957
     7  C    0.083018
     8  C    0.088669
     9  C   -0.500974
    10  H    0.106719
    11  H    0.120844
    12  H    0.130956
    13  H    0.096297
    14  H    0.142935
    15  H    0.131580
    16  H    0.094701
    17  H    0.154661
    18  H    0.154363
    19  H    0.151614
 Sum of Mulliken charges =   0.00000

 Dipole moment (field-independent basis, Debye):
    X=              3.6392    Y=              1.1757    Z=              0.1706  Tot=              3.8282
 Quadrupole moment (field-independent basis, Debye-Ang):
   XX=            -57.2552   YY=            -51.5764   ZZ=            -52.8007
   XY=             -7.1396   XZ=              1.0093   YZ=              1.9765

  Exact polarizability: 110.881  -6.926  79.880  -3.069  -0.068  56.852
 Approx polarizability: 152.254  -9.576 109.540  -6.429  -2.181  87.627

                      1                      2                      3
                      A                      A                      A
 Frequencies --     27.5658                52.0712                66.9290
 Red. masses --      1.0199                 3.8427                 3.7957
 Frc consts  --      0.0005                 0.0061                 0.0100
 IR Inten    --      0.0355                 5.8264                 1.1274

                      4                      5                      6
                      A                      A                      A
 Frequencies --     84.5125               103.4246               144.2853
 Red. masses --      2.6998                 2.8765                 2.3152
 Frc consts  --      0.0114                 0.0181                 0.0284
 IR Inten    --      0.6936                 3.5545                 3.0006

                      7                      8                      9
                      A                      A                      A
 Frequencies --    206.8452               233.2735               271.9735
 Red. masses --      1.7802                 1.9573                 3.2895
 Frc consts  --      0.0449                 0.0628                 0.1434
 IR Inten    --      1.9598                 5.9105                 8.2057

                     10                     11                     12
                      A                      A                      A
 Frequencies --    315.1086               349.5021               424.1319
 Red. masses --      3.8412                 3.8742                 4.8420
 Frc consts  --      0.2247                 0.2788                 0.5132
 IR Inten    --      3.0666                 2.7336                 5.9912

                     13                     14                     15
                      A                      A                      A
 Frequencies --    449.1701               538.8478               582.9263
 Red. masses --      5.0563                 3.1851                 2.9625
 Frc consts  --      0.6010                 0.5449                 0.5931
 IR Inten    --      0.7759                 0.6660                18.7468

                     16                     17                     18
                      A                      A                      A
 Frequencies --    788.6846               796.6737               889.2642
 Red. masses --      2.0016                 3.5287                 2.4835
 Frc consts  --      0.7336                 1.3195                 1.1571
 IR Inten    --      0.7983                 8.7518                11.9720

                     19                     20                     21
                      A                      A                      A
 Frequencies --   1015.4823              1051.5602              1054.3278
 Red. masses --      3.0265                 1.4271                 1.4014
 Frc consts  --      1.8388                 0.9298                 0.9178
 IR Inten    --     15.7485                 2.3438                 1.1054

                     22                     23                     24
                      A                      A                      A
 Frequencies --   1078.7821              1093.3281              1139.5795
 Red. masses --      3.7721                 2.2958                 7.9829
 Frc consts  --      2.5864                 1.6169                 6.1081
 IR Inten    --     47.9822                12.0774               166.4534

                     25                     26                     27
                      A                      A                      A
 Frequencies --   1161.4687              1184.5912              1200.5953
 Red. masses --      3.1969                 1.3028                 1.3380
 Frc consts  --      2.5409                 1.0771                 1.1363
 IR Inten    --     26.4287                 1.4612                 7.2237

                     28                     29                     30
                      A                      A                      A
 Frequencies --   1249.3967              1275.9541              1354.5048
 Red. masses --      1.4863                 1.3129                 1.2996
 Frc consts  --      1.3670                 1.2593                 1.4048
 IR Inten    --      9.0004                 2.5341                18.4920

                     31                     32                     33
                      A                      A                      A
 Frequencies --   1368.0060              1414.2023              1417.5604
 Red. masses --      1.3729                 1.2398                 1.2276
 Frc consts  --      1.5138                 1.4610                 1.4534
 IR Inten    --     52.6903                 5.4405                13.9304

                     34                     35                     36
                      A                      A                      A
 Frequencies --   1441.6375              1476.2759              1477.7358
 Red. masses --      1.0868                 1.0395                 1.0926
 Frc consts  --      1.3308                 1.3348                 1.4058
 IR Inten    --      6.3345                 6.2908                 3.3355

                     37                     38                     39
                      A                      A                      A
 Frequencies --   1477.9080              1485.1532              1510.7514
 Red. masses --      1.0923                 1.0472                 1.0538
 Frc consts  --      1.4057                 1.3609                 1.4171
 IR Inten    --      3.6145                 3.5422                 6.9832

                     40                     41                     42
                      A                      A                      A
 Frequencies --   1830.0955              2365.3031              2913.1510
 Red. masses --     10.0730                11.8667                 1.0834
 Frc consts  --     19.8772                39.1158                 5.4170
 IR Inten    --    194.7463                20.2915                78.5739

                     43                     44                     45
                      A                      A                      A
 Frequencies --   2939.4496              2985.8698              3030.3518
 Red. masses --      1.0805                 1.0406                 1.0347
 Frc consts  --      5.5004                 5.4661                 5.5984
 IR Inten    --     35.4728                56.5072                25.9248

                     46                     47                     48
                      A                      A                      A
 Frequencies --   3040.3062              3048.9224              3092.6208
 Red. masses --      1.0648                 1.0972                 1.1004
 Frc consts  --      5.7991                 6.0092                 6.2009
 IR Inten    --      4.2125                38.6031                 8.4239

                     49                     50                     51
                      A                      A                      A
 Frequencies --   3093.4151              3123.3985              3123.9031
 Red. masses --      1.1001                 1.0969                 1.0985
 Frc consts  --      6.2024                 6.3045                 6.3163
 IR Inten    --      7.7585                 6.7541                22.9625

 - Thermochemistry -
 -------------------
 Temperature   298.150 Kelvin.  Pressure   1.00000 Atm.
 Atom     1 has atomic number  6 and mass  12.00000

 Molecular mass:   126.06808 amu.
 Principal axes and moments of inertia in atomic units:
                           1         2         3
     Eigenvalues --   769.775332210.338332884.78912
           X            0.99964  -0.02697   0.00042
           Y            0.02695   0.99948   0.01779
           Z           -0.00090  -0.01777   0.99984
 This molecule is an asymmetric top.
 Rotational symmetry number  1.
 Warning -- assumption of classical behavior for rotation
           may cause significant error
 Rotational temperatures (Kelvin)      0.11252     0.03919     0.03002
 Rotational constants (GHZ):           2.34450     0.81650     0.62561
 Zero-point vibrational energy     405778.0 (Joules/Mol)
                                   96.98326 (Kcal/Mol)
 Warning -- explicit consideration of  15 degrees of freedom as
           vibrations may cause significant error
 Vibrational temperatures:     39.66    74.92    96.30   121.59   148.80
          (Kelvin)            207.59   297.60   335.63   391.31   453.37
                              502.85   610.23   646.25   775.28   838.70
                             1134.74  1146.23  1279.45  1461.05  1512.96
                             1516.94  1552.12  1573.05  1639.60  1671.09
                             1704.36  1727.39  1797.60  1835.81  1948.83
                             1968.25  2034.72  2039.55  2074.19  2124.03
                             2126.13  2126.38  2136.80  2173.63  2633.10
                             3403.14  4191.37  4229.21  4296.00  4359.99
                             4374.32  4386.71  4449.59  4450.73  4493.87
                             4494.59

 Zero-point correction=                           0.154553 (Hartree/Particle)
 Thermal correction to Energy=                    0.165774
 Thermal correction to Enthalpy=                  0.166718
 Thermal correction to Gibbs Free Energy=         0.115706
 Sum of electronic and zero-point Energies=           -422.998638
 Sum of electronic and thermal Energies=              -422.987417
 Sum of electronic and thermal Enthalpies=            -422.986472
 Sum of electronic and thermal Free Energies=         -423.037485

                     E (Thermal)             CV                S
                      KCal/Mol        Cal/Mol-Kelvin    Cal/Mol-Kelvin
 Total                  104.025             36.907            107.365
 Electronic               0.000              0.000              0.000
 Translational            0.889              2.981             40.409
 Rotational               0.889              2.981             29.974
 Vibrational            102.247             30.946             36.982
 Vibration     1          0.593              1.984              5.997
 Vibration     2          0.596              1.977              4.737
 Vibration     3          0.598              1.970              4.242
 Vibration     4          0.601              1.960              3.783
 Vibration     5          0.605              1.946              3.389
 Vibration     6          0.616              1.909              2.746
 Vibration     7          0.641              1.830              2.071
 Vibration     8          0.654              1.790              1.854
 Vibration     9          0.675              1.725              1.584
 Vibration    10          0.702              1.645              1.335
 Vibration    11          0.727              1.576              1.168
 Vibration    12          0.786              1.418              0.878
 Vibration    13          0.808              1.363              0.798
 Vibration    14          0.894              1.164              0.568
 Vibration    15          0.940              1.068              0.480

 Optimization completed on the basis of negligible forces.
    -- Stationary point found.
 Normal termination of Gaussian 09 at Tue Jan 28 08:54:42 2020.
