 Gaussian 09, Revision D.01,
 Gaussian 09:  ES64L-G09RevD.01 24-Apr-2013

 -----------------------------
 # b3lyp 6-31G(2df,p) opt Freq
 -----------------------------

 -----
 titel
 -----
 Symbolic Z-matrix:
 Charge =  0 Multiplicity = 1

 SCF Done:  E(RB3LYP) =  -423.103110011     A.U. after   12 cycles
 Optimization completed.
    -- Stationary point found.
 Normal termination of Gaussian 09 at Mon Jan 27 22:05:57 2020.

 ----------------------------------------------------------------------
 #N Geom=AllCheck Guess=TCheck SCRF=Check GenChk RB3LYP/6-31G(2df,p) Fr
 eq
 ----------------------------------------------------------------------

 Structure from the checkpoint file:  "/scratch/puck/g09_ce7b64a0-e717-4a4b-a8d2-f352555da2bf/Gau-85628.chk"
 -----
 titel
 -----
 Charge =  0 Multiplicity = 1

                         Standard orientation:
 ---------------------------------------------------------------------
 Center     Atomic      Atomic             Coordinates (Angstroms)
 Number     Number       Type             X           Y           Z
 ---------------------------------------------------------------------
      1          6           0        2.756265   -0.233048   -0.284420
      2          6           0        1.286459   -0.587371   -0.395743
      3          6           0        0.509568   -0.678884    0.914145
      4          6           0       -0.987723   -1.088040    0.780824
      5          6           0       -1.452120   -1.295218   -0.657104
      6          6           0       -1.213718    0.086130   -0.166282
      7          8           0       -2.182639    1.063722   -0.239101
      8          6           0        0.294504    0.482382   -0.015403
      9          8           0        0.610409    1.813312    0.222658
     10          1           0        3.357059   -1.125401   -0.080669
     11          1           0        3.125368    0.210678   -1.215907
     12          1           0        2.930583    0.488822    0.518037
     13          1           0        1.063304   -1.275318   -1.206272
     14          1           0        1.032901   -0.685119    1.862051
     15          1           0       -1.576882   -1.446207    1.615329
     16          1           0       -0.854588   -1.784010   -1.420608
     17          1           0       -2.510042   -1.537426   -0.716308
     18          1           0       -1.899619    1.776265    0.348222
     19          1           0        0.750354    2.245743   -0.628433
 ---------------------------------------------------------------------

 SCF Done:  E(RB3LYP) =  -423.103110011     A.U. after    1 cycles

 The electronic state is 1-A.
 Alpha  occ. eigenvalues --  -19.15875 -19.14597 -10.23550 -10.23442 -10.19381
 Alpha  occ. eigenvalues --  -10.18691 -10.18488 -10.18375 -10.17919  -1.04662
 Alpha  occ. eigenvalues --   -1.02590  -0.90399  -0.80500  -0.71229  -0.62570
 Alpha  occ. eigenvalues --   -0.61489  -0.56712  -0.55316  -0.52667  -0.49718
 Alpha  occ. eigenvalues --   -0.46926  -0.43638  -0.42720  -0.40940  -0.40242
 Alpha  occ. eigenvalues --   -0.37175  -0.36636  -0.36248  -0.34894  -0.32820
 Alpha  occ. eigenvalues --   -0.29099  -0.27465  -0.25695  -0.19844
 Alpha virt. eigenvalues --    0.05902   0.09028   0.10566   0.10975   0.11777
 Alpha virt. eigenvalues --    0.12822   0.14878   0.15349   0.16673   0.17821
 Alpha virt. eigenvalues --    0.18142   0.19645   0.21391   0.22364   0.24010

 Mulliken charges:
               1
     1  C   -0.426604
     2  C   -0.099300
     3  C   -0.126378
     4  C   -0.161568
     5  C   -0.354708
     6  C    0.359960
     7  O   -0.457289
     8  C    0.285238
     9  O   -0.459300
    10  H    0.120448
    11  H    0.112899
    12  H    0.129728
    13  H    0.079805
    14  H    0.093712
    15  H    0.092985
    16  H    0.110978
    17  H    0.119974
    18  H    0.288336
    19  H    0.291084
 Sum of Mulliken charges =   0.00000

 Dipole moment (field-independent basis, Debye):
    X=              1.1392    Y=              0.2579    Z=             -0.3327  Tot=              1.2145
 Quadrupole moment (field-independent basis, Debye-Ang):
   XX=            -55.2585   YY=            -50.8822   ZZ=            -51.5332
   XY=              0.9615   XZ=             -3.1529   YZ=             -1.2364

  Exact polarizability:  85.536   1.757  73.634  -0.915  -0.379  66.137
 Approx polarizability: 109.919  -0.707 113.399   0.165  -2.443 106.816

                      1                      2                      3
                      A                      A                      A
 Frequencies --    159.1742               189.1204               204.4985
 Red. masses --      4.6526                 1.3538                 1.9249
 Frc consts  --      0.0695                 0.0285                 0.0474
 IR Inten    --      1.6389                 6.6702                10.9068

                      4                      5                      6
                      A                      A                      A
 Frequencies --    222.5243               248.5789               285.4074
 Red. masses --      2.7937                 2.7472                 1.1477
 Frc consts  --      0.0815                 0.1000                 0.0551
 IR Inten    --      5.5780                15.9526               118.6692

                      7                      8                      9
                      A                      A                      A
 Frequencies --    349.9118               410.5890               420.2047
 Red. masses --      3.0646                 2.3061                 2.4257
 Frc consts  --      0.2211                 0.2291                 0.2524
 IR Inten    --     13.2108                 5.0572                 7.0246

                     10                     11                     12
                      A                      A                      A
 Frequencies --    449.2136               480.7751               521.3665
 Red. masses --      1.5884                 3.0206                 3.0786
 Frc consts  --      0.1888                 0.4114                 0.4931
 IR Inten    --     31.5063                16.6725                 7.6458

                     13                     14                     15
                      A                      A                      A
 Frequencies --    626.2568               653.6759               782.8717
 Red. masses --      3.6628                 4.2106                 3.1908
 Frc consts  --      0.8464                 1.0600                 1.1522
 IR Inten    --     18.3070                 2.2000                 3.2021

                     16                     17                     18
                      A                      A                      A
 Frequencies --    800.4360               866.9788               910.8221
 Red. masses --      2.7525                 1.7535                 1.6896
 Frc consts  --      1.0390                 0.7766                 0.8259
 IR Inten    --      3.5289                 0.8954                 5.6913

                     19                     20                     21
                      A                      A                      A
 Frequencies --    928.9645               945.6590               958.7582
 Red. masses --      3.3207                 2.7876                 1.5390
 Frc consts  --      1.6884                 1.4687                 0.8335
 IR Inten    --     18.3398                15.1399                 6.8997

                     22                     23                     24
                      A                      A                      A
 Frequencies --    974.7844              1001.3483              1015.2397
 Red. masses --      1.6737                 1.3001                 1.7006
 Frc consts  --      0.9370                 0.7680                 1.0327
 IR Inten    --      1.2522                 0.4652                 2.6315

                     25                     26                     27
                      A                      A                      A
 Frequencies --   1053.9037              1090.3969              1127.7819
 Red. masses --      1.6763                 1.5133                 2.1939
 Frc consts  --      1.0970                 1.0601                 1.6441
 IR Inten    --     19.6691                 5.5697                 6.8784

                     28                     29                     30
                      A                      A                      A
 Frequencies --   1139.5713              1147.2573              1210.2873
 Red. masses --      2.0917                 1.5683                 1.8707
 Frc consts  --      1.6004                 1.2162                 1.6144
 IR Inten    --      0.5247                 0.8600                35.2662

                     31                     32                     33
                      A                      A                      A
 Frequencies --   1225.6631              1248.7867              1286.4026
 Red. masses --      1.8531                 1.8820                 1.4926
 Frc consts  --      1.6402                 1.7292                 1.4553
 IR Inten    --     45.9136                 2.6375                73.8132

                     34                     35                     36
                      A                      A                      A
 Frequencies --   1331.1504              1365.5779              1412.6231
 Red. masses --      1.9446                 1.9917                 1.4080
 Frc consts  --      2.0302                 2.1883                 1.6554
 IR Inten    --    197.6140                45.3029                 1.8890

                     37                     38                     39
                      A                      A                      A
 Frequencies --   1417.3492              1455.0690              1495.4709
 Red. masses --      1.6701                 2.1344                 1.0482
 Frc consts  --      1.9768                 2.6625                 1.3812
 IR Inten    --      9.6446                 5.6117                 3.4311

                     40                     41                     42
                      A                      A                      A
 Frequencies --   1505.2853              1510.0311              3032.3347
 Red. masses --      1.1155                 1.6482                 1.0364
 Frc consts  --      1.4892                 2.2143                 5.6150
 IR Inten    --      5.5538                14.1914                37.7547

                     43                     44                     45
                      A                      A                      A
 Frequencies --   3091.0253              3111.0576              3115.4946
 Red. masses --      1.1004                 1.0738                 1.0819
 Frc consts  --      6.1946                 6.1235                 6.1871
 IR Inten    --     22.6782                12.0917                 2.3056

                     46                     47                     48
                      A                      A                      A
 Frequencies --   3144.3202              3187.3027              3193.7590
 Red. masses --      1.0856                 1.0951                 1.1059
 Frc consts  --      6.3240                 6.5549                 6.6464
 IR Inten    --     34.0044                 5.5040                 9.2876

                     49                     50                     51
                      A                      A                      A
 Frequencies --   3198.8964              3770.6411              3773.9128
 Red. masses --      1.0974                 1.0658                 1.0655
 Frc consts  --      6.6161                 8.9283                 8.9410
 IR Inten    --     19.2208                28.5472                22.4078

 - Thermochemistry -
 -------------------
 Temperature   298.150 Kelvin.  Pressure   1.00000 Atm.
 Atom     1 has atomic number  6 and mass  12.00000

 Molecular mass:   126.06808 amu.
 Principal axes and moments of inertia in atomic units:
                           1         2         3
     Eigenvalues --   634.140221205.327751555.16603
           X            0.99986   0.01308  -0.01000
           Y           -0.01299   0.99988   0.00871
           Z            0.01011  -0.00858   0.99991
 This molecule is an asymmetric top.
 Rotational symmetry number  1.
 Warning -- assumption of classical behavior for rotation
           may cause significant error
 Rotational temperatures (Kelvin)      0.13658     0.07186     0.05569
 Rotational constants (GHZ):           2.84597     1.49730     1.16048
 Zero-point vibrational energy     413001.8 (Joules/Mol)
                                   98.70980 (Kcal/Mol)
 Warning -- explicit consideration of  12 degrees of freedom as
           vibrations may cause significant error
 Vibrational temperatures:    229.02   272.10   294.23   320.16   357.65
          (Kelvin)            410.64   503.44   590.75   604.58   646.32
                              691.73   750.13   901.04   940.49  1126.38
                             1151.65  1247.39  1310.47  1336.57  1360.59
                             1379.44  1402.50  1440.72  1460.70  1516.33
                             1568.84  1622.62  1639.59  1650.65  1741.33
                             1763.45  1796.72  1850.84  1915.23  1964.76
                             2032.45  2039.25  2093.52  2151.65  2165.77
                             2172.60  4362.85  4447.29  4476.11  4482.50
                             4523.97  4585.81  4595.10  4602.49  5425.10
                             5429.81

 Zero-point correction=                           0.157304 (Hartree/Particle)
 Thermal correction to Energy=                    0.166044
 Thermal correction to Enthalpy=                  0.166989
 Thermal correction to Gibbs Free Energy=         0.124780
 Sum of electronic and zero-point Energies=           -422.945806
 Sum of electronic and thermal Energies=              -422.937066
 Sum of electronic and thermal Enthalpies=            -422.936121
 Sum of electronic and thermal Free Energies=         -422.978330

                     E (Thermal)             CV                S
                      KCal/Mol        Cal/Mol-Kelvin    Cal/Mol-Kelvin
 Total                  104.194             34.688             88.835
 Electronic               0.000              0.000              0.000
 Translational            0.889              2.981             40.409
 Rotational               0.889              2.981             28.565
 Vibrational            102.417             28.726             19.861
 Vibration     1          0.621              1.892              2.560
 Vibration     2          0.633              1.855              2.236
 Vibration     3          0.640              1.833              2.092
 Vibration     4          0.648              1.807              1.938
 Vibration     5          0.662              1.765              1.741
 Vibration     6          0.683              1.701              1.501
 Vibration     7          0.727              1.575              1.167
 Vibration     8          0.775              1.447              0.925
 Vibration     9          0.783              1.426              0.891
 Vibration    10          0.808              1.363              0.798
 Vibration    11          0.837              1.293              0.708
 Vibration    12          0.876              1.203              0.607

 Normal termination of Gaussian 09 at Mon Jan 27 23:01:21 2020.
