 Gaussian 09, Revision D.01,
 Gaussian 09:  ES64L-G09RevD.01 24-Apr-2013

 -----------------------------
 # b3lyp 6-31G(2df,p) opt Freq
 -----------------------------

 -----
 titel
 -----
 Symbolic Z-matrix:
 Charge =  0 Multiplicity = 1

 SCF Done:  E(RB3LYP) =  -423.188816031     A.U. after   13 cycles
 Optimization completed.
    -- Stationary point found.
 Normal termination of Gaussian 09 at Tue Jan 28 03:09:13 2020.

 ----------------------------------------------------------------------
 #N Geom=AllCheck Guess=TCheck SCRF=Check GenChk RB3LYP/6-31G(2df,p) Fr
 eq
 ----------------------------------------------------------------------

 Structure from the checkpoint file:  "/scratch/puck/g09_0f2e5fed-70d1-4686-a4d1-450f93f62ef2/Gau-115007.chk"
 -----
 titel
 -----
 Charge =  0 Multiplicity = 1

                         Standard orientation:
 ---------------------------------------------------------------------
 Center     Atomic      Atomic             Coordinates (Angstroms)
 Number     Number       Type             X           Y           Z
 ---------------------------------------------------------------------
      1          6           0       -2.544462    0.023431   -0.035054
      2          6           0       -1.123845   -0.431241   -0.025682
      3          6           0       -0.429980   -1.175906   -0.893254
      4          6           0        1.002054   -1.207990   -0.371562
      5          6           0        1.642523    0.185172   -0.649295
      6          6           0        0.819895    1.078348    0.329163
      7          8           0        0.114405    2.150797   -0.263889
      8          6           0       -0.087275   -0.009666    1.017115
      9          8           0        0.802955   -1.126517    1.051768
     10          1           0       -2.602253    1.118475   -0.018963
     11          1           0       -3.082132   -0.339569   -0.915420
     12          1           0       -3.075582   -0.327945    0.858570
     13          1           0       -0.767569   -1.610197   -1.825513
     14          1           0        1.609484   -2.075511   -0.626606
     15          1           0        2.703376    0.176732   -0.389340
     16          1           0        1.544457    0.517266   -1.686124
     17          1           0        1.466038    1.535592    1.080991
     18          1           0       -0.360662    1.796961   -1.023744
     19          1           0       -0.447493    0.241063    2.014537
 ---------------------------------------------------------------------

 SCF Done:  E(RB3LYP) =  -423.188816031     A.U. after    1 cycles

 The electronic state is 1-A.
 Alpha  occ. eigenvalues --  -19.13727 -19.13534 -10.23575 -10.23211 -10.22834
 Alpha  occ. eigenvalues --  -10.19298 -10.19058 -10.18273 -10.18174  -1.05024
 Alpha  occ. eigenvalues --   -1.01704  -0.81010  -0.76076  -0.72989  -0.69736
 Alpha  occ. eigenvalues --   -0.59986  -0.57857  -0.54023  -0.52084  -0.49018
 Alpha  occ. eigenvalues --   -0.45245  -0.43780  -0.42094  -0.41918  -0.40770
 Alpha  occ. eigenvalues --   -0.38718  -0.38244  -0.37075  -0.34313  -0.33392
 Alpha  occ. eigenvalues --   -0.31348  -0.28804  -0.24411  -0.23770
 Alpha virt. eigenvalues --    0.01057   0.07971   0.09790   0.11119   0.12028
 Alpha virt. eigenvalues --    0.14052   0.15024   0.15355   0.16270   0.16726
 Alpha virt. eigenvalues --    0.17665   0.18626   0.19625   0.21975   0.22528

 Mulliken charges:
               1
     1  C   -0.513357
     2  C    0.331687
     3  C   -0.211523
     4  C    0.028170
     5  C   -0.262936
     6  C    0.137704
     7  O   -0.440229
     8  C   -0.057220
     9  O   -0.248791
    10  H    0.137865
    11  H    0.125982
    12  H    0.135074
    13  H    0.099475
    14  H    0.080138
    15  H    0.110154
    16  H    0.096841
    17  H    0.096647
    18  H    0.278749
    19  H    0.075569
 Sum of Mulliken charges =   0.00000

 Dipole moment (field-independent basis, Debye):
    X=             -0.8698    Y=             -0.4229    Z=             -1.5841  Tot=              1.8560
 Quadrupole moment (field-independent basis, Debye-Ang):
   XX=            -49.9290   YY=            -59.3877   ZZ=            -51.0083
   XY=             -0.4804   XZ=             -0.7892   YZ=              2.7813

  Exact polarizability:  84.637  -3.889  69.898  -2.840   7.397  69.813
 Approx polarizability: 116.355 -10.803 108.292  -6.510  13.476 113.632

                      1                      2                      3
                      A                      A                      A
 Frequencies --    143.8737               160.0734               191.4637
 Red. masses --      3.5042                 3.2638                 1.0400
 Frc consts  --      0.0427                 0.0493                 0.0225
 IR Inten    --      2.5885                 3.9339                 0.8298

                      4                      5                      6
                      A                      A                      A
 Frequencies --    297.1095               343.8738               400.2214
 Red. masses --      2.4761                 2.6587                 1.2876
 Frc consts  --      0.1288                 0.1852                 0.1215
 IR Inten    --      1.8341                 7.3641                87.0765

                      7                      8                      9
                      A                      A                      A
 Frequencies --    418.1135               491.9190               512.4654
 Red. masses --      2.2898                 2.9230                 4.8240
 Frc consts  --      0.2358                 0.4167                 0.7464
 IR Inten    --      0.6628                 4.0500                 2.4891

                     10                     11                     12
                      A                      A                      A
 Frequencies --    600.9800               614.4928               722.7998
 Red. masses --      5.1491                 4.3768                 3.8756
 Frc consts  --      1.0957                 0.9737                 1.1930
 IR Inten    --     19.4341                 2.0606                 4.8169

                     13                     14                     15
                      A                      A                      A
 Frequencies --    810.9515               826.5357               837.2757
 Red. masses --      2.1318                 2.0431                 3.3347
 Frc consts  --      0.8260                 0.8224                 1.3773
 IR Inten    --      8.8768                27.8805                 6.2967

                     16                     17                     18
                      A                      A                      A
 Frequencies --    855.6636               924.5160               935.0061
 Red. masses --      2.5280                 2.3804                 2.9099
 Frc consts  --      1.0905                 1.1987                 1.4988
 IR Inten    --      1.4341                10.1384                16.9313

                     19                     20                     21
                      A                      A                      A
 Frequencies --    947.5953               975.4644              1007.0836
 Red. masses --      3.2366                 1.9552                 1.8108
 Frc consts  --      1.7123                 1.0961                 1.0821
 IR Inten    --      1.9373                 7.2761                15.2616

                     22                     23                     24
                      A                      A                      A
 Frequencies --   1033.8366              1063.9730              1066.3673
 Red. masses --      3.0916                 1.7090                 2.6953
 Frc consts  --      1.9469                 1.1399                 1.8058
 IR Inten    --     10.0763                 5.3808                24.6620

                     25                     26                     27
                      A                      A                      A
 Frequencies --   1093.4491              1138.1443              1164.7505
 Red. masses --      2.1446                 1.3779                 1.4160
 Frc consts  --      1.5108                 1.0516                 1.1319
 IR Inten    --     53.9459                49.2959                22.6250

                     28                     29                     30
                      A                      A                      A
 Frequencies --   1198.8433              1242.0949              1255.8190
 Red. masses --      1.8806                 1.3689                 1.3479
 Frc consts  --      1.5924                 1.2443                 1.2525
 IR Inten    --      0.8195                 6.3811                 0.3494

                     31                     32                     33
                      A                      A                      A
 Frequencies --   1278.5858              1297.4852              1321.7737
 Red. masses --      1.5392                 1.3961                 1.5096
 Frc consts  --      1.4825                 1.3847                 1.5539
 IR Inten    --      3.0313                 1.4659                 9.0074

                     34                     35                     36
                      A                      A                      A
 Frequencies --   1333.3709              1347.5636              1411.5651
 Red. masses --      1.6357                 1.7704                 1.2752
 Frc consts  --      1.7133                 1.8942                 1.4971
 IR Inten    --      5.2671                 9.7375                 4.0398

                     37                     38                     39
                      A                      A                      A
 Frequencies --   1433.4226              1478.8018              1486.3627
 Red. masses --      1.2188                 1.0449                 1.0907
 Frc consts  --      1.4755                 1.3463                 1.4197
 IR Inten    --     50.0247                 5.4755                 2.9687

                     40                     41                     42
                      A                      A                      A
 Frequencies --   1492.7092              1694.5808              3020.9284
 Red. masses --      1.0618                 6.9849                 1.0372
 Frc consts  --      1.3940                11.8177                 5.5771
 IR Inten    --      6.1649                 7.0466                24.0635

                     43                     44                     45
                      A                      A                      A
 Frequencies --   3064.6292              3070.3926              3092.1301
 Red. masses --      1.0595                 1.0980                 1.0887
 Frc consts  --      5.8627                 6.0989                 6.1332
 IR Inten    --     23.0263                11.9876                15.1257

                     46                     47                     48
                      A                      A                      A
 Frequencies --   3110.4282              3115.5155              3124.9983
 Red. masses --      1.1005                 1.1047                 1.0882
 Frc consts  --      6.2729                 6.3175                 6.2610
 IR Inten    --     15.4449                22.6548                57.4430

                     49                     50                     51
                      A                      A                      A
 Frequencies --   3129.2203              3215.9152              3805.0263
 Red. masses --      1.0932                 1.0967                 1.0654
 Frc consts  --      6.3072                 6.6824                 9.0884
 IR Inten    --     20.1054                 6.8316                10.9659

 - Thermochemistry -
 -------------------
 Temperature   298.150 Kelvin.  Pressure   1.00000 Atm.
 Atom     1 has atomic number  6 and mass  12.00000

 Molecular mass:   126.06808 amu.
 Principal axes and moments of inertia in atomic units:
                           1         2         3
     Eigenvalues --   795.85671 938.629181282.30829
           X            0.99990  -0.00359  -0.01401
           Y            0.00411   0.99931   0.03700
           Z            0.01387  -0.03705   0.99922
 This molecule is an asymmetric top.
 Rotational symmetry number  1.
 Warning -- assumption of classical behavior for rotation
           may cause significant error
 Rotational temperatures (Kelvin)      0.10883     0.09228     0.06755
 Rotational constants (GHZ):           2.26767     1.92274     1.40742
 Zero-point vibrational energy     422282.7 (Joules/Mol)
                                  100.92800 (Kcal/Mol)
 Warning -- explicit consideration of  11 degrees of freedom as
           vibrations may cause significant error
 Vibrational temperatures:    207.00   230.31   275.47   427.47   494.76
          (Kelvin)            575.83   601.57   707.76   737.32   864.68
                              884.12  1039.95  1166.78  1189.20  1204.65
                             1231.11  1330.17  1345.26  1363.38  1403.47
                             1448.97  1487.46  1530.82  1534.26  1573.23
                             1637.53  1675.81  1724.87  1787.10  1806.84
                             1839.60  1866.79  1901.74  1918.42  1938.84
                             2030.92  2062.37  2127.66  2138.54  2147.67
                             2438.12  4346.44  4409.31  4417.60  4448.88
                             4475.21  4482.53  4496.17  4502.24  4626.98
                             5474.58

 Zero-point correction=                           0.160839 (Hartree/Particle)
 Thermal correction to Energy=                    0.168560
 Thermal correction to Enthalpy=                  0.169505
 Thermal correction to Gibbs Free Energy=         0.129017
 Sum of electronic and zero-point Energies=           -423.027977
 Sum of electronic and thermal Energies=              -423.020256
 Sum of electronic and thermal Enthalpies=            -423.019312
 Sum of electronic and thermal Free Energies=         -423.059799

                     E (Thermal)             CV                S
                      KCal/Mol        Cal/Mol-Kelvin    Cal/Mol-Kelvin
 Total                  105.773             31.077             85.213
 Electronic               0.000              0.000              0.000
 Translational            0.889              2.981             40.409
 Rotational               0.889              2.981             28.351
 Vibrational            103.996             25.115             16.454
 Vibration     1          0.616              1.909              2.752
 Vibration     2          0.622              1.891              2.549
 Vibration     3          0.634              1.852              2.214
 Vibration     4          0.691              1.679              1.433
 Vibration     5          0.723              1.588              1.194
 Vibration     6          0.766              1.470              0.962
 Vibration     7          0.781              1.431              0.898
 Vibration     8          0.848              1.268              0.679
 Vibration     9          0.868              1.222              0.628
 Vibration    10          0.959              1.030              0.448
 Vibration    11          0.974              1.001              0.425

 Normal termination of Gaussian 09 at Tue Jan 28 03:54:42 2020.
