 Gaussian 09, Revision D.01,
 Gaussian 09:  ES64L-G09RevD.01 24-Apr-2013

 -----------------------------
 # b3lyp 6-31G(2df,p) opt Freq
 -----------------------------

 -----
 titel
 -----
 Symbolic Z-matrix:
 Charge =  0 Multiplicity = 1

 SCF Done:  E(RB3LYP) =  -423.132661498     A.U. after   14 cycles
 Optimization completed.
    -- Stationary point found.
 Normal termination of Gaussian 09 at Tue Jan 28 02:48:35 2020.

 ----------------------------------------------------------------------
 #N Geom=AllCheck Guess=TCheck SCRF=Check GenChk RB3LYP/6-31G(2df,p) Fr
 eq
 ----------------------------------------------------------------------

 Structure from the checkpoint file:  "/scratch/puck/g09_abaeab6a-88d9-4d33-96de-1a71d3ac1bd8/Gau-6156.chk"
 -----
 titel
 -----
 Charge =  0 Multiplicity = 1

                         Standard orientation:
 ---------------------------------------------------------------------
 Center     Atomic      Atomic             Coordinates (Angstroms)
 Number     Number       Type             X           Y           Z
 ---------------------------------------------------------------------
      1          8           0        2.393300   -0.899570    0.160778
      2          6           0        1.157502   -0.750052   -0.489409
      3          6           0       -0.048602   -1.636434   -0.030874
      4          6           0       -0.916410   -0.372701   -0.024326
      5          6           0       -2.282741   -0.175085   -0.508316
      6          8           0       -1.965893   -0.115709    0.893235
      7          6           0        0.307895    0.500613   -0.183919
      8          6           0        0.704172    1.594928    0.771104
      9          6           0        0.436017    1.906881   -0.679929
     10          1           0        2.243733   -0.779350    1.105307
     11          1           0        1.371680   -0.862805   -1.555860
     12          1           0       -0.347944   -2.456778   -0.686524
     13          1           0        0.102287   -2.024691    0.981598
     14          1           0       -2.568753    0.773386   -0.961518
     15          1           0       -2.879618   -1.033763   -0.814378
     16          1           0       -0.033154    1.895513    1.507372
     17          1           0        1.735561    1.615327    1.108938
     18          1           0       -0.473794    2.445471   -0.926873
     19          1           0        1.283740    2.141023   -1.316145
 ---------------------------------------------------------------------

 SCF Done:  E(RB3LYP) =  -423.132661498     A.U. after    1 cycles

 The electronic state is 1-A.
 Alpha  occ. eigenvalues --  -19.15087 -19.14207 -10.24227 -10.23757 -10.23282
 Alpha  occ. eigenvalues --  -10.19511 -10.19098 -10.19053 -10.18552  -1.07080
 Alpha  occ. eigenvalues --   -1.02564  -0.87144  -0.79911  -0.66570  -0.63768
 Alpha  occ. eigenvalues --   -0.62286  -0.60394  -0.54320  -0.50760  -0.50434
 Alpha  occ. eigenvalues --   -0.47410  -0.46775  -0.44113  -0.40491  -0.39778
 Alpha  occ. eigenvalues --   -0.38464  -0.37250  -0.36382  -0.33723  -0.30938
 Alpha  occ. eigenvalues --   -0.30478  -0.27457  -0.26222  -0.25747
 Alpha virt. eigenvalues --    0.06144   0.07889   0.09351   0.10736   0.10976
 Alpha virt. eigenvalues --    0.12686   0.13322   0.15162   0.15644   0.16580
 Alpha virt. eigenvalues --    0.18699   0.19380   0.19938   0.22009   0.22788

 Mulliken charges:
               1
     1  O   -0.433004
     2  C    0.067198
     3  C   -0.380719
     4  C    0.403462
     5  C   -0.270434
     6  O   -0.273922
     7  C    0.237906
     8  C   -0.319016
     9  C   -0.342961
    10  H    0.279942
    11  H    0.095492
    12  H    0.111629
    13  H    0.111650
    14  H    0.114034
    15  H    0.115368
    16  H    0.131086
    17  H    0.116446
    18  H    0.115136
    19  H    0.120705
 Sum of Mulliken charges =   0.00000

 Dipole moment (field-independent basis, Debye):
    X=             -0.3924    Y=              0.1633    Z=             -0.7666  Tot=              0.8765
 Quadrupole moment (field-independent basis, Debye-Ang):
   XX=            -57.7328   YY=            -52.4426   ZZ=            -51.3362
   XY=              1.7494   XZ=              5.9414   YZ=             -0.5005

  Exact polarizability:  81.897   1.811  78.424   4.928  -0.012  66.562
 Approx polarizability: 112.579   0.319 106.713   4.927   0.564 107.103

                      1                      2                      3
                      A                      A                      A
 Frequencies --     62.8067               183.5477               196.7109
 Red. masses --      3.6322                 3.3770                 3.2645
 Frc consts  --      0.0084                 0.0670                 0.0744
 IR Inten    --      2.5885                 1.6740                 1.0426

                      4                      5                      6
                      A                      A                      A
 Frequencies --    213.9946               259.5228               337.4201
 Red. masses --      2.4519                 2.8931                 2.0259
 Frc consts  --      0.0662                 0.1148                 0.1359
 IR Inten    --      1.0542                 2.3951                 7.9575

                      7                      8                      9
                      A                      A                      A
 Frequencies --    341.0904               422.5180               491.8306
 Red. masses --      1.3691                 3.1858                 2.7292
 Frc consts  --      0.0938                 0.3351                 0.3890
 IR Inten    --    104.9013                 3.4671                 5.5939

                     10                     11                     12
                      A                      A                      A
 Frequencies --    515.1185               564.0097               623.4355
 Red. masses --      4.5982                 2.7484                 3.2408
 Frc consts  --      0.7189                 0.5151                 0.7421
 IR Inten    --      4.1745                 2.2956                 0.7754

                     13                     14                     15
                      A                      A                      A
 Frequencies --    763.1064               798.6658               834.0700
 Red. masses --      1.8386                 1.1814                 2.7500
 Frc consts  --      0.6308                 0.4440                 1.1272
 IR Inten    --      5.8304                 1.1046                31.5776

                     16                     17                     18
                      A                      A                      A
 Frequencies --    866.9160               883.5435               913.1084
 Red. masses --      1.7219                 2.5439                 4.3061
 Frc consts  --      0.7624                 1.1700                 2.1153
 IR Inten    --      0.2750                11.8284                10.9015

                     19                     20                     21
                      A                      A                      A
 Frequencies --    938.7360               975.1162               996.6503
 Red. masses --      1.2536                 3.4726                 3.3534
 Frc consts  --      0.6509                 1.9454                 1.9626
 IR Inten    --      0.5420                15.5556                25.8261

                     22                     23                     24
                      A                      A                      A
 Frequencies --   1035.2833              1052.5187              1079.7276
 Red. masses --      2.3532                 1.3394                 1.3846
 Frc consts  --      1.4861                 0.8742                 0.9510
 IR Inten    --     11.8852                 2.8083                 0.0590

                     25                     26                     27
                      A                      A                      A
 Frequencies --   1110.3331              1118.5676              1128.5892
 Red. masses --      2.4343                 1.3855                 1.5052
 Frc consts  --      1.7682                 1.0214                 1.1295
 IR Inten    --    103.5373                 4.0015                 9.1565

                     28                     29                     30
                      A                      A                      A
 Frequencies --   1145.8450              1168.7906              1195.7598
 Red. masses --      2.0106                 1.5627                 1.3308
 Frc consts  --      1.5554                 1.2577                 1.1211
 IR Inten    --     29.9191                 4.5383                 0.0012

                     31                     32                     33
                      A                      A                      A
 Frequencies --   1197.8519              1252.3113              1254.3793
 Red. masses --      1.5306                 1.3916                 1.9398
 Frc consts  --      1.2939                 1.2859                 1.7983
 IR Inten    --      2.6860                 4.6748                12.8961

                     34                     35                     36
                      A                      A                      A
 Frequencies --   1311.5734              1366.7689              1429.3006
 Red. masses --      1.6002                 2.8815                 1.4251
 Frc consts  --      1.6219                 3.1715                 1.7153
 IR Inten    --      1.4632                19.2296                72.7988

                     37                     38                     39
                      A                      A                      A
 Frequencies --   1445.6118              1455.5106              1474.6661
 Red. masses --      1.4768                 1.1016                 1.2108
 Frc consts  --      1.8183                 1.3750                 1.5513
 IR Inten    --     13.6666                 3.8356                 0.1213

                     40                     41                     42
                      A                      A                      A
 Frequencies --   1496.5569              1538.5489              3055.5099
 Red. masses --      1.5296                 1.7425                 1.0604
 Frc consts  --      2.0185                 2.4302                 5.8332
 IR Inten    --      0.8322                 7.0743                17.1686

                     43                     44                     45
                      A                      A                      A
 Frequencies --   3073.5697              3077.8489              3117.9579
 Red. masses --      1.0863                 1.0502                 1.1054
 Frc consts  --      6.0462                 5.8618                 6.3316
 IR Inten    --     21.9392                26.9454                22.9181

                     46                     47                     48
                      A                      A                      A
 Frequencies --   3121.8511              3128.7574              3164.1397
 Red. masses --      1.0530                 1.0542                 1.1192
 Frc consts  --      6.0466                 6.0805                 6.6021
 IR Inten    --     15.2085                10.7592                22.3116

                     49                     50                     51
                      A                      A                      A
 Frequencies --   3203.3317              3223.2383              3799.8652
 Red. masses --      1.1175                 1.1162                 1.0656
 Frc consts  --      6.7559                 6.8323                 9.0654
 IR Inten    --      3.0957                 7.5961                13.0323

 - Thermochemistry -
 -------------------
 Temperature   298.150 Kelvin.  Pressure   1.00000 Atm.
 Atom     1 has atomic number  8 and mass  15.99491

 Molecular mass:   126.06808 amu.
 Principal axes and moments of inertia in atomic units:
                           1         2         3
     Eigenvalues --   736.493731156.036371571.56834
           X            0.99933   0.02566   0.02594
           Y           -0.02565   0.99967  -0.00086
           Z           -0.02595   0.00019   0.99966
 This molecule is an asymmetric top.
 Rotational symmetry number  1.
 Warning -- assumption of classical behavior for rotation
           may cause significant error
 Rotational temperatures (Kelvin)      0.11760     0.07492     0.05511
 Rotational constants (GHZ):           2.45045     1.56115     1.14837
 Zero-point vibrational energy     415143.0 (Joules/Mol)
                                   99.22155 (Kcal/Mol)
 Warning -- explicit consideration of  11 degrees of freedom as
           vibrations may cause significant error
 Vibrational temperatures:     90.36   264.08   283.02   307.89   373.39
          (Kelvin)            485.47   490.75   607.91   707.63   741.14
                              811.48   896.98  1097.94  1149.10  1200.04
                             1247.30  1271.22  1313.76  1350.63  1402.97
                             1433.96  1489.54  1514.34  1553.49  1597.52
                             1609.37  1623.79  1648.61  1681.63  1720.43
                             1723.44  1801.79  1804.77  1887.06  1966.47
                             2056.44  2079.91  2094.15  2121.71  2153.21
                             2213.63  4396.19  4422.18  4428.33  4486.04
                             4491.64  4501.58  4552.49  4608.87  4637.52
                             5467.15

 Zero-point correction=                           0.158120 (Hartree/Particle)
 Thermal correction to Energy=                    0.166576
 Thermal correction to Enthalpy=                  0.167520
 Thermal correction to Gibbs Free Energy=         0.125095
 Sum of electronic and zero-point Energies=           -422.974542
 Sum of electronic and thermal Energies=              -422.966085
 Sum of electronic and thermal Enthalpies=            -422.965141
 Sum of electronic and thermal Free Energies=         -423.007566

                     E (Thermal)             CV                S
                      KCal/Mol        Cal/Mol-Kelvin    Cal/Mol-Kelvin
 Total                  104.528             32.889             89.291
 Electronic               0.000              0.000              0.000
 Translational            0.889              2.981             40.409
 Rotational               0.889              2.981             28.683
 Vibrational            102.751             26.927             20.200
 Vibration     1          0.597              1.972              4.367
 Vibration     2          0.631              1.862              2.292
 Vibration     3          0.636              1.844              2.164
 Vibration     4          0.644              1.820              2.009
 Vibration     5          0.668              1.747              1.665
 Vibration     6          0.718              1.601              1.224
 Vibration     7          0.721              1.593              1.207
 Vibration     8          0.785              1.421              0.883
 Vibration     9          0.848              1.268              0.679
 Vibration    10          0.870              1.217              0.621
 Vibration    11          0.920              1.109              0.516

 Normal termination of Gaussian 09 at Tue Jan 28 03:32:20 2020.
