 Gaussian 09, Revision D.01,
 Gaussian 09:  ES64L-G09RevD.01 24-Apr-2013

 -----------------------------
 # b3lyp 6-31G(2df,p) opt Freq
 -----------------------------

 -----
 titel
 -----
 Symbolic Z-matrix:
 Charge =  0 Multiplicity = 1

 SCF Done:  E(RB3LYP) =  -423.236375607     A.U. after   14 cycles
 Optimization completed.
    -- Stationary point found.
 Normal termination of Gaussian 09 at Mon Jan 27 22:02:13 2020.

 ----------------------------------------------------------------------
 #N Geom=AllCheck Guess=TCheck SCRF=Check GenChk RB3LYP/6-31G(2df,p) Fr
 eq
 ----------------------------------------------------------------------

 Structure from the checkpoint file:  "/scratch/puck/g09_d0cb1908-b74c-4c46-91b7-a92fb616601c/Gau-62656.chk"
 -----
 titel
 -----
 Charge =  0 Multiplicity = 1

                         Standard orientation:
 ---------------------------------------------------------------------
 Center     Atomic      Atomic             Coordinates (Angstroms)
 Number     Number       Type             X           Y           Z
 ---------------------------------------------------------------------
      1          6           0        3.320676   -0.600313    0.008365
      2          6           0        1.891057   -0.166679   -0.052033
      3          6           0        0.823152   -0.932947   -0.283899
      4          6           0       -0.449666   -0.142093   -0.334318
      5          6           0       -0.045547    1.252703    0.195012
      6          6           0        1.499154    1.287909    0.109141
      7          8           0       -1.449123   -0.785975    0.510667
      8          6           0       -2.721049   -0.437774    0.292257
      9          8           0       -3.115920    0.367857   -0.507474
     10          1           0        3.425841   -1.678334   -0.138196
     11          1           0        3.920378   -0.090995   -0.756688
     12          1           0        3.767088   -0.339105    0.976108
     13          1           0        0.840379   -2.001278   -0.467536
     14          1           0       -0.882072   -0.093339   -1.338840
     15          1           0       -0.533335    2.060833   -0.351909
     16          1           0       -0.365611    1.318649    1.238852
     17          1           0        1.844157    1.871493   -0.755431
     18          1           0        1.963974    1.748847    0.989111
     19          1           0       -3.367119   -1.016663    0.971831
 ---------------------------------------------------------------------

 SCF Done:  E(RB3LYP) =  -423.236375607     A.U. after    1 cycles

 The electronic state is 1-A.
 Alpha  occ. eigenvalues --  -19.18149 -19.12804 -10.30263 -10.24225 -10.19640
 Alpha  occ. eigenvalues --  -10.18994 -10.18816 -10.18548 -10.17790  -1.09778
 Alpha  occ. eigenvalues --   -1.01458  -0.85210  -0.75693  -0.72075  -0.67694
 Alpha  occ. eigenvalues --   -0.62462  -0.56062  -0.53378  -0.51847  -0.48069
 Alpha  occ. eigenvalues --   -0.46545  -0.44827  -0.44161  -0.42447  -0.41191
 Alpha  occ. eigenvalues --   -0.37719  -0.37642  -0.36173  -0.35355  -0.33963
 Alpha  occ. eigenvalues --   -0.33685  -0.29714  -0.27855  -0.24387
 Alpha virt. eigenvalues --    0.01354   0.01631   0.08722   0.11134   0.11469
 Alpha virt. eigenvalues --    0.13260   0.14043   0.15639   0.16220   0.17072
 Alpha virt. eigenvalues --    0.17515   0.18371   0.19897   0.21049   0.22021

 Mulliken charges:
               1
     1  C   -0.488085
     2  C    0.327349
     3  C   -0.204336
     4  C    0.115314
     5  C   -0.240511
     6  C   -0.305826
     7  O   -0.224787
     8  C    0.182851
     9  O   -0.310636
    10  H    0.126956
    11  H    0.129249
    12  H    0.129393
    13  H    0.095300
    14  H    0.109012
    15  H    0.119540
    16  H    0.116049
    17  H    0.111247
    18  H    0.105634
    19  H    0.106286
 Sum of Mulliken charges =   0.00000

 Dipole moment (field-independent basis, Debye):
    X=              2.4428    Y=             -0.4532    Z=              0.6334  Tot=              2.5639
 Quadrupole moment (field-independent basis, Debye-Ang):
   XX=            -55.5626   YY=            -51.9059   ZZ=            -53.1796
   XY=              3.8225   XZ=             -3.8129   YZ=              1.1652

  Exact polarizability: 107.324   3.926  73.822   1.284  -0.901  58.531
 Approx polarizability: 137.550   8.320 113.181   7.593  -4.768  94.602

                      1                      2                      3
                      A                      A                      A
 Frequencies --     42.3997                74.9007               138.7870
 Red. masses --      6.7281                 2.6773                 2.4749
 Frc consts  --      0.0071                 0.0088                 0.0281
 IR Inten    --      1.4596                 0.8130                 0.6386

                      4                      5                      6
                      A                      A                      A
 Frequencies --    178.0488               226.0829               244.4751
 Red. masses --      1.1243                 2.9204                 3.4748
 Frc consts  --      0.0210                 0.0879                 0.1224
 IR Inten    --      0.9031                 5.7646                 9.5219

                      7                      8                      9
                      A                      A                      A
 Frequencies --    314.4319               392.8437               447.8458
 Red. masses --      2.5309                 3.0943                 2.9557
 Frc consts  --      0.1474                 0.2814                 0.3493
 IR Inten    --      2.8847                 0.4944                10.4324

                     10                     11                     12
                      A                      A                      A
 Frequencies --    483.5335               589.7026               627.6204
 Red. masses --      2.7214                 3.7560                 2.6013
 Frc consts  --      0.3749                 0.7696                 0.6037
 IR Inten    --      3.7076                 0.9200                 1.6756

                     13                     14                     15
                      A                      A                      A
 Frequencies --    797.7845               838.0269               853.6167
 Red. masses --      3.2022                 3.1280                 1.2701
 Frc consts  --      1.2008                 1.2943                 0.5453
 IR Inten    --      0.8225                 0.6477                 7.2478

                     16                     17                     18
                      A                      A                      A
 Frequencies --    889.4782               891.6417               960.6073
 Red. masses --      2.9201                 2.4463                 3.2022
 Frc consts  --      1.3612                 1.1459                 1.7410
 IR Inten    --     11.4557                21.1069                30.5274

                     19                     20                     21
                      A                      A                      A
 Frequencies --    977.3105              1018.2670              1030.2476
 Red. masses --      2.3825                 1.5139                 1.4999
 Frc consts  --      1.3407                 0.9248                 0.9380
 IR Inten    --      4.5293                21.7642                 1.7272

                     22                     23                     24
                      A                      A                      A
 Frequencies --   1045.1342              1076.0189              1103.1823
 Red. masses --      1.6630                 1.6285                 2.0546
 Frc consts  --      1.0703                 1.1109                 1.4733
 IR Inten    --      0.7178                 6.8144                 3.7677

                     25                     26                     27
                      A                      A                      A
 Frequencies --   1174.3289              1188.8733              1207.7875
 Red. masses --      1.8138                 1.3903                 6.9692
 Frc consts  --      1.4737                 1.1578                 5.9899
 IR Inten    --     21.6048                 0.3328               434.4584

                     28                     29                     30
                      A                      A                      A
 Frequencies --   1249.3511              1282.1851              1295.4226
 Red. masses --      1.4763                 1.3705                 1.3239
 Frc consts  --      1.3577                 1.3275                 1.3090
 IR Inten    --      4.4837                 0.8663                 2.5352

                     31                     32                     33
                      A                      A                      A
 Frequencies --   1327.4467              1356.1849              1386.2866
 Red. masses --      1.8386                 1.7583                 1.3743
 Frc consts  --      1.9088                 1.9054                 1.5561
 IR Inten    --      2.2804                 1.2480                18.7225

                     34                     35                     36
                      A                      A                      A
 Frequencies --   1408.1221              1414.7171              1479.1393
 Red. masses --      1.1449                 1.2945                 1.0451
 Frc consts  --      1.3375                 1.5265                 1.3472
 IR Inten    --      2.7363                 0.9823                 7.2333

                     37                     38                     39
                      A                      A                      A
 Frequencies --   1482.3577              1487.1684              1499.3029
 Red. masses --      1.0767                 1.0643                 1.0972
 Frc consts  --      1.3939                 1.3868                 1.4531
 IR Inten    --      0.6536                 6.3186                 3.1828

                     40                     41                     42
                      A                      A                      A
 Frequencies --   1725.0062              1813.8731              3014.1781
 Red. masses --      7.0361                 9.5816                 1.0601
 Frc consts  --     12.3357                18.5738                 5.6748
 IR Inten    --     14.9399               289.5522                26.6082

                     43                     44                     45
                      A                      A                      A
 Frequencies --   3018.1566              3020.7166              3046.1691
 Red. masses --      1.0880                 1.0436                 1.0959
 Frc consts  --      5.8392                 5.6103                 5.9912
 IR Inten    --     91.5344                30.6159                21.4151

                     46                     47                     48
                      A                      A                      A
 Frequencies --   3056.4003              3066.4918              3071.0340
 Red. masses --      1.0841                 1.0981                 1.0647
 Frc consts  --      5.9669                 6.0838                 5.9163
 IR Inten    --      8.3725                16.6189                23.6958

                     49                     50                     51
                      A                      A                      A
 Frequencies --   3115.0211              3126.3493              3198.0742
 Red. masses --      1.0993                 1.1022                 1.0942
 Frc consts  --      6.2848                 6.3473                 6.5939
 IR Inten    --     17.9816                17.4698                 9.4820

 - Thermochemistry -
 -------------------
 Temperature   298.150 Kelvin.  Pressure   1.00000 Atm.
 Atom     1 has atomic number  6 and mass  12.00000

 Molecular mass:   126.06808 amu.
 Principal axes and moments of inertia in atomic units:
                           1         2         3
     Eigenvalues --   389.647082042.371462289.22329
           X            0.99999  -0.00015  -0.00360
           Y            0.00022   0.99983   0.01822
           Z            0.00360  -0.01822   0.99983
 This molecule is an asymmetric top.
 Rotational symmetry number  1.
 Rotational temperatures (Kelvin)      0.22229     0.04241     0.03784
 Rotational constants (GHZ):           4.63173     0.88365     0.78836
 Zero-point vibrational energy     417210.4 (Joules/Mol)
                                   99.71568 (Kcal/Mol)
 Warning -- explicit consideration of  11 degrees of freedom as
           vibrations may cause significant error
 Vibrational temperatures:     61.00   107.77   199.68   256.17   325.28
          (Kelvin)            351.74   452.40   565.21   644.35   695.70
                              848.45   903.00  1147.83  1205.73  1228.16
                             1279.76  1282.87  1382.10  1406.13  1465.06
                             1482.29  1503.71  1548.15  1587.23  1689.60
                             1710.52  1737.73  1797.54  1844.78  1863.82
                             1909.90  1951.25  1994.55  2025.97  2035.46
                             2128.15  2132.78  2139.70  2157.16  2481.90
                             2609.76  4336.72  4342.45  4346.13  4382.75
                             4397.47  4411.99  4418.53  4481.81  4498.11
                             4601.31

 Zero-point correction=                           0.158907 (Hartree/Particle)
 Thermal correction to Energy=                    0.167892
 Thermal correction to Enthalpy=                  0.168836
 Thermal correction to Gibbs Free Energy=         0.124208
 Sum of electronic and zero-point Energies=           -423.077469
 Sum of electronic and thermal Energies=              -423.068484
 Sum of electronic and thermal Enthalpies=            -423.067540
 Sum of electronic and thermal Free Energies=         -423.112168

                     E (Thermal)             CV                S
                      KCal/Mol        Cal/Mol-Kelvin    Cal/Mol-Kelvin
 Total                  105.354             32.411             93.927
 Electronic               0.000              0.000              0.000
 Translational            0.889              2.981             40.409
 Rotational               0.889              2.981             28.990
 Vibrational            103.576             26.450             24.529
 Vibration     1          0.595              1.980              5.144
 Vibration     2          0.599              1.966              4.020
 Vibration     3          0.614              1.915              2.821
 Vibration     4          0.628              1.869              2.349
 Vibration     5          0.650              1.801              1.910
 Vibration     6          0.660              1.772              1.770
 Vibration     7          0.702              1.646              1.339
 Vibration     8          0.760              1.485              0.989
 Vibration     9          0.807              1.366              0.802
 Vibration    10          0.840              1.287              0.701
 Vibration    11          0.947              1.054              0.468

 Normal termination of Gaussian 09 at Mon Jan 27 22:41:00 2020.
