 Gaussian 09, Revision D.01,
 Gaussian 09:  ES64L-G09RevD.01 24-Apr-2013

 -----------------------------
 # b3lyp 6-31G(2df,p) opt Freq
 -----------------------------

 -----
 titel
 -----
 Symbolic Z-matrix:
 Charge =  0 Multiplicity = 1

 SCF Done:  E(RB3LYP) =  -423.202968474     A.U. after   14 cycles
 Optimization completed.
    -- Stationary point found.
 Normal termination of Gaussian 09 at Tue Jan 28 00:05:52 2020.

 ----------------------------------------------------------------------
 #N Geom=AllCheck Guess=TCheck SCRF=Check GenChk RB3LYP/6-31G(2df,p) Fr
 eq
 ----------------------------------------------------------------------

 Structure from the checkpoint file:  "/scratch/puck/g09_48d6b485-cb40-4823-9db1-72de344afbe0/Gau-2899.chk"
 -----
 titel
 -----
 Charge =  0 Multiplicity = 1

                         Standard orientation:
 ---------------------------------------------------------------------
 Center     Atomic      Atomic             Coordinates (Angstroms)
 Number     Number       Type             X           Y           Z
 ---------------------------------------------------------------------
      1          6           0       -1.871775   -1.464268    0.481881
      2          6           0       -0.819092   -0.730065   -0.367893
      3          6           0        0.611781   -0.982327    0.085257
      4          8           0        1.572499   -0.713893   -0.961941
      5          6           0        2.222793    0.304832   -0.172852
      6          6           0        1.121007    0.250163    0.902927
      7          6           0        0.033056    1.321059    0.794206
      8          6           0       -0.999008    0.790648   -0.216324
      9          8           0       -1.836981    1.453271   -0.768238
     10          1           0       -1.764503   -1.231499    1.547458
     11          1           0       -2.879062   -1.173158    0.173507
     12          1           0       -1.771504   -2.547572    0.365799
     13          1           0       -0.938761   -1.001999   -1.420563
     14          1           0        0.766579   -1.973552    0.527389
     15          1           0        3.213074   -0.019192    0.172664
     16          1           0        2.327821    1.248050   -0.723055
     17          1           0        1.462125    0.074037    1.922680
     18          1           0       -0.488331    1.464931    1.748705
     19          1           0        0.395845    2.304676    0.483639
 ---------------------------------------------------------------------

 SCF Done:  E(RB3LYP) =  -423.202968474     A.U. after    1 cycles

 The electronic state is 1-A.
 Alpha  occ. eigenvalues --  -19.13792 -19.13166 -10.26850 -10.23951 -10.23602
 Alpha  occ. eigenvalues --  -10.20331 -10.19677 -10.19476 -10.19180  -1.04682
 Alpha  occ. eigenvalues --   -1.04047  -0.82929  -0.77427  -0.69937  -0.68487
 Alpha  occ. eigenvalues --   -0.63769  -0.55442  -0.53792  -0.50906  -0.48524
 Alpha  occ. eigenvalues --   -0.45798  -0.44322  -0.43379  -0.42206  -0.41483
 Alpha  occ. eigenvalues --   -0.40437  -0.38676  -0.37315  -0.36023  -0.34418
 Alpha  occ. eigenvalues --   -0.31705  -0.30563  -0.26071  -0.23715
 Alpha virt. eigenvalues --   -0.01941   0.07206   0.08021   0.10967   0.11360
 Alpha virt. eigenvalues --    0.12874   0.13816   0.14824   0.15432   0.16205
 Alpha virt. eigenvalues --    0.17389   0.18239   0.19303   0.20406   0.22142

 Mulliken charges:
               1
     1  C   -0.416781
     2  C   -0.104395
     3  C    0.116025
     4  O   -0.294951
     5  C   -0.079340
     6  C   -0.086494
     7  C   -0.340294
     8  C    0.388199
     9  O   -0.312903
    10  H    0.118414
    11  H    0.142051
    12  H    0.126530
    13  H    0.114969
    14  H    0.071933
    15  H    0.101639
    16  H    0.107044
    17  H    0.082600
    18  H    0.133025
    19  H    0.132730
 Sum of Mulliken charges =   0.00000

 Dipole moment (field-independent basis, Debye):
    X=              1.2692    Y=             -0.8866    Z=              2.7294  Tot=              3.1379
 Quadrupole moment (field-independent basis, Debye-Ang):
   XX=            -55.8648   YY=            -54.0384   ZZ=            -54.2183
   XY=              6.6217   XZ=             -0.0202   YZ=              0.8745

  Exact polarizability:  82.430   2.819  75.751   2.664  -1.274  64.656
 Approx polarizability: 111.079  -1.601 109.854   6.027  -3.285 102.657

                      1                      2                      3
                      A                      A                      A
 Frequencies --     56.7911                83.8874               193.7606
 Red. masses --      4.3432                 2.6894                 3.9630
 Frc consts  --      0.0083                 0.0112                 0.0877
 IR Inten    --      4.9816                 1.9090                 1.1190

                      4                      5                      6
                      A                      A                      A
 Frequencies --    216.0906               240.2343               350.2218
 Red. masses --      1.3529                 1.7729                 1.9035
 Frc consts  --      0.0372                 0.0603                 0.1376
 IR Inten    --      0.2556                 0.6335                 1.1245

                      7                      8                      9
                      A                      A                      A
 Frequencies --    416.8016               455.1908               541.9394
 Red. masses --      4.8155                 4.0583                 2.8727
 Frc consts  --      0.4929                 0.4954                 0.4971
 IR Inten    --      6.5351                 7.6581                 0.8453

                     10                     11                     12
                      A                      A                      A
 Frequencies --    636.2242               649.0498               735.5478
 Red. masses --      3.8621                 4.3994                 3.4674
 Frc consts  --      0.9211                 1.0919                 1.1053
 IR Inten    --      3.6237                 2.5165                 2.8644

                     13                     14                     15
                      A                      A                      A
 Frequencies --    819.4042               842.8180               880.2192
 Red. masses --      2.6378                 2.1458                 1.5996
 Frc consts  --      1.0435                 0.8981                 0.7302
 IR Inten    --      4.0670                 1.3874                 2.2724

                     16                     17                     18
                      A                      A                      A
 Frequencies --    890.8166               925.6768               979.0937
 Red. masses --      3.6825                 1.8824                 2.0341
 Frc consts  --      1.7217                 0.9503                 1.1489
 IR Inten    --     10.9958                16.0436                 4.4874

                     19                     20                     21
                      A                      A                      A
 Frequencies --   1021.6777              1025.9985              1031.2890
 Red. masses --      1.8807                 5.3308                 2.7538
 Frc consts  --      1.1566                 3.3062                 1.7256
 IR Inten    --     14.2513                63.7543                38.8703

                     22                     23                     24
                      A                      A                      A
 Frequencies --   1079.2208              1097.5032              1111.6581
 Red. masses --      1.7653                 1.5163                 2.4704
 Frc consts  --      1.2114                 1.0761                 1.7987
 IR Inten    --     14.5973                 2.0269                 4.3795

                     25                     26                     27
                      A                      A                      A
 Frequencies --   1159.8844              1167.7583              1173.5202
 Red. masses --      1.4838                 1.9755                 1.3639
 Frc consts  --      1.1762                 1.5872                 1.1067
 IR Inten    --     22.2853                26.2820                 5.4725

                     28                     29                     30
                      A                      A                      A
 Frequencies --   1205.9268              1263.9422              1275.6816
 Red. masses --      1.7096                 1.4956                 1.6486
 Frc consts  --      1.4649                 1.4077                 1.5807
 IR Inten    --      5.0091                 1.4149                 2.5642

                     31                     32                     33
                      A                      A                      A
 Frequencies --   1283.0771              1306.7897              1344.3683
 Red. masses --      1.3302                 1.5405                 1.4324
 Frc consts  --      1.2902                 1.5500                 1.5253
 IR Inten    --      2.5436                 0.0521                 2.4656

                     34                     35                     36
                      A                      A                      A
 Frequencies --   1353.2883              1368.2393              1405.2493
 Red. masses --      1.5631                 1.5246                 1.2211
 Frc consts  --      1.6866                 1.6816                 1.4207
 IR Inten    --     12.1607                 3.4948                 4.4894

                     37                     38                     39
                      A                      A                      A
 Frequencies --   1447.8726              1497.0980              1500.1576
 Red. masses --      1.0893                 1.0484                 1.0487
 Frc consts  --      1.3454                 1.3844                 1.3906
 IR Inten    --     10.7505                 5.9706                 5.7894

                     40                     41                     42
                      A                      A                      A
 Frequencies --   1525.8541              1846.7575              3008.6717
 Red. masses --      1.1023                12.5532                 1.0563
 Frc consts  --      1.5121                25.2245                 5.6337
 IR Inten    --      0.3101               199.9781                85.8974

                     43                     44                     45
                      A                      A                      A
 Frequencies --   3031.4506              3036.0939              3040.6485
 Red. masses --      1.0624                 1.0600                 1.0655
 Frc consts  --      5.7520                 5.7568                 5.8039
 IR Inten    --     12.7506                51.5951                 9.2913

                     46                     47                     48
                      A                      A                      A
 Frequencies --   3053.9448              3076.8602              3097.7475
 Red. masses --      1.1097                 1.0851                 1.0960
 Frc consts  --      6.0980                 6.0526                 6.1964
 IR Inten    --     34.2185                 2.1824                 8.6669

                     49                     50                     51
                      A                      A                      A
 Frequencies --   3102.6720              3111.8333              3123.7490
 Red. masses --      1.0991                 1.0893                 1.1019
 Frc consts  --      6.2337                 6.2146                 6.3351
 IR Inten    --     20.7836                31.6097                14.1188

 - Thermochemistry -
 -------------------
 Temperature   298.150 Kelvin.  Pressure   1.00000 Atm.
 Atom     1 has atomic number  6 and mass  12.00000

 Molecular mass:   126.06808 amu.
 Principal axes and moments of inertia in atomic units:
                           1         2         3
     Eigenvalues --   705.253871176.824131458.41415
           X            0.99544   0.09521  -0.00518
           Y           -0.09521   0.99546   0.00098
           Z            0.00525  -0.00049   0.99999
 This molecule is an asymmetric top.
 Rotational symmetry number  1.
 Warning -- assumption of classical behavior for rotation
           may cause significant error
 Rotational temperatures (Kelvin)      0.12281     0.07360     0.05939
 Rotational constants (GHZ):           2.55900     1.53357     1.23747
 Zero-point vibrational energy     419232.8 (Joules/Mol)
                                  100.19905 (Kcal/Mol)
 Warning -- explicit consideration of   9 degrees of freedom as
           vibrations may cause significant error
 Vibrational temperatures:     81.71   120.70   278.78   310.91   345.64
          (Kelvin)            503.89   599.68   654.92   779.73   915.38
                              933.84  1058.29  1178.94  1212.63  1266.44
                             1281.68  1331.84  1408.70  1469.96  1476.18
                             1483.79  1552.76  1579.06  1599.43  1668.81
                             1680.14  1688.43  1735.06  1818.53  1835.42
                             1846.06  1880.18  1934.24  1947.08  1968.59
                             2021.84  2083.16  2153.99  2158.39  2195.36
                             2657.07  4328.80  4361.58  4368.26  4374.81
                             4393.94  4426.91  4456.96  4464.05  4477.23
                             4494.37

 Zero-point correction=                           0.159677 (Hartree/Particle)
 Thermal correction to Energy=                    0.167884
 Thermal correction to Enthalpy=                  0.168828
 Thermal correction to Gibbs Free Energy=         0.126281
 Sum of electronic and zero-point Energies=           -423.043291
 Sum of electronic and thermal Energies=              -423.035085
 Sum of electronic and thermal Enthalpies=            -423.034141
 Sum of electronic and thermal Free Energies=         -423.076688

                     E (Thermal)             CV                S
                      KCal/Mol        Cal/Mol-Kelvin    Cal/Mol-Kelvin
 Total                  105.349             30.829             89.548
 Electronic               0.000              0.000              0.000
 Translational            0.889              2.981             40.409
 Rotational               0.889              2.981             28.583
 Vibrational            103.571             24.867             20.556
 Vibration     1          0.596              1.975              4.566
 Vibration     2          0.601              1.960              3.798
 Vibration     3          0.635              1.849              2.192
 Vibration     4          0.645              1.817              1.992
 Vibration     5          0.657              1.779              1.801
 Vibration     6          0.727              1.575              1.165
 Vibration     7          0.780              1.434              0.903
 Vibration     8          0.814              1.349              0.780
 Vibration     9          0.897              1.157              0.561

 Optimization completed.
    -- Stationary point found.
 Normal termination of Gaussian 09 at Tue Jan 28 00:53:55 2020.
