 Gaussian 09, Revision D.01,
 Gaussian 09:  ES64L-G09RevD.01 24-Apr-2013

 -----------------------------
 # b3lyp 6-31G(2df,p) opt Freq
 -----------------------------

 -----
 titel
 -----
 Symbolic Z-matrix:
 Charge =  0 Multiplicity = 1

 SCF Done:  E(RB3LYP) =  -423.094050588     A.U. after   13 cycles
 Optimization completed.
    -- Stationary point found.
 Normal termination of Gaussian 09 at Tue Jan 28 13:53:50 2020.

 ----------------------------------------------------------------------
 #N Geom=AllCheck Guess=TCheck SCRF=Check GenChk RB3LYP/6-31G(2df,p) Fr
 eq
 ----------------------------------------------------------------------

 Structure from the checkpoint file:  "/scratch/puck/g09_ac323493-58d3-423a-984b-c6c587fa3d83/Gau-9430.chk"
 -----
 titel
 -----
 Charge =  0 Multiplicity = 1

                         Standard orientation:
 ---------------------------------------------------------------------
 Center     Atomic      Atomic             Coordinates (Angstroms)
 Number     Number       Type             X           Y           Z
 ---------------------------------------------------------------------
      1          6           0       -0.408909    2.254092    0.045771
      2          6           0       -0.506543    0.759630   -0.064868
      3          6           0        0.607579   -0.218963   -0.347973
      4          6           0        2.038311    0.241255   -0.228267
      5          8           0        2.837879   -0.903868    0.038555
      6          6           0       -0.185538   -08    0.038555
      6          6           0       -0.185538   -0.348993    0.933984
      7          6           0       -1.591344   -0.967158    0.671959
      8          8           0       -1.724524   -1.293344   -0.721068
      9          6           0       -1.899792    0.066969   -0.307426
     10          1           0       -0.522030    2.731918   -0.935579
     11          1           0       -1.196564    2.651895    0.696928
     12          1           0        0.550144    2.574203    0.461889
     13          1           0        0.454642   -0.966792   -1.117767
     14          1           0        2.346124    0.728849   -1.167310
     15          1           0        2.143152    0.987092    0.575397
     16          1           0        3.760322   -0.631743    0.023322
     17          1           0        0.274820   -0.272692    1.910518
     18          1           0       -2.214887   -1.508411    1.372964
     19          1           0       -2.825149    0.562390   -0.579338
 ---------------------------------------------------------------------

 SCF Done:  E(RB3LYP) =  -423.094050589     A.U. after    1 cycles

 The electronic state is 1-A.
 Alpha  occ. eigenvalues --  -19.15009 -19.13113 -10.23572 -10.23375 -10.22947
 Alpha  occ. eigenvalues --  -10.20025 -10.18800 -10.18641 -10.18564  -1.07535
 Alpha  occ. eigenvalues --   -1.01227  -0.87285  -0.72879  -0.71877  -0.64796
 Alpha  occ. eigenvalues --   -0.63365  -0.55026  -0.53466  -0.51902  -0.49453
 Alpha  occ. eigenvalues --   -0.48324  -0.44211  -0.42466  -0.41721  -0.40463
 Alpha  occ. eigenvalues --   -0.38747  -0.38303  -0.34662  -0.33382  -0.32432
 Alpha  occ. eigenvalues --   -0.28841  -0.26409  -0.25795  -0.22509
 Alpha virt. eigenvalues --    0.06117   0.08242   0.09388   0.10611   0.11352
 Alpha virt. eigenvalues --    0.13624   0.14884   0.15132   0.15652   0.16275
 Alpha virt. eigenvalues --    0.17966   0.18771   0.19662   0.20297   0.22045

 Mulliken charges:
               1
     1  C   -0.503414
     2  C    0.272421
     3  C   -0.042970
     4  C   -0.127782
     5  O   -0.418365
     6  C   -0.153342
     7  C    0.013875
     8  O   -0.238067
     9  C   -0.040617
    10  H    0.122328
    11  H    0.119715
    12  H    0.124682
    13  H    0.115664
    14  H    0.089750
    15  H    0.079254
    16  H    0.285015
    17  H    0.090236
    18  H    0.108321
    19  H    0.103297
 Sum of Mulliken charges =   0.00000

 Dipole moment (field-independent basis, Debye):
    X=              0.6711    Y=              2.5816    Z=              1.0331  Tot=              2.8604
 Quadrupole moment (field-independent basis, Debye-Ang):
   XX=            -45.4999   YY=            -55.9390   ZZ=            -52.7030
   XY=              0.9853   XZ=             -2.5157   YZ=             -2.3177

  Exact polarizability:  86.233   0.140  75.296  -0.565  -4.194  64.133
 Approx polarizability: 111.960  -1.416 112.725   1.864  -5.685 105.399

                      1                      2                      3
                      A                      A                      A
 Frequencies --     85.1901               152.0788               185.8470
 Red. masses --      3.5055                 4.7163                 1.1217
 Frc consts  --      0.0150                 0.0643                 0.0228
 IR Inten    --      2.3396                 0.7095                 3.4820

                      4                      5                      6
                      A                      A                      A
 Frequencies --    213.8491               237.1639               264.0179
 Red. masses --      2.0016                 1.6244                 2.0076
 Frc consts  --      0.0539                 0.0538                 0.0825
 IR Inten    --     10.0753                51.8563                24.0432

                      7                      8                      9
                      A                      A                      A
 Frequencies --    281.7759               390.0713               448.6583
 Red. masses --      2.2456                 3.5265                 3.8656
 Frc consts  --      0.1050                 0.3161                 0.4585
 IR Inten    --     20.3038                 2.6246                 8.9616

                     10                     11                     12
                      A                      A                      A
 Frequencies --    459.4665               572.7309               692.9836
 Red. masses --      3.3440                 4.7182                 4.1965
 Frc consts  --      0.4159                 0.9119                 1.1874
 IR Inten    --     10.9557                 9.3776                 4.2621

                     13                     14                     15
                      A                      A                      A
 Frequencies --    755.6589               801.4204               810.3677
 Red. masses --      3.4603                 2.6550                 4.3379
 Frc consts  --      1.1642                 1.0047                 1.6784
 IR Inten    --      1.0031                 6.0985                 6.4519

                     16                     17                     18
                      A                      A                      A
 Frequencies --    857.4991               868.1010               916.2321
 Red. masses --      1.8236                 2.2871                 1.3693
 Frc consts  --      0.7900                 1.0155                 0.6773
 IR Inten    --     11.2105                 2.2249                 9.8682

                     19                     20                     21
                      A                      A                      A
 Frequencies --    939.3677               958.8825               982.1439
 Red. masses --      2.7175                 1.7612                 2.7405
 Frc consts  --      1.4128                 0.9541                 1.5575
 IR Inten    --     14.9377                 3.3877                30.4236

                     22                     23                     24
                      A                      A                      A
 Frequencies --   1037.3895              1057.9152              1087.8432
 Red. masses --      1.3079                 3.8504                 1.7867
 Frc consts  --      0.8293                 2.5390                 1.2458
 IR Inten    --      7.7820                55.4358                 6.2602

                     25                     26                     27
                      A                      A                      A
 Frequencies --   1100.2889              1111.8304              1119.0994
 Red. masses --      1.4281                 2.4521                 1.9507
 Frc consts  --      1.0186                 1.7859                 1.4394
 IR Inten    --      4.9443                33.4184                 8.8463

                     28                     29                     30
                      A                      A                      A
 Frequencies --   1186.0334              1207.5000              1232.4698
 Red. masses --      1.4977                 1.4967                 1.3447
 Frc consts  --      1.2412                 1.2858                 1.2034
 IR Inten    --      4.9755                 0.1121                 3.7710

                     31                     32                     33
                      A                      A                      A
 Frequencies --   1243.4489              1261.9758              1281.6289
 Red. masses --      1.2423                 1.2957                 1.3336
 Frc consts  --      1.1317                 1.2158                 1.2907
 IR Inten    --     21.3694                41.0664                10.5776

                     34                     35                     36
                      A                      A                      A
 Frequencies --   1330.5836              1370.2623              1417.7811
 Red. masses --      1.9704                 3.8939                 1.2826
 Frc consts  --      2.0554                 4.3076                 1.5190
 IR Inten    --      1.3091                14.4889                 3.1600

                     37                     38                     39
                      A                      A                      A
 Frequencies --   1437.9238              1469.6462              1486.8035
 Red. masses --      2.8489                 1.6365                 1.0457
 Frc consts  --      3.4705                 2.0825                 1.3620
 IR Inten    --      3.3723                18.4903                 3.7154

                     40                     41                     42
                      A                      A                      A
 Frequencies --   1501.8537              1521.3592              2964.0899
 Red. masses --      1.1099                 1.0821                 1.0546
 Frc consts  --      1.4750                 1.4757                 5.4589
 IR Inten    --      1.6040                 2.7418                55.7164

                     43                     44                     45
                      A                      A                      A
 Frequencies --   2990.8632              3018.4281              3070.3576
 Red. masses --      1.1058                 1.0384                 1.1002
 Frc consts  --      5.8280                 5.5742                 6.1108
 IR Inten    --     56.7418                43.4098                24.6406

                     46                     47                     48
                      A                      A                      A
 Frequencies --   3107.5911              3175.8589              3177.5509
 Red. masses --      1.0972                 1.0884                 1.0868
 Frc consts  --      6.2429                 6.4678                 6.4655
 IR Inten    --     20.2430                15.9616                 7.5652

                     49                     50                     51
                      A                      A                      A
 Frequencies --   3193.1428              3202.8690              3825.1768
 Red. masses --      1.0962                 1.0970                 1.0663
 Frc consts  --      6.5852                 6.6303                 9.1923
 IR Inten    --     18.5518                12.4216                17.8115

 - Thermochemistry -
 -------------------
 Temperature   298.150 Kelvin.  Pressure   1.00000 Atm.
 Atom     1 has atomic number  6 and mass  12.00000

 Molecular mass:   126.06808 amu.
 Principal axes and moments of inertia in atomic units:
                           1         2         3
     Eigenvalues --   664.748661383.721481777.60894
           X            0.99996  -0.00191  -0.00910
           Y            0.00178   0.99990  -0.01420
           Z            0.00912   0.01419   0.99986
 This molecule is an asymmetric top.
 Rotational symmetry number  1.
 Warning -- assumption of classical behavior for rotation
           may cause significant error
 Rotational temperatures (Kelvin)      0.13030     0.06259     0.04872
 Rotational constants (GHZ):           2.71492     1.30427     1.01526
 Zero-point vibrational energy     413088.9 (Joules/Mol)
                                   98.73062 (Kcal/Mol)
 Warning -- explicit consideration of  11 degrees of freedom as
           vibrations may cause significant error
 Vibrational temperatures:    122.57   218.81   267.39   307.68   341.23
          (Kelvin)            379.86   405.41   561.22   645.52   661.07
                              824.03   997.05  1087.22  1153.06  1165.94
                             1233.75  1249.00  1318.25  1351.54  1379.62
                             1413.08  1492.57  1522.10  1565.16  1583.07
                             1599.67  1610.13  1706.44  1737.32  1773.25
                             1789.04  1815.70  1843.98  1914.41  1971.50
                             2039.87  2068.85  2114.49  2139.18  2160.83
                             2188.89  4264.66  4303.18  4342.84  4417.55
                             4471.12  4569.35  4571.78  4594.21  4608.21
                             5503.57

 Zero-point correction=                           0.157337 (Hartree/Particle)
 Thermal correction to Energy=                    0.166091
 Thermal correction to Enthalpy=                  0.167035
 Thermal correction to Gibbs Free Energy=         0.124024
 Sum of electronic and zero-point Energies=           -422.936713
 Sum of electronic and thermal Energies=              -422.927960
 Sum of electronic and thermal Enthalpies=            -422.927016
 Sum of electronic and thermal Free Energies=         -422.970026

                     E (Thermal)             CV                S
                      KCal/Mol        Cal/Mol-Kelvin    Cal/Mol-Kelvin
 Total                  104.223             33.334             90.523
 Electronic               0.000              0.000              0.000
 Translational            0.889              2.981             40.409
 Rotational               0.889              2.981             28.882
 Vibrational            102.446             27.373             21.233
 Vibration     1          0.601              1.959              3.768
 Vibration     2          0.619              1.900              2.646
 Vibration     3          0.632              1.859              2.269
 Vibration     4          0.644              1.820              2.011
 Vibration     5          0.656              1.784              1.824
 Vibration     6          0.671              1.739              1.635
 Vibration     7          0.681              1.707              1.523
 Vibration     8          0.758              1.491              1.000
 Vibration     9          0.808              1.364              0.800
 Vibration    10          0.817              1.340              0.768
 Vibration    11          0.929              1.090              0.499

 Optimization completed.
    -- Stationary point found.
 Normal termination of Gaussian 09 at Tue Jan 28 14:43:53 2020.
