 Gaussian 09, Revision D.01,
 Gaussian 09:  ES64L-G09RevD.01 24-Apr-2013

 -----------------------------
 # b3lyp 6-31G(2df,p) opt Freq
 -----------------------------

 -----
 titel
 -----
 Symbolic Z-matrix:
 Charge =  0 Multiplicity = 1

 SCF Done:  E(RB3LYP) =  -423.116212920     A.U. after   13 cycles
 Optimization completed.
    -- Stationary point found.
 Normal termination of Gaussian 09 at Mon Jan 27 23:44:47 2020.

 ----------------------------------------------------------------------
 #N Geom=AllCheck Guess=TCheck SCRF=Check GenChk RB3LYP/6-31G(2df,p) Fr
 eq
 ----------------------------------------------------------------------

 Structure from the checkpoint file:  "/scratch/puck/g09_09c7f294-4f9b-4f46-911d-3ed2be69d368/Gau-193846.chk"
 -----
 titel
 -----
 Charge =  0 Multiplicity = 1

                         Standard orientation:
 ---------------------------------------------------------------------
 Center     Atomic      Atomic             Coordinates (Angstroms)
 Number     Number       Type             X           Y           Z
 ---------------------------------------------------------------------
      1          8           0        2.323693   -1.088288   -0.158381
      2          6           0        1.198975   -0.517161    0.468982
      3          6           0        1.031867    1.038041    0.312775
      4          6           0        0.235909    1.298736   -1.043817
      5          6           0       -0.803954    0.475996   -0.258921
      6          6           0       -0.334627    1.213212    1.021129
      7          8           0       -2.123258   -0.070176   -0.376387
      8          6           0       -1.612957   -1.304025    0.243131
      9          6           0       -0.170211   -0.895651   -0.166897
     10          1           0        2.285401   -0.877066   -1.097532
     11          1           0        1.302240   -0.771837    1.527277
     12          1           0        1.894035    1.653879    0.563627
     13          1           0        0.027070    2.364739   -1.157715
     14          1           0        0.610475    0.878969   -1.982164
     15          1           0       -0.677623    2.249074    1.055636
     16          1           0       -0.474788    0.730421    1.991981
     17          1           0       -1.821785   -1.317641    1.318717
     18          1           0       -2.033075   -2.192314   -0.233960
     19          1           0        0.014565   -1.305394   -1.166011
 ---------------------------------------------------------------------

 SCF Done:  E(RB3LYP) =  -423.116212920     A.U. after    1 cycles

 The electronic state is 1-A.
 Alpha  occ. eigenvalues --  -19.14043 -19.13893 -10.24226 -10.23926 -10.23909
 Alpha  occ. eigenvalues --  -10.20294 -10.19852 -10.18597 -10.18568  -1.04186
 Alpha  occ. eigenvalues --   -1.02405  -0.88415  -0.74341  -0.68590  -0.66809
 Alpha  occ. eigenvalues --   -0.65353  -0.57736  -0.53570  -0.51704  -0.49980
 Alpha  occ. eigenvalues --   -0.46240  -0.45561  -0.45077  -0.40616  -0.38946
 Alpha  occ. eigenvalues --   -0.36606  -0.36105  -0.35591  -0.34411  -0.33303
 Alpha  occ. eigenvalues --   -0.32357  -0.27993  -0.25712  -0.24745
 Alpha virt. eigenvalues --    0.06647   0.07923   0.09342   0.10117   0.12224
 Alpha virt. eigenvalues --    0.12431   0.13670   0.14633   0.15792   0.16572
 Alpha virt. eigenvalues --    0.17667   0.18699   0.20546   0.20959   0.22262

 Mulliken charges:
               1
     1  O   -0.443297
     2  C    0.106542
     3  C   -0.077242
     4  C   -0.331025
     5  C    0.471554
     6  C   -0.290076
     7  O   -0.358706
     8  C   -0.176570
     9  C   -0.060409
    10  H    0.277523
    11  H    0.098811
    12  H    0.079826
    13  H    0.110292
    14  H    0.088787
    15  H    0.103808
    16  H    0.095792
    17  H    0.109956
    18  H    0.115234
    19  H    0.079200
 Sum of Mulliken charges =   0.00000

 Dipole moment (field-independent basis, Debye):
    X=              0.6096    Y=              0.4063    Z=             -0.1311  Tot=              0.7442
 Quadrupole moment (field-independent basis, Debye-Ang):
   XX=            -61.9544   YY=            -51.7646   ZZ=            -50.0255
   XY=              4.3398   XZ=             -4.0165   YZ=              0.6011

  Exact polarizability:  76.266   4.918  76.779  -3.261  -0.064  70.261
 Approx polarizability: 112.940   3.592 110.534  -2.821  -0.600 109.176

                      1                      2                      3
                      A                      A                      A
 Frequencies --    162.0266               264.7714               284.8838
 Red. masses --      3.5866                 1.6221                 1.9871
 Frc consts  --      0.0555                 0.0670                 0.0950
 IR Inten    --      7.3901                19.3094                13.1660

                      4                      5                      6
                      A                      A                      A
 Frequencies --    326.0276               340.1528               436.3024
 Red. masses --      3.1512                 2.7463                 2.9086
 Frc consts  --      0.1973                 0.1872                 0.3262
 IR Inten    --     42.1120                15.5925                 1.3554

                      7                      8                      9
                      A                      A                      A
 Frequencies --    502.6461               515.1194               555.6171
 Red. masses --      3.1002                 2.2911                 3.8641
 Frc consts  --      0.4615                 0.3582                 0.7028
 IR Inten    --      0.6336                 2.1071                 9.2607

                     10                     11                     12
                      A                      A                      A
 Frequencies --    605.7794               743.8930               785.3135
 Red. masses --      3.1661                 3.6486                 3.6487
 Frc consts  --      0.6845                 1.1896                 1.3258
 IR Inten    --      0.9340                 9.7458                 1.3164

                     13                     14                     15
                      A                      A                      A
 Frequencies --    834.0850               856.6195               885.9037
 Red. masses --      2.5266                 2.9268                 2.2995
 Frc consts  --      1.0356                 1.2654                 1.0633
 IR Inten    --      4.5703                18.9394                 9.5078

                     16                     17                     18
                      A                      A                      A
 Frequencies --    925.5914               945.6148               949.0100
 Red. masses --      3.1289                 2.2990                 2.0837
 Frc consts  --      1.5794                 1.2112                 1.1057
 IR Inten    --     32.8683                 6.0970                 3.1832

                     19                     20                     21
                      A                      A                      A
 Frequencies --    985.4468              1017.1893              1026.2849
 Red. masses --      1.5829                 1.6735                 1.5203
 Frc consts  --      0.9057                 1.0202                 0.9434
 IR Inten    --     13.9960                 2.2846                 4.1003

                     22                     23                     24
                      A                      A                      A
 Frequencies --   1050.4953              1083.9687              1094.6991
 Red. masses --      1.5124                 3.0353                 1.7541
 Frc consts  --      0.9834                 2.1013                 1.2385
 IR Inten    --     31.3209                12.5273                76.3078

                     25                     26                     27
                      A                      A                      A
 Frequencies --   1117.4279              1145.3363              1147.9181
 Red. masses --      1.9369                 1.7227                 1.3024
 Frc consts  --      1.4249                 1.3314                 1.0111
 IR Inten    --     41.0893                44.6835                 2.0566

                     28                     29                     30
                      A                      A                      A
 Frequencies --   1168.5757              1198.3064              1214.3043
 Red. masses --      2.6429                 1.5013                 1.6626
 Frc consts  --      2.1264                 1.2701                 1.4444
 IR Inten    --     17.2522                 7.3603                 7.6204

                     31                     32                     33
                      A                      A                      A
 Frequencies --   1229.9465              1252.5321              1277.6605
 Red. masses --      1.6831                 1.5075                 1.7341
 Frc consts  --      1.5002                 1.3934                 1.6679
 IR Inten    --      9.6760                12.0564                16.6174

                     34                     35                     36
                      A                      A                      A
 Frequencies --   1282.6484              1301.2333              1325.9941
 Red. masses --      1.4939                 1.9313                 1.6351
 Frc consts  --      1.4480                 1.9266                 1.6938
 IR Inten    --      7.0241                31.1794                11.5725

                     37                     38                     39
                      A                      A                      A
 Frequencies --   1389.3999              1432.9611              1486.8105
 Red. masses --      1.3791                 1.2084                 1.1008
 Frc consts  --      1.5685                 1.4620                 1.4337
 IR Inten    --      2.1044                64.6579                 5.4669

                     40                     41                     42
                      A                      A                      A
 Frequencies --   1511.2499              1523.1912              3036.3847
 Red. masses --      1.1115                 1.1355                 1.0632
 Frc consts  --      1.4957                 1.5522                 5.7751
 IR Inten    --      1.3180                 3.7699                42.2251

                     43                     44                     45
                      A                      A                      A
 Frequencies --   3041.8483              3052.9529              3060.9700
 Red. masses --      1.0790                 1.0588                 1.0597
 Frc consts  --      5.8824                 5.8145                 5.8500
 IR Inten    --     13.3770                60.0868                10.3421

                     46                     47                     48
                      A                      A                      A
 Frequencies --   3078.2589              3109.6059              3119.1009
 Red. masses --      1.0849                 1.1076                 1.1087
 Frc consts  --      6.0571                 6.3099                 6.3548
 IR Inten    --     30.6303                37.6020                23.2262

                     49                     50                     51
                      A                      A                      A
 Frequencies --   3125.0571              3135.3555              3802.8198
 Red. masses --      1.1073                 1.0909                 1.0658
 Frc consts  --      6.3713                 6.3185                 9.0807
 IR Inten    --     30.4569                34.8276                11.1278

 - Thermochemistry -
 -------------------
 Temperature   298.150 Kelvin.  Pressure   1.00000 Atm.
 Atom     1 has atomic number  8 and mass  15.99491

 Molecular mass:   126.06808 amu.
 Principal axes and moments of inertia in atomic units:
                           1         2         3
     Eigenvalues --   647.578491073.697131354.78657
           X            0.99864   0.04749  -0.02143
           Y           -0.04743   0.99887   0.00315
           Z            0.02156  -0.00213   0.99977
 This molecule is an asymmetric top.
 Rotational symmetry number  1.
 Warning -- assumption of classical behavior for rotation
           may cause significant error
 Rotational temperatures (Kelvin)      0.13375     0.08067     0.06393
 Rotational constants (GHZ):           2.78691     1.68087     1.33212
 Zero-point vibrational energy     423150.8 (Joules/Mol)
                                  101.13547 (Kcal/Mol)
 Warning -- explicit consideration of  10 degrees of freedom as
           vibrations may cause significant error
 Vibrational temperatures:    233.12   380.95   409.88   469.08   489.40
          (Kelvin)            627.74   723.19   741.14   799.41   871.58
                             1070.29  1129.89  1200.06  1232.48  1274.62
                             1331.72  1360.53  1365.41  1417.84  1463.51
                             1476.59  1511.43  1559.59  1575.03  1607.73
                             1647.88  1651.60  1681.32  1724.09  1747.11
                             1769.62  1802.11  1838.27  1845.44  1872.18
                             1907.81  1999.03  2061.71  2139.19  2174.35
                             2191.53  4368.67  4376.54  4392.51  4404.05
                             4428.92  4474.02  4487.68  4496.25  4511.07
                             5471.40

 Zero-point correction=                           0.161170 (Hartree/Particle)
 Thermal correction to Energy=                    0.168261
 Thermal correction to Enthalpy=                  0.169205
 Thermal correction to Gibbs Free Energy=         0.130091
 Sum of electronic and zero-point Energies=           -422.955043
 Sum of electronic and thermal Energies=              -422.947952
 Sum of electronic and thermal Enthalpies=            -422.947008
 Sum of electronic and thermal Free Energies=         -422.986122

                     E (Thermal)             CV                S
                      KCal/Mol        Cal/Mol-Kelvin    Cal/Mol-Kelvin
 Total                  105.585             29.718             82.323
 Electronic               0.000              0.000              0.000
 Translational            0.889              2.981             40.409
 Rotational               0.889              2.981             28.334
 Vibrational            103.808             23.756             13.581
 Vibration     1          0.622              1.889              2.526
 Vibration     2          0.671              1.738              1.630
 Vibration     3          0.683              1.702              1.504
 Vibration     4          0.710              1.623              1.280
 Vibration     5          0.720              1.595              1.211
 Vibration     6          0.797              1.391              0.838
 Vibration     7          0.858              1.244              0.652
 Vibration     8          0.870              1.217              0.621
 Vibration     9          0.911              1.127              0.533
 Vibration    10          0.964              1.020              0.440

 Optimization completed.
    -- Stationary point found.
 Normal termination of Gaussian 09 at Tue Jan 28 00:31:40 2020.
