 Gaussian 09, Revision D.01,
 Gaussian 09:  ES64L-G09RevD.01 24-Apr-2013

 -----------------------------
 # b3lyp 6-31G(2df,p) opt Freq
 -----------------------------

 -----
 titel
 -----
 Symbolic Z-matrix:
 Charge =  0 Multiplicity = 1

 SCF Done:  E(RB3LYP) =  -423.174246092     A.U. after   14 cycles
 Optimization completed.
    -- Stationary point found.
 Normal termination of Gaussian 09 at Mon Jan 27 23:03:28 2020.

 ----------------------------------------------------------------------
 #N Geom=AllCheck Guess=TCheck SCRF=Check GenChk RB3LYP/6-31G(2df,p) Fr
 eq
 ----------------------------------------------------------------------

 Structure from the checkpoint file:  "/scratch/puck/g09_664c1668-9de7-4db0-9e55-e0fedb1b2d10/Gau-128732.chk"
 -----
 titel
 -----
 Charge =  0 Multiplicity = 1

                         Standard orientation:
 ---------------------------------------------------------------------
 Center     Atomic      Atomic             Coordinates (Angstroms)
 Number     Number       Type             X           Y           Z
 ---------------------------------------------------------------------
      1          6           0        1.049851    2.012091    0.088459
      2          6           0        0.705592    0.745826   -0.674314
      3          6           0        1.500360   -0.565749   -0.420127
      4          6           0        0.285139   -1.327277   -0.996307
      5          6           0       -0.475573   -0.205848   -0.204072
      6          6           0       -0.026449   -0.540553    1.221677
      7          8           0        1.386738   -0.766296    0.996865
      8          6           0       -1.901074    0.132903   -0.465753
      9          8           0       -2.748671    0.230238    0.388478
     10          1           0        1.891556    2.523342   -0.390579
     11          1           0        0.206562    2.710597    0.107588
     12          1           0        1.340612    1.789639    1.117450
     13          1           0        0.606545    0.938289   -1.746289
     14          1           0        2.531553   -0.725907   -0.731732
     15          1           0        0.176772   -1.234156   -2.077922
     16          1           0        0.136769   -2.358245   -0.668772
     17          1           0       -0.176878    0.276020    1.933250
     18          1           0       -0.498978   -1.445469    1.616256
     19          1           0       -2.146130    0.305994   -1.539369
 ---------------------------------------------------------------------

 SCF Done:  E(RB3LYP) =  -423.174246092     A.U. after    1 cycles

 The electronic state is 1-A.
 Alpha  occ. eigenvalues --  -19.14482 -19.14161 -10.27505 -10.24516 -10.23010
 Alpha  occ. eigenvalues --  -10.21389 -10.20820 -10.20122 -10.18244  -1.05220
 Alpha  occ. eigenvalues --   -1.04531  -0.85428  -0.74727  -0.73585  -0.65371
 Alpha  occ. eigenvalues --   -0.63343  -0.57733  -0.55675  -0.51457  -0.48356
 Alpha  occ. eigenvalues --   -0.46442  -0.44898  -0.43724  -0.41077  -0.40384
 Alpha  occ. eigenvalues --   -0.39595  -0.38348  -0.37384  -0.35620  -0.35276
 Alpha  occ. eigenvalues --   -0.31969  -0.31026  -0.25521  -0.24916
 Alpha virt. eigenvalues --   -0.03435   0.08328   0.09873   0.10926   0.11753
 Alpha virt. eigenvalues --    0.13530   0.14067   0.14615   0.14911   0.16904
 Alpha virt. eigenvalues --    0.17981   0.18298   0.18893   0.19791   0.21526

 Mulliken charges:
               1
     1  C   -0.438212
     2  C   -0.017618
     3  C    0.089549
     4  C   -0.286217
     5  C    0.181356
     6  C   -0.121787
     7  O   -0.278771
     8  C    0.045314
     9  O   -0.250066
    10  H    0.121701
    11  H    0.124208
    12  H    0.142076
    13  H    0.081931
    14  H    0.083393
    15  H    0.108911
    16  H    0.112441
    17  H    0.115795
    18  H    0.114224
    19  H    0.071770
 Sum of Mulliken charges =   0.00000

 Dipole moment (field-independent basis, Debye):
    X=              1.3598    Y=              0.2146    Z=             -2.3554  Tot=              2.7282
 Quadrupole moment (field-independent basis, Debye-Ang):
   XX=            -62.2007   YY=            -51.7981   ZZ=            -52.1775
   XY=              2.3629   XZ=             -0.0251   YZ=              0.6978

  Exact polarizability:  80.961   0.657  72.524  -4.233   0.630  73.218
 Approx polarizability: 120.729  -1.705 102.087 -11.038  -0.057 115.454

                      1                      2                      3
                      A                      A                      A
 Frequencies --     65.9831               162.1902               188.6493
 Red. masses --      4.7599                 1.3881                 2.5063
 Frc consts  --      0.0122                 0.0215                 0.0526
 IR Inten    --      4.7410                 1.9181                 4.1555

                      4                      5                      6
                      A                      A                      A
 Frequencies --    211.5367               278.2475               303.3431
 Red. masses --      2.3961                 2.7733                 2.4408
 Frc consts  --      0.0632                 0.1265                 0.1323
 IR Inten    --      1.6256                 1.0154                 2.3170

                      7                      8                      9
                      A                      A                      A
 Frequencies --    414.7868               452.2157               487.4114
 Red. masses --      2.2014                 5.3435                 2.0472
 Frc consts  --      0.2232                 0.6438                 0.2866
 IR Inten    --      4.5350                 0.9224                 0.8102

                     10                     11                     12
                      A                      A                      A
 Frequencies --    586.2008               651.1140               746.0344
 Red. masses --      3.2063                 4.5237                 2.9769
 Frc consts  --      0.6492                 1.1300                 0.9762
 IR Inten    --      0.6457                14.8101                11.7004

                     13                     14                     15
                      A                      A                      A
 Frequencies --    763.5684               793.7488               852.6267
 Red. masses --      3.1300                 3.0099                 2.7247
 Frc consts  --      1.0752                 1.1173                 1.1670
 IR Inten    --      5.4757                 5.6166                 1.8360

                     16                     17                     18
                      A                      A                      A
 Frequencies --    910.8886               953.6229               959.6175
 Red. masses --      3.5812                 2.1070                 2.1037
 Frc consts  --      1.7507                 1.1289                 1.1414
 IR Inten    --     44.7937                 1.7002                22.1800

                     19                     20                     21
                      A                      A                      A
 Frequencies --    991.7751              1014.6325              1034.3812
 Red. masses --      1.8877                 1.5487                 1.4538
 Frc consts  --      1.0940                 0.9394                 0.9165
 IR Inten    --     20.9982                 6.7913                 5.3620

                     22                     23                     24
                      A                      A                      A
 Frequencies --   1052.2766              1093.0548              1114.5407
 Red. masses --      1.7321                 1.7167                 1.9527
 Frc consts  --      1.1300                 1.2085                 1.4292
 IR Inten    --      2.5005                10.4148                 5.0826

                     25                     26                     27
                      A                      A                      A
 Frequencies --   1137.9796              1158.9244              1189.1793
 Red. masses --      2.2396                 2.3679                 1.2784
 Frc consts  --      1.7088                 1.8738                 1.0652
 IR Inten    --      2.1539                12.0944                 1.6269

                     28                     29                     30
                      A                      A                      A
 Frequencies --   1197.0459              1223.2236              1228.7179
 Red. masses --      1.8158                 1.8054                 1.5751
 Frc consts  --      1.5330                 1.5916                 1.4011
 IR Inten    --      8.2823                 6.4474                 5.5576

                     31                     32                     33
                      A                      A                      A
 Frequencies --   1271.1481              1315.9930              1369.3212
 Red. masses --      1.5359                 1.9482                 1.4746
 Frc consts  --      1.4622                 1.9878                 1.6290
 IR Inten    --     14.4996                 0.8016                 4.2666

                     34                     35                     36
                      A                      A                      A
 Frequencies --   1392.6159              1413.2834              1425.8626
 Red. masses --      1.5143                 1.3376                 1.2327
 Frc consts  --      1.7303                 1.5742                 1.4766
 IR Inten    --     11.7262                 7.6222                 5.9102

                     37                     38                     39
                      A                      A                      A
 Frequencies --   1486.8132              1492.6223              1502.7857
 Red. masses --      1.0604                 1.0968                 1.0646
 Frc consts  --      1.3812                 1.4397                 1.4165
 IR Inten    --      1.5797                 5.5641                 7.7385

                     40                     41                     42
                      A                      A                      A
 Frequencies --   1534.5360              1810.5520              2863.2330
 Red. masses --      1.0906                10.7959                 1.0821
 Frc consts  --      1.5131                20.8511                 5.2267
 IR Inten    --      1.1753               182.2910               108.0126

                     43                     44                     45
                      A                      A                      A
 Frequencies --   3038.7389              3050.2526              3068.9478
 Red. masses --      1.0378                 1.0575                 1.0749
 Frc consts  --      5.6462                 5.7969                 5.9649
 IR Inten    --     21.9474                38.6209                10.2667

                     46                     47                     48
                      A                      A                      A
 Frequencies --   3077.9827              3094.3780              3098.3777
 Red. masses --      1.0654                 1.1091                 1.1009
 Frc consts  --      5.9472                 6.2572                 6.2267
 IR Inten    --     23.0807                27.4236                16.1731

                     49                     50                     51
                      A                      A                      A
 Frequencies --   3130.4036              3135.3680              3144.0703
 Red. masses --      1.0992                 1.0921                 1.1100
 Frc consts  --      6.3461                 6.3252                 6.4649
 IR Inten    --     11.9911                42.1019                24.7930

 - Thermochemistry -
 -------------------
 Temperature   298.150 Kelvin.  Pressure   1.00000 Atm.
 Atom     1 has atomic number  6 and mass  12.00000

 Molecular mass:   126.06808 amu.
 Principal axes and moments of inertia in atomic units:
                           1         2         3
     Eigenvalues --   713.344791212.993361373.56832
           X            0.99908   0.04284  -0.00130
           Y           -0.04274   0.99812   0.04400
           Z            0.00319  -0.04390   0.99903
 This molecule is an asymmetric top.
 Rotational symmetry number  1.
 Warning -- assumption of classical behavior for rotation
           may cause significant error
 Rotational temperatures (Kelvin)      0.12142     0.07141     0.06306
 Rotational constants (GHZ):           2.52997     1.48784     1.31391
 Zero-point vibrational energy     418303.0 (Joules/Mol)
                                   99.97682 (Kcal/Mol)
 Warning -- explicit consideration of  10 degrees of freedom as
           vibrations may cause significant error
 Vibrational temperatures:     94.93   233.36   271.42   304.35   400.34
          (Kelvin)            436.44   596.79   650.64   701.28   843.41
                              936.81  1073.38  1098.60  1142.03  1226.74
                             1310.56  1372.05  1380.67  1426.94  1459.83
                             1488.24  1513.99  1572.66  1603.57  1637.30
                             1667.43  1710.96  1722.28  1759.94  1767.85
                             1828.90  1893.42  1970.15  2003.66  2033.40
                             2051.50  2139.19  2147.55  2162.17  2207.85
                             2604.98  4119.55  4372.06  4388.63  4415.53
                             4428.53  4452.11  4457.87  4503.95  4511.09
                             4523.61

 Zero-point correction=                           0.159323 (Hartree/Particle)
 Thermal correction to Energy=                    0.167491
 Thermal correction to Enthalpy=                  0.168435
 Thermal correction to Gibbs Free Energy=         0.126456
 Sum of electronic and zero-point Energies=           -423.014923
 Sum of electronic and thermal Energies=              -423.006756
 Sum of electronic and thermal Enthalpies=            -423.005811
 Sum of electronic and thermal Free Energies=         -423.047790

                     E (Thermal)             CV                S
                      KCal/Mol        Cal/Mol-Kelvin    Cal/Mol-Kelvin
 Total                  105.102             31.258             88.352
 Electronic               0.000              0.000              0.000
 Translational            0.889              2.981             40.409
 Rotational               0.889              2.981             28.565
 Vibrational            103.324             25.296             19.378
 Vibration     1          0.597              1.971              4.270
 Vibration     2          0.622              1.889              2.524
 Vibration     3          0.633              1.855              2.241
 Vibration     4          0.643              1.823              2.030
 Vibration     5          0.679              1.714              1.544
 Vibration     6          0.695              1.667              1.398
 Vibration     7          0.778              1.438              0.910
 Vibration     8          0.811              1.356              0.789
 Vibration     9          0.843              1.278              0.690
 Vibration    10          0.943              1.061              0.474

 Optimization completed.
    -- Stationary point found.
 Normal termination of Gaussian 09 at Mon Jan 27 23:46:36 2020.
