 Gaussian 09, Revision D.01,
 Gaussian 09:  ES64L-G09RevD.01 24-Apr-2013

 -----------------------------
 # b3lyp 6-31G(2df,p) opt Freq
 -----------------------------

 -----
 titel
 -----
 Symbolic Z-matrix:
 Charge =  0 Multiplicity = 1

 SCF Done:  E(RB3LYP) =  -423.140571805     A.U. after   13 cycles
 Optimization completed.
    -- Stationary point found.
 Normal termination of Gaussian 09 at Tue Jan 28 12:09:09 2020.

 ----------------------------------------------------------------------
 #N Geom=AllCheck Guess=TCheck SCRF=Check GenChk RB3LYP/6-31G(2df,p) Fr
 eq
 ----------------------------------------------------------------------

 Structure from the checkpoint file:  "/scratch/puck/g09_cbcff344-9cc3-4329-87b9-27c1343bb6b1/Gau-85236.chk"
 -----
 titel
 -----
 Charge =  0 Multiplicity = 1

                         Standard orientation:
 ---------------------------------------------------------------------
 Center     Atomic      Atomic             Coordinates (Angstroms)
 Number     Number       Type             X           Y           Z
 ---------------------------------------------------------------------
      1          6           0       -2.909346    0.205569    0.106743
      2          8           0       -1.873324   -0.633947   -0.375734
      3          6           0       -0.602291   -0.157161   -0.165821
      4          6           0       -0.008703    1.149903   -0.687424
      5          6           0        1.070526    1.046346    0.444381
      6          6           0        2.290175    0.282014   -0.072564
      7          8           0        1.759885   -0.977993   -0.508636
      8          6           0        0.509013   -1.131550    0.127772
      9          6           0        0.230152   -0.062747    1.136743
     10          1           0       -2.958974    1.154588   -0.443657
     11          1           0       -3.847021   -0.334527   -0.040106
     12          1           0       -2.780464    0.425074    1.175631
     13          1           0        0.348126    1.166327   -1.722939
     14          1           0       -0.674667    1.999514   -0.516947
     15          1           0        1.293110    1.957330    0.997805
     16          1           0        2.775501    0.764936   -0.927154
     17          1           0        3.038410    0.127764    0.719697
     18          1           0        0.226903   -2.162086    0.306739
     19          1           0        0.009435   -0.197654    2.186905
 ---------------------------------------------------------------------

 SCF Done:  E(RB3LYP) =  -423.140571805     A.U. after    1 cycles

 The electronic state is 1-A.
 Alpha  occ. eigenvalues --  -19.15152 -19.13446 -10.23783 -10.22845 -10.22780
 Alpha  occ. eigenvalues --  -10.22447 -10.19919 -10.18638 -10.18593  -1.05023
 Alpha  occ. eigenvalues --   -1.03296  -0.87749  -0.75908  -0.69995  -0.68353
 Alpha  occ. eigenvalues --   -0.60613  -0.57764  -0.53731  -0.52993  -0.48105
 Alpha  occ. eigenvalues --   -0.46821  -0.45120  -0.44629  -0.43237  -0.40616
 Alpha  occ. eigenvalues --   -0.39197  -0.36722  -0.35319  -0.33537  -0.33144
 Alpha  occ. eigenvalues --   -0.31119  -0.28402  -0.23971  -0.22585
 Alpha virt. eigenvalues --    0.08872   0.09509   0.11380   0.12537   0.12895
 Alpha virt. eigenvalues --    0.14394   0.14867   0.15201   0.15864   0.16378
 Alpha virt. eigenvalues --    0.16748   0.17643   0.18569   0.19281   0.21825

 Mulliken charges:
               1
     1  C   -0.255270
     2  O   -0.284176
     3  C    0.395473
     4  C   -0.307243
     5  C   -0.073392
     6  C   -0.077166
     7  O   -0.270733
     8  C    0.052885
     9  C   -0.216782
    10  H    0.114643
    11  H    0.130053
    12  H    0.110767
    13  H    0.102626
    14  H    0.101461
    15  H    0.077259
    16  H    0.107049
    17  H    0.091840
    18  H    0.109155
    19  H    0.091550
 Sum of Mulliken charges =   0.00000

 Dipole moment (field-independent basis, Debye):
    X=             -0.7784    Y=              2.0321    Z=              1.4830  Tot=              2.6334
 Quadrupole moment (field-independent basis, Debye-Ang):
   XX=            -50.9528   YY=            -53.0667   ZZ=            -53.2098
   XY=              1.2644   XZ=              0.0279   YZ=             -1.8851

  Exact polarizability:  89.445   1.400  68.753   0.571  -2.202  65.503
 Approx polarizability: 115.101   1.479 104.812   1.481   1.107 103.857

                      1                      2                      3
                      A                      A                      A
 Frequencies --     85.9822               157.0441               189.6702
 Red. masses --      2.4478                 1.4618                 1.9127
 Frc consts  --      0.0107                 0.0212                 0.0405
 IR Inten    --      1.5540                 0.4804                 0.3150

                      4                      5                      6
                      A                      A                      A
 Frequencies --    231.7914               339.5227               353.6100
 Red. masses --      2.8154                 4.7873                 2.9517
 Frc consts  --      0.0891                 0.3251                 0.2175
 IR Inten    --      0.9182                 5.5814                 1.0235

                      7                      8                      9
                      A                      A                      A
 Frequencies --    409.5817               549.0936               576.4359
 Red. masses --      2.3751                 3.2286                 3.0944
 Frc consts  --      0.2348                 0.5735                 0.6058
 IR Inten    --      4.7676                 2.9195                 3.2167

                     10                     11                     12
                      A                      A                      A
 Frequencies --    691.5259               726.2130               774.6894
 Red. masses --      2.9303                 4.9143                 3.5792
 Frc consts  --      0.8256                 1.5270                 1.2656
 IR Inten    --      0.9947                 9.9335                 5.8802

                     13                     14                     15
                      A                      A                      A
 Frequencies --    834.5939               859.3533               886.6269
 Red. masses --      2.5830                 2.2869                 1.6032
 Frc consts  --      1.0600                 0.9950                 0.7425
 IR Inten    --      1.4826                12.3553                13.5667

                     16                     17                     18
                      A                      A                      A
 Frequencies --    904.1843               944.6446               968.1209
 Red. masses --      3.0834                 2.9124                 1.8520
 Frc consts  --      1.4853                 1.5312                 1.0227
 IR Inten    --     13.9025                 7.4274                17.9788

                     19                     20                     21
                      A                      A                      A
 Frequencies --    994.1730              1019.7712              1046.1312
 Red. masses --      1.7011                 1.9052                 3.0948
 Frc consts  --      0.9906                 1.1673                 1.9955
 IR Inten    --      6.5854                11.0246                19.4882

                     22                     23                     24
                      A                      A                      A
 Frequencies --   1060.8300              1089.0973              1097.9069
 Red. masses --      2.1533                 2.8049                 3.3884
 Frc consts  --      1.4277                 1.9602                 2.4065
 IR Inten    --      7.8655                72.4535                60.8568

                     25                     26                     27
                      A                      A                      A
 Frequencies --   1143.6427              1178.5115              1179.0457
 Red. masses --      1.5593                 1.2902                 1.7087
 Frc consts  --      1.2016                 1.0558                 1.3995
 IR Inten    --     20.3363                 1.9734                 4.3385

                     28                     29                     30
                      A                      A                      A
 Frequencies --   1186.1627              1204.1562              1228.4569
 Red. masses --      1.4135                 1.5316                 1.3988
 Frc consts  --      1.1718                 1.3084                 1.2437
 IR Inten    --      5.7301                16.1841                 4.0660

                     31                     32                     33
                      A                      A                      A
 Frequencies --   1245.6401              1263.4890              1283.1554
 Red. masses --      1.7532                 1.4239                 1.9159
 Frc consts  --      1.6027                 1.3393                 1.8586
 IR Inten    --     59.7706                 2.5223                41.2883

                     34                     35                     36
                      A                      A                      A
 Frequencies --   1324.8545              1367.4768              1420.1458
 Red. masses --      2.4333                 1.5065                 2.0065
 Frc consts  --      2.5165                 1.6599                 2.3843
 IR Inten    --     65.7859                29.3922                18.4675

                     37                     38                     39
                      A                      A                      A
 Frequencies --   1478.4803              1490.6301              1498.6555
 Red. masses --      1.1320                 1.0764                 1.2624
 Frc consts  --      1.4579                 1.4092                 1.6706
 IR Inten    --      1.5931                 3.8139                20.7131

                     40                     41                     42
                      A                      A                      A
 Frequencies --   1508.1243              1515.5649              2989.1386
 Red. masses --      1.0914                 1.0993                 1.0681
 Frc consts  --      1.4625                 1.4877                 5.6226
 IR Inten    --      3.2070                 0.5462                82.8043

                     43                     44                     45
                      A                      A                      A
 Frequencies --   2997.4285              3041.8737              3053.3138
 Red. masses --      1.0348                 1.0610                 1.1021
 Frc consts  --      5.4777                 5.7843                 6.0539
 IR Inten    --     43.5561                20.8828                57.6061

                     46                     47                     48
                      A                      A                      A
 Frequencies --   3071.5027              3101.1868              3124.2649
 Red. masses --      1.0957                 1.1052                 1.0986
 Frc consts  --      6.0905                 6.2624                 6.3181
 IR Inten    --     37.2876                25.2233                24.8122

                     49                     50                     51
                      A                      A                      A
 Frequencies --   3127.1114              3195.2126              3206.5666
 Red. masses --      1.0897                 1.0901                 1.0966
 Frc consts  --      6.2783                 6.5572                 6.6433
 IR Inten    --     30.7234                 6.5551                 9.2724

 - Thermochemistry -
 -------------------
 Temperature   298.150 Kelvin.  Pressure   1.00000 Atm.
 Atom     1 has atomic number  6 and mass  12.00000

 Molecular mass:   126.06808 amu.
 Principal axes and moments of inertia in atomic units:
                           1         2         3
     Eigenvalues --   452.715881376.737081525.02721
           X            0.99999   0.00047  -0.00365
           Y           -0.00070   0.99786  -0.06542
           Z            0.00361   0.06542   0.99785
 This molecule is an asymmetric top.
 Rotational symmetry number  1.
 Warning -- assumption of classical behavior for rotation
           may cause significant error
 Rotational temperatures (Kelvin)      0.19132     0.06291     0.05679
 Rotational constants (GHZ):           3.98648     1.31088     1.18342
 Zero-point vibrational energy     419975.3 (Joules/Mol)
                                  100.37650 (Kcal/Mol)
 Warning -- explicit consideration of   9 degrees of freedom as
           vibrations may cause significant error
 Vibrational temperatures:    123.71   225.95   272.89   333.50   488.50
          (Kelvin)            508.77   589.30   790.02   829.36   994.95
                             1044.86  1114.60  1200.79  1236.42  1275.66
                             1300.92  1359.13  1392.91  1430.39  1467.22
                             1505.15  1526.30  1566.97  1579.64  1645.44
                             1695.61  1696.38  1706.62  1732.51  1767.47
                             1792.20  1817.88  1846.17  1906.17  1967.49
                             2043.27  2127.20  2144.68  2156.23  2169.85
                             2180.56  4300.70  4312.63  4376.57  4393.03
                             4419.20  4461.91  4495.11  4499.21  4597.19
                             4613.53

 Zero-point correction=                           0.159960 (Hartree/Particle)
 Thermal correction to Energy=                    0.167682
 Thermal correction to Enthalpy=                  0.168626
 Thermal correction to Gibbs Free Energy=         0.127704
 Sum of electronic and zero-point Energies=           -422.980612
 Sum of electronic and thermal Energies=              -422.972890
 Sum of electronic and thermal Enthalpies=            -422.971946
 Sum of electronic and thermal Free Energies=         -423.012868

                     E (Thermal)             CV                S
                      KCal/Mol        Cal/Mol-Kelvin    Cal/Mol-Kelvin
 Total                  105.222             30.114             86.129
 Electronic               0.000              0.000              0.000
 Translational            0.889              2.981             40.409
 Rotational               0.889              2.981             28.343
 Vibrational            103.445             24.152             17.377
 Vibration     1          0.601              1.959              3.749
 Vibration     2          0.621              1.895              2.585
 Vibration     3          0.633              1.854              2.231
 Vibration     4          0.653              1.792              1.865
 Vibration     5          0.719              1.597              1.214
 Vibration     6          0.730              1.568              1.150
 Vibration     7          0.774              1.449              0.928
 Vibration     8          0.904              1.142              0.546
 Vibration     9          0.933              1.082              0.492

 Optimization completed.
    -- Stationary point found.
 Normal termination of Gaussian 09 at Tue Jan 28 12:57:18 2020.
