 Gaussian 09, Revision D.01,
 Gaussian 09:  ES64L-G09RevD.01 24-Apr-2013

 -----------------------------
 # b3lyp 6-31G(2df,p) opt Freq
 -----------------------------

 -----
 titel
 -----
 Symbolic Z-matrix:
 Charge =  0 Multiplicity = 1

 SCF Done:  E(RB3LYP) =  -423.150710859     A.U. after   14 cycles
 SCF Done:  E(RB3LYP) =  -423.150710810     A.U. after    7 cycles
 SCF Done:  E(RB3LYP) =  -423.150709001     A.U. after    8 cycles
 SCF Done:  E(RB3LYP) =  -423.150711052     A.U. after    8 cycles
 SCF Done:  E(RB3LYP) =  -423.150711265     A.U. after    7 cycles
 Optimization completed.
    -- Stationary point found.
 Normal termination of Gaussian 09 at Tue Jan 28 04:18:31 2020.

 ----------------------------------------------------------------------
 #N Geom=AllCheck Guess=TCheck SCRF=Check GenChk RB3LYP/6-31G(2df,p) Fr
 eq
 ----------------------------------------------------------------------

 Structure from the checkpoint file:  "/scratch/puck/g09_d994b110-7cf4-466a-8716-b548cfc1e747/Gau-3018.chk"
 -----
 titel
 -----
 Charge =  0 Multiplicity = 1

                         Standard orientation:
 ---------------------------------------------------------------------
 Center     Atomic      Atomic             Coordinates (Angstroms)
 Number     Number       Type             X           Y           Z
 ---------------------------------------------------------------------
      1          6           0       -2.096672   -1.106934   -0.446622
      2          6           0       -0.825859   -0.327580   -0.107062
      3          6           0        0.325345   -0.528320   -1.123947
      4          6           0        1.602423   -0.378590   -0.282597
      5          8           0        2.168366    0.898403   -0.538867
      6          6           0        1.083363   -0.531761    1.175172
      7          8           0       -0.289067   -0.888012    1.099825
      8          6           0       -1.136270    1.100696    0.081046
      9          6           0       -1.416690    2.258115    0.243325
     10          1           0       -2.840723   -0.978566    0.342724
     11          1           0       -2.522672   -0.749332   -1.387563
     12          1           0       -1.858661   -2.170108   -0.538763
     13          1           0        0.253073   -1.539133   -1.534119
     14          1           0        0.314334    0.190411   -1.943819
     15          1           0        2.326935   -1.166868   -0.527969
     16          1           0        2.923002    1.016688    0.046724
     17          1           0        1.592291   -1.315451    1.744043
     18          1           0        1.214021    0.430748    1.691737
     19          1           0       -1.649828    3.284726    0.383451
 ---------------------------------------------------------------------

 SCF Done:  E(RB3LYP) =  -423.150711265     A.U. after    1 cycles

 The electronic state is 1-A.
 Alpha  occ. eigenvalues --  -19.14049 -19.13817 -10.25815 -10.23694 -10.22440
 Alpha  occ. eigenvalues --  -10.18522 -10.17873 -10.17453 -10.17044  -1.04345
 Alpha  occ. eigenvalues --   -1.01728  -0.80049  -0.76077  -0.72702  -0.67809
 Alpha  occ. eigenvalues --   -0.61062  -0.59346  -0.53529  -0.51504  -0.49270
 Alpha  occ. eigenvalues --   -0.47512  -0.45718  -0.42357  -0.40021  -0.39841
 Alpha  occ. eigenvalues --   -0.38074  -0.36398  -0.36228  -0.34301  -0.31766
 Alpha  occ. eigenvalues --   -0.27876  -0.26728  -0.26065  -0.25445
 Alpha virt. eigenvalues --    0.04604   0.05529   0.07601   0.09214   0.11889
 Alpha virt. eigenvalues --    0.13033   0.13215   0.14601   0.15386   0.16962
 Alpha virt. eigenvalues --    0.17172   0.18887   0.19983   0.21216   0.21824

 Mulliken charges:
               1
     1  C   -0.437254
     2  C    0.161155
     3  C   -0.244001
     4  C    0.094892
     5  O   -0.429255
     6  C   -0.109172
     7  O   -0.268275
     8  C    0.382600
     9  C   -0.518798
    10  H    0.135821
    11  H    0.127057
    12  H    0.119607
    13  H    0.102697
    14  H    0.127953
    15  H    0.071564
    16  H    0.282324
    17  H    0.104113
    18  H    0.100276
    19  H    0.196696
 Sum of Mulliken charges =   0.00000

 Dipole moment (field-independent basis, Debye):
    X=              1.3005    Y=             -0.4643    Z=             -0.1341  Tot=              1.3873
 Quadrupole moment (field-independent basis, Debye-Ang):
   XX=            -47.6172   YY=            -50.3627   ZZ=            -54.7930
   XY=             -1.9081   XZ=              4.5137   YZ=              3.3324

  Exact polarizability:  78.558  -5.086  86.986   3.392   3.675  63.807
 Approx polarizability: 101.434  -9.169 137.537   3.002   4.143  94.342

                      1                      2                      3
                      A                      A                      A
 Frequencies --     45.9485               116.8309               164.9658
 Red. masses --      3.6191                 3.2157                 3.0209
 Frc consts  --      0.0045                 0.0259                 0.0484
 IR Inten    --      0.2106                 2.6848                 1.7817

                      4                      5                      6
                      A                      A                      A
 Frequencies --    208.1948               234.5889               264.2836
 Red. masses --      2.4362                 1.2551                 1.1219
 Frc consts  --      0.0622                 0.0407                 0.0462
 IR Inten    --      4.3710                 1.7740               104.6647

                      7                      8                      9
                      A                      A                      A
 Frequencies --    284.7258               385.5953               425.6222
 Red. masses --      2.6428                 3.4892                 2.1662
 Frc consts  --      0.1262                 0.3057                 0.2312
 IR Inten    --      4.6397                 2.8867                 3.3944

                     10                     11                     12
                      A                      A                      A
 Frequencies --    429.8055               491.8909               561.8371
 Red. masses --      3.2566                 5.1420                 6.1848
 Frc consts  --      0.3545                 0.7330                 1.1503
 IR Inten    --      7.4982                 7.0724                 8.4015

                     13                     14                     15
                      A                      A                      A
 Frequencies --    625.6002               633.7347               664.7815
 Red. masses --      1.3056                 3.4471                 1.2852
 Frc consts  --      0.3011                 0.8157                 0.3346
 IR Inten    --     38.4288                 4.9641                34.1283

                     16                     17                     18
                      A                      A                      A
 Frequencies --    677.9875               763.9676               856.0724
 Red. masses --      3.8378                 3.9441                 2.6924
 Frc consts  --      1.0394                 1.3563                 1.1625
 IR Inten    --      3.8516                 3.1359                19.9595

                     19                     20                     21
                      A                      A                      A
 Frequencies --    862.8668               922.3711               929.0282
 Red. masses --      2.6801                 1.9808                 1.9114
 Frc consts  --      1.1757                 0.9929                 0.9720
 IR Inten    --      5.1331                 3.8670                 4.7493

                     22                     23                     24
                      A                      A                      A
 Frequencies --   1013.8288              1035.2000              1069.4332
 Red. masses --      2.1629                 2.4307                 2.3543
 Frc consts  --      1.3099                 1.5347                 1.5864
 IR Inten    --     55.5123                 4.1575                45.8200

                     25                     26                     27
                      A                      A                      A
 Frequencies --   1080.8434              1133.8337              1176.5915
 Red. masses --      2.3553                 3.3529                 2.1497
 Frc consts  --      1.6211                 2.5396                 1.7534
 IR Inten    --     21.5989                70.5368                26.7055

                     28                     29                     30
                      A                      A                      A
 Frequencies --   1193.3084              1230.9617              1258.6372
 Red. masses --      2.3818                 1.2419                 1.5235
 Frc consts  --      1.9983                 1.1087                 1.4220
 IR Inten    --     12.8798                41.6598                46.6356

                     31                     32                     33
                      A                      A                      A
 Frequencies --   1268.5764              1324.7403              1344.9613
 Red. masses --      1.4452                 1.4673                 1.4366
 Frc consts  --      1.3703                 1.5172                 1.5311
 IR Inten    --     14.3763                 1.5796                28.0355

                     34                     35                     36
                      A                      A                      A
 Frequencies --   1361.6374              1404.6388              1429.9635
 Red. masses --      1.2748                 1.2536                 1.3911
 Frc consts  --      1.3926                 1.4573                 1.6759
 IR Inten    --      2.2524                 4.2626                 3.5749

                     37                     38                     39
                      A                      A                      A
 Frequencies --   1470.6544              1479.7394              1493.8605
 Red. masses --      1.1019                 1.0509                 1.0514
 Frc consts  --      1.4041                 1.3558                 1.3824
 IR Inten    --      4.5739                 2.5937                 1.4011

                     40                     41                     42
                      A                      A                      A
 Frequencies --   1505.5620              2229.5776              2997.4628
 Red. masses --      1.0876                 5.8998                 1.0677
 Frc consts  --      1.4525                17.2796                 5.6521
 IR Inten    --      0.7789                 0.9366                46.2926

                     43                     44                     45
                      A                      A                      A
 Frequencies --   3001.4407              3048.8661              3069.9276
 Red. masses --      1.0837                 1.0344                 1.0647
 Frc consts  --      5.7518                 5.6649                 5.9121
 IR Inten    --     46.6896                11.9035                19.6178

                     46                     47                     48
                      A                      A                      A
 Frequencies --   3083.9587              3128.3173              3134.2705
 Red. masses --      1.0972                 1.1026                 1.1023
 Frc consts  --      6.1485                 6.3577                 6.3803
 IR Inten    --     45.9979                14.8800                13.4008

                     49                     50                     51
                      A                      A                      A
 Frequencies --   3139.7992              3501.5165              3817.5152
 Red. masses --      1.1019                 1.1622                 1.0663
 Frc consts  --      6.4001                 8.3953                 9.1553
 IR Inten    --     10.7125                59.0602                19.2993

 - Thermochemistry -
 -------------------
 Temperature   298.150 Kelvin.  Pressure   1.00000 Atm.
 Atom     1 has atomic number  6 and mass  12.00000

 Molecular mass:   126.06808 amu.
 Principal axes and moments of inertia in atomic units:
                           1         2         3
     Eigenvalues --   800.844221203.221391472.10120
           X            0.99948   0.01175   0.03019
           Y           -0.01345   0.99830   0.05678
           Z           -0.02947  -0.05716   0.99793
 This molecule is an asymmetric top.
 Rotational symmetry number  1.
 Warning -- assumption of classical behavior for rotation
           may cause significant error
 Rotational temperatures (Kelvin)      0.10815     0.07198     0.05884
 Rotational constants (GHZ):           2.25355     1.49992     1.22596
 Zero-point vibrational energy     412594.0 (Joules/Mol)
                                   98.61232 (Kcal/Mol)
 Warning -- explicit consideration of  12 degrees of freedom as
           vibrations may cause significant error
 Vibrational temperatures:     66.11   168.09   237.35   299.55   337.52
          (Kelvin)            380.24   409.66   554.78   612.37   618.39
                              707.72   808.36   900.10   911.80   956.47
                              975.47  1099.18  1231.70  1241.47  1327.08
                             1336.66  1458.67  1489.42  1538.67  1555.09
                             1631.33  1692.85  1716.90  1771.08  1810.90
                             1825.20  1906.00  1935.10  1959.09  2020.96
                             2057.40  2115.94  2129.01  2149.33  2166.17
                             3207.86  4312.67  4318.40  4386.63  4416.94
                             4437.12  4500.95  4509.51  4517.47  5037.90
                             5492.55

 Zero-point correction=                           0.157149 (Hartree/Particle)
 Thermal correction to Energy=                    0.166546
 Thermal correction to Enthalpy=                  0.167490
 Thermal correction to Gibbs Free Energy=         0.122934
 Sum of electronic and zero-point Energies=           -422.993563
 Sum of electronic and thermal Energies=              -422.984166
 Sum of electronic and thermal Enthalpies=            -422.983222
 Sum of electronic and thermal Free Energies=         -423.027777

                     E (Thermal)             CV                S
                      KCal/Mol        Cal/Mol-Kelvin    Cal/Mol-Kelvin
 Total                  104.509             35.401             93.776
 Electronic               0.000              0.000              0.000
 Translational            0.889              2.981             40.409
 Rotational               0.889              2.981             28.741
 Vibrational            102.731             29.439             24.626
 Vibration     1          0.595              1.979              4.985
 Vibration     2          0.608              1.935              3.152
 Vibration     3          0.623              1.886              2.492
 Vibration     4          0.642              1.828              2.059
 Vibration     5          0.654              1.788              1.844
 Vibration     6          0.671              1.738              1.633
 Vibration     7          0.683              1.702              1.505
 Vibration     8          0.754              1.501              1.017
 Vibration     9          0.787              1.414              0.873
 Vibration    10          0.791              1.405              0.859
 Vibration    11          0.848              1.268              0.679
 Vibration    12          0.918              1.114              0.520

 Normal termination of Gaussian 09 at Tue Jan 28 04:57:38 2020.
