 Gaussian 09, Revision D.01,
 Gaussian 09:  ES64L-G09RevD.01 24-Apr-2013

 -----------------------------
 # b3lyp 6-31G(2df,p) opt Freq
 -----------------------------

 -----
 titel
 -----
 Symbolic Z-matrix:
 Charge =  0 Multiplicity = 1

 SCF Done:  E(RB3LYP) =  -423.225396103     A.U. after   14 cycles
 Optimization completed.
    -- Stationary point found.
 Normal termination of Gaussian 09 at Mon Jan 27 22:03:11 2020.

 ----------------------------------------------------------------------
 #N Geom=AllCheck Guess=TCheck SCRF=Check GenChk RB3LYP/6-31G(2df,p) Fr
 eq
 ----------------------------------------------------------------------

 Structure from the checkpoint file:  "/scratch/puck/g09_e9b6097a-f319-4c9c-abb8-a0f974e36dad/Gau-180906.chk"
 -----
 titel
 -----
 Charge =  0 Multiplicity = 1

                         Standard orientation:
 ---------------------------------------------------------------------
 Center     Atomic      Atomic             Coordinates (Angstroms)
 Number     Number       Type             X           Y           Z
 ---------------------------------------------------------------------
      1          6           0       -2.755781   -0.650951   -0.567241
      2          6           0       -1.518831   -0.033954    0.020373
      3          6           0       -1.158285    1.239426   -0.151341
      4          6           0        0.128354    1.774478    0.419202
      5          6           0        1.371498    1.108754   -0.198241
      6          6           0        1.594000   -0.407749   -0.138421
      7          8           0        2.655740   -0.858965   -0.476323
      8          8           0        0.622945   -1.283493    0.216758
      9          6           0       -0.621017   -0.919057    0.852200
     10          1           0       -3.409306   -1.057647    0.215197
     11          1           0       -3.331565    0.076288   -1.145489
     12          1           0       -2.499877   -1.489301   -1.227445
     13          1           0       -1.771076    1.904219   -0.755194
     14          1           0        0.204996    2.851088    0.240669
     15          1           0        0.146418    1.649105    1.510174
     16          1           0        1.401252    1.338056   -1.270522
     17          1           0        2.285180    1.542527    0.219447
     18          1           0       -1.093787   -1.883457    1.048425
     19          1           0       -0.401341   -0.456895    1.822072
 ---------------------------------------------------------------------

 SCF Done:  E(RB3LYP) =  -423.225396103     A.U. after    1 cycles

 The electronic state is 1-A.
 Alpha  occ. eigenvalues --  -19.17423 -19.10962 -10.30159 -10.24914 -10.20292
 Alpha  occ. eigenvalues --  -10.20179 -10.20022 -10.19217 -10.19209  -1.08718
 Alpha  occ. eigenvalues --   -1.00570  -0.83458  -0.78667  -0.71542  -0.70311
 Alpha  occ. eigenvalues --   -0.64572  -0.57538  -0.52666  -0.50363  -0.49026
 Alpha  occ. eigenvalues --   -0.47130  -0.43737  -0.42866  -0.42333  -0.42017
 Alpha  occ. eigenvalues --   -0.41081  -0.39339  -0.37845  -0.36406  -0.34104
 Alpha  occ. eigenvalues --   -0.32313  -0.28606  -0.25816  -0.25479
 Alpha virt. eigenvalues --   -0.00320   0.01502   0.08057   0.09712   0.10215
 Alpha virt. eigenvalues --    0.13069   0.13584   0.14378   0.15660   0.17018
 Alpha virt. eigenvalues --    0.18443   0.19459   0.19741   0.20735   0.22039

 Mulliken charges:
               1
     1  C   -0.486753
     2  C    0.314647
     3  C   -0.148653
     4  C   -0.288520
     5  C   -0.302657
     6  C    0.382206
     7  O   -0.313373
     8  O   -0.221216
     9  C   -0.168485
    10  H    0.127938
    11  H    0.125578
    12  H    0.138239
    13  H    0.091561
    14  H    0.108985
    15  H    0.116409
    16  H    0.144488
    17  H    0.137591
    18  H    0.122252
    19  H    0.119762
 Sum of Mulliken charges =   0.00000

 Dipole moment (field-independent basis, Debye):
    X=             -3.5376    Y=              2.3188    Z=              1.0022  Tot=              4.3469
 Quadrupole moment (field-independent basis, Debye-Ang):
   XX=            -60.2701   YY=            -52.9538   ZZ=            -51.5796
   XY=              6.9511   XZ=              2.4556   YZ=             -1.7955

  Exact polarizability:  91.262   6.315  83.443  -0.124  -2.150  59.858
 Approx polarizability: 125.038   7.397 129.211  -4.483  -4.108  92.489

                      1                      2                      3
                      A                      A                      A
 Frequencies --     50.9521               124.9750               168.7211
 Red. masses --      4.5128                 2.4576                 3.4341
 Frc consts  --      0.0069                 0.0226                 0.0576
 IR Inten    --      2.7109                 2.2867                 2.3044

                      4                      5                      6
                      A                      A                      A
 Frequencies --    197.5247               288.3610               322.8309
 Red. masses --      1.0477                 2.9758                 3.0496
 Frc consts  --      0.0241                 0.1458                 0.1873
 IR Inten    --      0.0584                 0.2114                 2.4235

                      7                      8                      9
                      A                      A                      A
 Frequencies --    357.4266               369.1892               486.0163
 Red. masses --      2.1282                 3.8713                 4.0495
 Frc consts  --      0.1602                 0.3109                 0.5636
 IR Inten    --      0.7790                 0.8489                 4.1340

                     10                     11                     12
                      A                      A                      A
 Frequencies --    507.5037               524.8630               632.7380
 Red. masses --      3.2920                 2.1030                 4.0150
 Frc consts  --      0.4996                 0.3413                 0.9471
 IR Inten    --      0.8282                 2.4320                 6.3047

                     13                     14                     15
                      A                      A                      A
 Frequencies --    673.6493               732.4514               822.9548
 Red. masses --      3.3181                 4.8564                 2.6249
 Frc consts  --      0.8872                 1.5351                 1.0474
 IR Inten    --      9.8078                 3.6550                 7.5313

                     16                     17                     18
                      A                      A                      A
 Frequencies --    862.1966               908.8743               916.2924
 Red. masses --      1.4249                 2.4240                 2.2199
 Frc consts  --      0.6241                 1.1798                 1.0981
 IR Inten    --      5.4891                 9.0676                 7.6749

                     19                     20                     21
                      A                      A                      A
 Frequencies --    977.5055              1028.3583              1048.2454
 Red. masses --      1.5801                 1.8688                 2.5143
 Frc consts  --      0.8896                 1.1644                 1.6277
 IR Inten    --      5.2307                13.5914                12.3965

                     22                     23                     24
                      A                      A                      A
 Frequencies --   1060.7483              1076.6820              1112.5854
 Red. masses --      2.9521                 2.1624                 1.7767
 Frc consts  --      1.9571                 1.4769                 1.2958
 IR Inten    --     58.6617                21.2191                 2.0662

                     25                     26                     27
                      A                      A                      A
 Frequencies --   1167.9424              1208.5063              1245.5632
 Red. masses --      1.9554                 1.7387                 2.2378
 Frc consts  --      1.5716                 1.4961                 2.0455
 IR Inten    --     44.2471                91.7485                99.5622

                     28                     29                     30
                      A                      A                      A
 Frequencies --   1269.3452              1288.6114              1345.0108
 Red. masses --      1.2950                 1.1882                 1.3548
 Frc consts  --      1.2294                 1.1625                 1.4440
 IR Inten    --      2.9409                13.8493                 2.6580

                     31                     32                     33
                      A                      A                      A
 Frequencies --   1353.2832              1378.4173              1413.1835
 Red. masses --      1.5172                 1.4520                 1.3563
 Frc consts  --      1.6371                 1.6255                 1.5958
 IR Inten    --     13.8540                 7.7739                 4.5628

                     34                     35                     36
                      A                      A                      A
 Frequencies --   1417.6976              1453.9473              1478.4989
 Red. masses --      1.3511                 1.0825                 1.0465
 Frc consts  --      1.6000                 1.3482                 1.3479
 IR Inten    --     21.3209                 3.0483                 6.3006

                     37                     38                     39
                      A                      A                      A
 Frequencies --   1486.3959              1490.1804              1514.3399
 Red. masses --      1.0773                 1.0770                 1.0883
 Frc consts  --      1.4024                 1.4091                 1.4704
 IR Inten    --      8.4427                 3.7985                 6.6278

                     40                     41                     42
                      A                      A                      A
 Frequencies --   1736.8043              1825.1117              3015.5658
 Red. masses --      7.0413                12.5598                 1.0685
 Frc consts  --     12.5142                24.6497                 5.7248
 IR Inten    --      1.1170               313.5266                23.6911

                     43                     44                     45
                      A                      A                      A
 Frequencies --   3017.3405              3030.9532              3043.9113
 Red. masses --      1.0389                 1.0672                 1.0637
 Frc consts  --      5.5728                 5.7762                 5.8066
 IR Inten    --     19.7688                33.1151                11.8682

                     46                     47                     48
                      A                      A                      A
 Frequencies --   3065.2377              3079.9968              3091.0343
 Red. masses --      1.0987                 1.0926                 1.0976
 Frc consts  --      6.0822                 6.1070                 6.1785
 IR Inten    --     16.0287                25.3446                11.9624

                     49                     50                     51
                      A                      A                      A
 Frequencies --   3107.9645              3115.1930              3157.6752
 Red. masses --      1.0973                 1.0991                 1.0906
 Frc consts  --      6.2448                 6.2845                 6.4069
 IR Inten    --     16.2539                19.8556                19.0622

 - Thermochemistry -
 -------------------
 Temperature   298.150 Kelvin.  Pressure   1.00000 Atm.
 Atom     1 has atomic number  6 and mass  12.00000

 Molecular mass:   126.06808 amu.
 Principal axes and moments of inertia in atomic units:
                           1         2         3
     Eigenvalues --   654.854691374.765041801.61764
           X            0.99819   0.05860   0.01388
           Y           -0.05852   0.99827  -0.00601
           Z           -0.01421   0.00519   0.99989
 This molecule is an asymmetric top.
 Rotational symmetry number  1.
 Warning -- assumption of classical behavior for rotation
           may cause significant error
 Rotational temperatures (Kelvin)      0.13226     0.06300     0.04808
 Rotational constants (GHZ):           2.75594     1.31276     1.00173
 Zero-point vibrational energy     418988.2 (Joules/Mol)
                                  100.14058 (Kcal/Mol)
 Warning -- explicit consideration of  11 degrees of freedom as
           vibrations may cause significant error
 Vibrational temperatures:     73.31   179.81   242.75   284.19   414.89
          (Kelvin)            464.48   514.26   531.18   699.27   730.18
                              755.16   910.37   969.23  1053.83  1184.05
                             1240.51  1307.67  1318.34  1406.41  1479.58
                             1508.19  1526.18  1549.10  1600.76  1680.41
                             1738.77  1792.09  1826.30  1854.02  1935.17
                             1947.07  1983.23  2033.25  2039.75  2091.90
                             2127.23  2138.59  2144.03  2178.79  2498.87
                             2625.93  4338.72  4341.27  4360.86  4379.50
                             4410.19  4431.42  4447.30  4471.66  4482.06
                             4543.18

 Zero-point correction=                           0.159584 (Hartree/Particle)
 Thermal correction to Energy=                    0.168225
 Thermal correction to Enthalpy=                  0.169170
 Thermal correction to Gibbs Free Energy=         0.125907
 Sum of electronic and zero-point Energies=           -423.065812
 Sum of electronic and thermal Energies=              -423.057171
 Sum of electronic and thermal Enthalpies=            -423.056226
 Sum of electronic and thermal Free Energies=         -423.099489

                     E (Thermal)             CV                S
                      KCal/Mol        Cal/Mol-Kelvin    Cal/Mol-Kelvin
 Total                  105.563             32.368             91.054
 Electronic               0.000              0.000              0.000
 Translational            0.889              2.981             40.409
 Rotational               0.889              2.981             28.874
 Vibrational            103.786             26.407             21.772
 Vibration     1          0.595              1.977              4.780
 Vibration     2          0.610              1.928              3.022
 Vibration     3          0.625              1.881              2.450
 Vibration     4          0.637              1.843              2.156
 Vibration     5          0.685              1.695              1.484
 Vibration     6          0.708              1.630              1.296
 Vibration     7          0.733              1.560              1.133
 Vibration     8          0.741              1.536              1.083
 Vibration     9          0.842              1.281              0.694
 Vibration    10          0.863              1.233              0.640
 Vibration    11          0.880              1.195              0.599

 Optimization completed.
    -- Stationary point found.
 Normal termination of Gaussian 09 at Mon Jan 27 22:45:52 2020.
