 Gaussian 09, Revision D.01,
 Gaussian 09:  ES64L-G09RevD.01 24-Apr-2013

 -----------------------------
 # b3lyp 6-31G(2df,p) opt Freq
 -----------------------------

 -----
 titel
 -----
 Symbolic Z-matrix:
 Charge =  0 Multiplicity = 1

 SCF Done:  E(RB3LYP) =  -423.125494043     A.U. after   12 cycles
 Optimization completed.
    -- Stationary point found.
 Normal termination of Gaussian 09 at Mon Jan 27 23:45:17 2020.

 ----------------------------------------------------------------------
 #N Geom=AllCheck Guess=TCheck SCRF=Check GenChk RB3LYP/6-31G(2df,p) Fr
 eq
 ----------------------------------------------------------------------

 Structure from the checkpoint file:  "/scratch/puck/g09_8859f5f4-2303-4941-8a2f-4ceb32d53dab/Gau-68007.chk"
 -----
 titel
 -----
 Charge =  0 Multiplicity = 1

                         Standard orientation:
 ---------------------------------------------------------------------
 Center     Atomic      Atomic             Coordinates (Angstroms)
 Number     Number       Type             X           Y           Z
 ---------------------------------------------------------------------
      1          6           0       -1.406675    1.544733   -0.874194
      2          6           0       -0.463305    0.442860   -0.496991
      3          6           0        1.029444    0.423696   -0.936944
      4          6           0        1.521010   -1.023999   -0.893801
      5          6           0        0.632905   -1.175814    0.369023
      6          6           0       -0.812143   -1.012688   -0.181433
      7          8           0       -1.847170   -1.161690    0.769074
      8          6           0        0.670856    0.422339    0.517656
      9          8           0        1.108706    1.296138    1.480074
     10          1           0       -1.740348    1.452690   -1.914138
     11          1           0       -2.299570    1.525295   -0.239267
     12          1           0       -0.933875    2.526017   -0.761122
     13          1           0        1.424780    1.256842   -1.505360
     14          1           0        1.297146   -1.685533   -1.738673
     15          1           0        2.588250   -1.074881   -0.661984
     16          1           0        0.836298   -1.919613    1.137229
     17          1           0       -1.085498   -1.669430   -1.014779
     18          1           0       -1.675654   -0.544694    1.489975
     19          1           0        0.463621    1.330974    2.195036
 ---------------------------------------------------------------------

 SCF Done:  E(RB3LYP) =  -423.125494043     A.U. after    1 cycles

 The electronic state is 1-A.
 Alpha  occ. eigenvalues --  -19.16225 -19.13781 -10.23865 -10.22857 -10.19190
 Alpha  occ. eigenvalues --  -10.18860 -10.18787 -10.18456 -10.18120  -1.04615
 Alpha  occ. eigenvalues --   -1.02112  -0.91689  -0.74878  -0.70000  -0.68226
 Alpha  occ. eigenvalues --   -0.61847  -0.57938  -0.53907  -0.49900  -0.48479
 Alpha  occ. eigenvalues --   -0.46407  -0.45072  -0.41917  -0.40971  -0.39704
 Alpha  occ. eigenvalues --   -0.39217  -0.36523  -0.35800  -0.34567  -0.33586
 Alpha  occ. eigenvalues --   -0.30835  -0.25778  -0.24689  -0.23175
 Alpha virt. eigenvalues --    0.04121   0.10043   0.11153   0.11706   0.12195
 Alpha virt. eigenvalues --    0.13011   0.14012   0.14775   0.16068   0.16898
 Alpha virt. eigenvalues --    0.18320   0.18729   0.20637   0.22124   0.23181

 Mulliken charges:
               1
     1  C   -0.516524
     2  C    0.217595
     3  C   -0.156586
     4  C   -0.240909
     5  C   -0.180156
     6  C    0.109413
     7  O   -0.444110
     8  C    0.299219
     9  O   -0.450031
    10  H    0.124739
    11  H    0.118897
    12  H    0.124230
    13  H    0.089970
    14  H    0.090860
    15  H    0.106124
    16  H    0.073368
    17  H    0.078989
    18  H    0.268641
    19  H    0.286271
 Sum of Mulliken charges =   0.00000

 Dipole moment (field-independent basis, Debye):
    X=             -0.0027    Y=              0.7999    Z=              0.5995  Tot=              0.9997
 Quadrupole moment (field-independent basis, Debye-Ang):
   XX=            -58.1359   YY=            -54.8733   ZZ=            -47.8547
   XY=             -5.0323   XZ=             -2.1296   YZ=              1.3069

  Exact polarizability:  77.182  -3.788  75.124  -1.927   0.911  72.966
 Approx polarizability: 111.682   0.395 107.635  -2.231   3.404 113.405

                      1                      2                      3
                      A                      A                      A
 Frequencies --    160.1986               170.2651               183.1091
 Red. masses --      4.5090                 2.2394                 1.1998
 Frc consts  --      0.0682                 0.0382                 0.0237
 IR Inten    --      4.5856                 0.6909                 1.3464

                      4                      5                      6
                      A                      A                      A
 Frequencies --    217.2835               245.6190               298.1336
 Red. masses --      2.6526                 1.1453                 2.0231
 Frc consts  --      0.0738                 0.0407                 0.1059
 IR Inten    --      0.1370                 2.8918                22.4313

                      7                      8                      9
                      A                      A                      A
 Frequencies --    353.9653               359.6015               394.1444
 Red. masses --      1.3161                 3.1788                 3.4783
 Frc consts  --      0.0972                 0.2422                 0.3184
 IR Inten    --    161.5993                 3.1550                 5.8872

                     10                     11                     12
                      A                      A                      A
 Frequencies --    487.9200               533.8845               613.3154
 Red. masses --      3.0722                 3.5788                 4.0529
 Frc consts  --      0.4309                 0.6010                 0.8982
 IR Inten    --      0.3453                 2.5605                 6.0662

                     13                     14                     15
                      A                      A                      A
 Frequencies --    659.8316               741.8200               783.5599
 Red. masses --      4.6478                 3.1920                 3.3543
 Frc consts  --      1.1922                 1.0349                 1.2134
 IR Inten    --      6.4773                 3.1297                 5.8494

                     16                     17                     18
                      A                      A                      A
 Frequencies --    872.3854               885.2268               909.3513
 Red. masses --      3.0204                 2.4946                 1.7908
 Frc consts  --      1.3544                 1.1518                 0.8725
 IR Inten    --     24.1283                 2.0252                 7.6109

                     19                     20                     21
                      A                      A                      A
 Frequencies --    928.1315               970.0539               977.9449
 Red. masses --      1.8382                 1.4721                 1.7249
 Frc consts  --      0.9330                 0.8162                 0.9719
 IR Inten    --      1.8191                 5.5713                 0.9640

                     22                     23                     24
                      A                      A                      A
 Frequencies --   1033.9130              1046.0798              1082.4346
 Red. masses --      2.0578                 2.0474                 2.3020
 Frc consts  --      1.2961                 1.3200                 1.5891
 IR Inten    --      4.1449                15.9152                66.8022

                     25                     26                     27
                      A                      A                      A
 Frequencies --   1097.1285              1126.8759              1142.4957
 Red. masses --      1.7773                 1.5040                 1.8101
 Frc consts  --      1.2605                 1.1253                 1.3921
 IR Inten    --      3.5077                19.4239                24.1037

                     28                     29                     30
                      A                      A                      A
 Frequencies --   1192.6253              1207.3260              1231.1154
 Red. masses --      1.9887                 1.8816                 1.9118
 Frc consts  --      1.6666                 1.6160                 1.7073
 IR Inten    --      0.9908                 7.0302                30.1853

                     31                     32                     33
                      A                      A                      A
 Frequencies --   1245.3945              1266.4713              1285.7836
 Red. masses --      1.6647                 1.4296                 1.6815
 Frc consts  --      1.5213                 1.3510                 1.6378
 IR Inten    --     11.4449                53.3523                 3.9235

                     34                     35                     36
                      A                      A                      A
 Frequencies --   1294.4826              1364.5107              1413.9167
 Red. masses --      1.7302                 2.1517                 1.3822
 Frc consts  --      1.7082                 2.3604                 1.6280
 IR Inten    --    114.8192                 8.0904                 0.5936

                     37                     38                     39
                      A                      A                      A
 Frequencies --   1429.2080              1475.9092              1486.4207
 Red. masses --      1.3983                 1.9534                 1.1839
 Frc consts  --      1.6829                 2.5070                 1.5412
 IR Inten    --     55.6495                17.7805                16.8956

                     40                     41                     42
                      A                      A                      A
 Frequencies --   1499.6598              1509.5123              3023.6745
 Red. masses --      1.0857                 1.3690                 1.0352
 Frc consts  --      1.4386                 1.8379                 5.5761
 IR Inten    --      6.4108                19.1760                41.3580

                     43                     44                     45
                      A                      A                      A
 Frequencies --   3032.4363              3053.5278              3082.9898
 Red. masses --      1.0616                 1.0838                 1.1007
 Frc consts  --      5.7516                 5.9540                 6.1639
 IR Inten    --     41.9724                57.5712                20.7359

                     46                     47                     48
                      A                      A                      A
 Frequencies --   3095.7380              3096.5924              3136.9933
 Red. masses --      1.1005                 1.1041                 1.0915
 Frc consts  --      6.2142                 6.2379                 6.3285
 IR Inten    --     13.4691                31.0109                27.6415

                     49                     50                     51
                      A                      A                      A
 Frequencies --   3191.0799              3785.3632              3790.4850
 Red. masses --      1.0929                 1.0659                 1.0655
 Frc consts  --      6.5569                 8.9984                 9.0199
 IR Inten    --     13.0997                 5.0453                16.7113

 - Thermochemistry -
 -------------------
 Temperature   298.150 Kelvin.  Pressure   1.00000 Atm.
 Atom     1 has atomic number  6 and mass  12.00000

 Molecular mass:   126.06808 amu.
 Principal axes and moments of inertia in atomic units:
                           1         2         3
     Eigenvalues --   889.747281028.108371193.59729
           X            0.96520  -0.26141  -0.00711
           Y            0.26104   0.96475  -0.03344
           Z            0.01560   0.03042   0.99942
 This molecule is an asymmetric top.
 Rotational symmetry number  1.
 Warning -- assumption of classical behavior for rotation
           may cause significant error
 Rotational temperatures (Kelvin)      0.09735     0.08425     0.07257
 Rotational constants (GHZ):           2.02838     1.75540     1.51202
 Zero-point vibrational energy     415498.3 (Joules/Mol)
                                   99.30647 (Kcal/Mol)
 Warning -- explicit consideration of  12 degrees of freedom as
           vibrations may cause significant error
 Vibrational temperatures:    230.49   244.97   263.45   312.62   353.39
          (Kelvin)            428.95   509.28   517.39   567.09   702.01
                              768.14   882.42   949.35  1067.31  1127.37
                             1255.17  1273.64  1308.35  1335.37  1395.69
                             1407.04  1487.57  1505.07  1557.38  1578.52
                             1621.32  1643.79  1715.92  1737.07  1771.30
                             1791.84  1822.17  1849.95  1862.47  1963.22
                             2034.31  2056.31  2123.50  2138.63  2157.67
                             2171.85  4350.39  4362.99  4393.34  4435.73
                             4454.07  4455.30  4513.43  4591.25  5446.29
                             5453.66

 Zero-point correction=                           0.158255 (Hartree/Particle)
 Thermal correction to Energy=                    0.166877
 Thermal correction to Enthalpy=                  0.167821
 Thermal correction to Gibbs Free Energy=         0.125705
 Sum of electronic and zero-point Energies=           -422.967239
 Sum of electronic and thermal Energies=              -422.958617
 Sum of electronic and thermal Enthalpies=            -422.957673
 Sum of electronic and thermal Free Energies=         -422.999789

                     E (Thermal)             CV                S
                      KCal/Mol        Cal/Mol-Kelvin    Cal/Mol-Kelvin
 Total                  104.717             33.698             88.640
 Electronic               0.000              0.000              0.000
 Translational            0.889              2.981             40.409
 Rotational               0.889              2.981             28.481
 Vibrational            102.939             27.736             19.750
 Vibration     1          0.622              1.891              2.547
 Vibration     2          0.625              1.879              2.433
 Vibration     3          0.631              1.863              2.296
 Vibration     4          0.646              1.815              1.982
 Vibration     5          0.660              1.770              1.762
 Vibration     6          0.691              1.677              1.427
 Vibration     7          0.730              1.567              1.148
 Vibration     8          0.734              1.556              1.124
 Vibration     9          0.761              1.483              0.984
 Vibration    10          0.844              1.277              0.689
 Vibration    11          0.889              1.175              0.579
 Vibration    12          0.973              1.004              0.427

 Normal termination of Gaussian 09 at Tue Jan 28 00:30:32 2020.
