 Gaussian 09, Revision D.01,
 Gaussian 09:  ES64L-G09RevD.01 24-Apr-2013

 -----------------------------
 # b3lyp 6-31G(2df,p) opt Freq
 -----------------------------

 -----
 titel
 -----
 Symbolic Z-matrix:
 Charge =  0 Multiplicity = 1

 SCF Done:  E(RB3LYP) =  -423.096662523     A.U. after   13 cycles
 Optimization completed.
    -- Stationary point found.
 Normal termination of Gaussian 09 at Tue Jan 28 02:06:02 2020.

 ----------------------------------------------------------------------
 #N Geom=AllCheck Guess=TCheck SCRF=Check GenChk RB3LYP/6-31G(2df,p) Fr
 eq
 ----------------------------------------------------------------------

 Structure from the checkpoint file:  "/scratch/puck/g09_a3c6b376-cd76-4804-a349-e33e9e5213ef/Gau-111974.chk"
 -----
 titel
 -----
 Charge =  0 Multiplicity = 1

                         Standard orientation:
 ---------------------------------------------------------------------
 Center     Atomic      Atomic             Coordinates (Angstroms)
 Number     Number       Type             X           Y           Z
 ---------------------------------------------------------------------
      1          6           0       -3.177380   -0.581135   -0.044150
      2          6           0       -1.802123   -0.130249    0.371774
      3          8           0       -1.442412    1.223111    0.058930
      4          6           0       -0.740359    0.166570   -0.600881
      5          6           0        0.697617    0.008931   -0.257906
      6          6           0        1.689089   -1.109983   -0.682539
      7          6           0        2.346667   -0.223041    0.400173
      8          6           0        1.855642    1.044006   -0.334000
      9          8           0        1.072058   -0.247877    1.157812
     10          1           0       -3.934186   -0.179510    0.637600
     11          1           0       -3.411407   -0.238437   -1.055742
     12          1           0       -3.247538   -1.673833   -0.017189
     13          1           0       -1.471923   -0.443522    1.361725
     14          1           0       -0.961567    0.068949   -1.665636
     15          1           0        1.416970   -2.114809   -0.357213
     16          1           0        2.097566   -1.079302   -1.695900
     17          1           0        3.263030   -0.386861    0.965754
     18          1           0        1.718099    1.924089    0.293617
     19          1           0        2.278862    1.270768   -1.315772
 ---------------------------------------------------------------------

 SCF Done:  E(RB3LYP) =  -423.096662523     A.U. after    1 cycles

 The electronic state is 1-A.
 Alpha  occ. eigenvalues --  -19.14677 -19.13036 -10.25431 -10.25018 -10.23772
 Alpha  occ. eigenvalues --  -10.23688 -10.19543 -10.19187 -10.18362  -1.07092
 Alpha  occ. eigenvalues --   -1.05214  -0.79433  -0.74485  -0.71208  -0.68133
 Alpha  occ. eigenvalues --   -0.61301  -0.59376  -0.54275  -0.52466  -0.47592
 Alpha  occ. eigenvalues --   -0.45308  -0.44911  -0.43884  -0.41327  -0.39564
 Alpha  occ. eigenvalues --   -0.38685  -0.37645  -0.35194  -0.34316  -0.33046
 Alpha  occ. eigenvalues --   -0.32360  -0.28841  -0.26317  -0.23806
 Alpha virt. eigenvalues --    0.08395   0.09484   0.10837   0.11427   0.11884
 Alpha virt. eigenvalues --    0.12611   0.12849   0.14607   0.15405   0.15912
 Alpha virt. eigenvalues --    0.16783   0.17320   0.18023   0.18093   0.19679

 Mulliken charges:
               1
     1  C   -0.420519
     2  C    0.087621
     3  O   -0.256893
     4  C   -0.154442
     5  C    0.448350
     6  C   -0.262556
     7  C    0.045569
     8  C   -0.254628
     9  O   -0.338657
    10  H    0.131894
    11  H    0.125488
    12  H    0.124240
    13  H    0.115808
    14  H    0.091157
    15  H    0.108300
    16  H    0.095803
    17  H    0.098820
    18  H    0.120206
    19  H    0.094439
 Sum of Mulliken charges =   0.00000

 Dipole moment (field-independent basis, Debye):
    X=              0.6171    Y=             -1.4894    Z=             -1.7514  Tot=              2.3805
 Quadrupole moment (field-independent basis, Debye-Ang):
   XX=            -47.3352   YY=            -55.1508   ZZ=            -53.3327
   XY=              3.1102   XZ=             -1.2956   YZ=             -0.0764

  Exact polarizability:  92.852   2.573  68.910  -2.837  -0.381  68.248
 Approx polarizability: 115.836   1.021 105.987  -6.186  -1.261 110.152

                      1                      2                      3
                      A                      A                      A
 Frequencies --     50.3641               120.7098               151.0698
 Red. masses --      3.6090                 3.3821                 3.2788
 Frc consts  --      0.0054                 0.0290                 0.0441
 IR Inten    --      2.4761                 2.0813                 0.5660

                      4                      5                      6
                      A                      A                      A
 Frequencies --    202.6166               284.9232               370.4595
 Red. masses --      1.1519                 3.1757                 3.0846
 Frc consts  --      0.0279                 0.1519                 0.2494
 IR Inten    --      0.3087                 0.3530                 0.8678

                      7                      8                      9
                      A                      A                      A
 Frequencies --    380.5880               481.0228               522.5317
 Red. masses --      3.3596                 4.1753                 1.8391
 Frc consts  --      0.2867                 0.5692                 0.2959
 IR Inten    --      4.9025                 8.9505                 2.5993

                     10                     11                     12
                      A                      A                      A
 Frequencies --    605.1754               692.3890               749.8177
 Red. masses --      2.7037                 5.0919                 3.6849
 Frc consts  --      0.5834                 1.4382                 1.2206
 IR Inten    --      7.7979                28.1573                 9.1684

                     13                     14                     15
                      A                      A                      A
 Frequencies --    792.3389               807.1527               880.1600
 Red. masses --      3.5184                 2.7582                 2.6422
 Frc consts  --      1.3014                 1.0587                 1.2060
 IR Inten    --      5.1271                 1.7290                20.8207

                     16                     17                     18
                      A                      A                      A
 Frequencies --    907.7451               932.8786               948.8854
 Red. masses --      3.9146                 2.3535                 1.9952
 Frc consts  --      1.9005                 1.2067                 1.0584
 IR Inten    --     10.8430                15.7344                 9.1782

                     19                     20                     21
                      A                      A                      A
 Frequencies --    967.9691               986.9170              1007.0486
 Red. masses --      3.3017                 1.3035                 2.7309
 Frc consts  --      1.8227                 0.7480                 1.6318
 IR Inten    --     34.3608                 1.8560                 0.3280

                     22                     23                     24
                      A                      A                      A
 Frequencies --   1043.4636              1062.8360              1094.2864
 Red. masses --      1.4136                 1.3961                 1.4512
 Frc consts  --      0.9068                 0.9292                 1.0239
 IR Inten    --     15.7424                 2.2558                 4.8615

                     25                     26                     27
                      A                      A                      A
 Frequencies --   1103.0499              1127.5697              1157.6969
 Red. masses --      1.6919                 1.5774                 1.5514
 Frc consts  --      1.2129                 1.1816                 1.2250
 IR Inten    --      3.2257                 1.1787                 1.6600

                     28                     29                     30
                      A                      A                      A
 Frequencies --   1164.8217              1178.5879              1213.6553
 Red. masses --      1.5840                 1.5961                 1.6345
 Frc consts  --      1.2663                 1.3063                 1.4185
 IR Inten    --      2.0846                 1.3945                27.0386

                     31                     32                     33
                      A                      A                      A
 Frequencies --   1237.4999              1240.6441              1278.3365
 Red. masses --      1.5340                 1.7290                 1.6329
 Frc consts  --      1.3841                 1.5680                 1.5722
 IR Inten    --      1.7370                 2.4141                 4.8184

                     34                     35                     36
                      A                      A                      A
 Frequencies --   1305.7732              1372.3592              1409.0043
 Red. masses --      1.8537                 1.5644                 1.2866
 Frc consts  --      1.8622                 1.7359                 1.5050
 IR Inten    --     22.5460                 1.3728                 2.9212

                     37                     38                     39
                      A                      A                      A
 Frequencies --   1466.7703              1473.7667              1488.9179
 Red. masses --      1.1284                 1.2803                 1.1366
 Frc consts  --      1.4303                 1.6384                 1.4846
 IR Inten    --      1.8171                 6.0067                 8.4328

                     40                     41                     42
                      A                      A                      A
 Frequencies --   1503.3507              1520.0066              3036.6176
 Red. masses --      1.3121                 1.7528                 1.0353
 Frc consts  --      1.7471                 2.3860                 5.6246
 IR Inten    --      4.9729                 7.2219                20.0951

                     43                     44                     45
                      A                      A                      A
 Frequencies --   3060.2589              3069.8134              3091.4667
 Red. masses --      1.0570                 1.0565                 1.0868
 Frc consts  --      5.8325                 5.8662                 6.1195
 IR Inten    --     28.0082                31.6378                21.7670

                     46                     47                     48
                      A                      A                      A
 Frequencies --   3102.4415              3112.5779              3128.9822
 Red. masses --      1.1007                 1.0956                 1.0942
 Frc consts  --      6.2422                 6.2536                 6.3119
 IR Inten    --     17.0993                 2.2408                55.2615

                     49                     50                     51
                      A                      A                      A
 Frequencies --   3132.5912              3147.2998              3159.1509
 Red. masses --      1.0933                 1.1096                 1.1092
 Frc consts  --      6.3212                 6.4760                 6.5226
 IR Inten    --     26.4602                21.4489                20.2683

 - Thermochemistry -
 -------------------
 Temperature   298.150 Kelvin.  Pressure   1.00000 Atm.
 Atom     1 has atomic number  6 and mass  12.00000

 Molecular mass:   126.06808 amu.
 Principal axes and moments of inertia in atomic units:
                           1         2         3
     Eigenvalues --   432.596541719.445531801.62400
           X            0.99978   0.02016  -0.00628
           Y           -0.02001   0.99950   0.02440
           Z            0.00677  -0.02427   0.99968
 This molecule is an asymmetric top.
 Rotational symmetry number  1.
 Rotational temperatures (Kelvin)      0.20022     0.05037     0.04808
 Rotational constants (GHZ):           4.17188     1.04961     1.00173
 Zero-point vibrational energy     414663.7 (Joules/Mol)
                                   99.10701 (Kcal/Mol)
 Warning -- explicit consideration of  10 degrees of freedom as
           vibrations may cause significant error
 Vibrational temperatures:     72.46   173.67   217.36   291.52   409.94
          (Kelvin)            533.01   547.58   692.08   751.81   870.71
                              996.19  1078.82  1140.00  1161.31  1266.35
                             1306.04  1342.20  1365.23  1392.69  1419.95
                             1448.92  1501.31  1529.18  1574.43  1587.04
                             1622.32  1665.67  1675.92  1695.72  1746.18
                             1780.48  1785.01  1839.24  1878.71  1974.52
                             2027.24  2110.35  2120.42  2142.22  2162.98
                             2186.95  4369.01  4403.02  4416.77  4447.93
                             4463.72  4478.30  4501.90  4507.09  4528.26
                             4545.31

 Zero-point correction=                           0.157937 (Hartree/Particle)
 Thermal correction to Energy=                    0.166194
 Thermal correction to Enthalpy=                  0.167138
 Thermal correction to Gibbs Free Energy=         0.124535
 Sum of electronic and zero-point Energies=           -422.938725
 Sum of electronic and thermal Energies=              -422.930469
 Sum of electronic and thermal Enthalpies=            -422.929525
 Sum of electronic and thermal Free Energies=         -422.972128

                     E (Thermal)             CV                S
                      KCal/Mol        Cal/Mol-Kelvin    Cal/Mol-Kelvin
 Total                  104.288             31.454             89.666
 Electronic               0.000              0.000              0.000
 Translational            0.889              2.981             40.409
 Rotational               0.889              2.981             28.684
 Vibrational            102.511             25.492             20.573
 Vibration     1          0.595              1.977              4.803
 Vibration     2          0.609              1.932              3.089
 Vibration     3          0.618              1.901              2.659
 Vibration     4          0.639              1.836              2.109
 Vibration     5          0.683              1.702              1.504
 Vibration     6          0.742              1.533              1.078
 Vibration     7          0.750              1.512              1.037
 Vibration     8          0.837              1.292              0.707
 Vibration     9          0.877              1.200              0.604
 Vibration    10          0.964              1.021              0.441

 Optimization completed.
    -- Stationary point found.
 Normal termination of Gaussian 09 at Tue Jan 28 02:45:35 2020.
