 Gaussian 09, Revision D.01,
 Gaussian 09:  ES64L-G09RevD.01 24-Apr-2013

 -----------------------------
 # b3lyp 6-31G(2df,p) opt Freq
 -----------------------------

 -----
 titel
 -----
 Symbolic Z-matrix:
 Charge =  0 Multiplicity = 1

 SCF Done:  E(RB3LYP) =  -423.160765101     A.U. after   14 cycles
 Optimization completed.
    -- Stationary point found.
 Normal termination of Gaussian 09 at Tue Jan 28 02:09:58 2020.

 ----------------------------------------------------------------------
 #N Geom=AllCheck Guess=TCheck SCRF=Check GenChk RB3LYP/6-31G(2df,p) Fr
 eq
 ----------------------------------------------------------------------

 Structure from the checkpoint file:  "/scratch/puck/g09_5d019db6-2bc8-405f-9de3-0669fc383e30/Gau-194127.chk"
 -----
 titel
 -----
 Charge =  0 Multiplicity = 1

                         Standard orientation:
 ---------------------------------------------------------------------
 Center     Atomic      Atomic             Coordinates (Angstroms)
 Number     Number       Type             X           Y           Z
 ---------------------------------------------------------------------
      1          8           0       -2.708068   -0.738838   -0.662331
      2          6           0       -1.681385    0.133846   -0.278900
      3          6           0       -1.404151    0.368003    1.186335
      4          6           0       -0.493297   -0.522223    0.356058
      5          6           0        0.933875   -0.197368    0.024607
      6          6           0        2.032147   -1.035376    0.686335
      7          6           0        1.743164   -1.236993   -0.758871
      8          6           0        1.338972    1.200032   -0.256805
      9          8           0        0.613367    2.165865   -0.275424
     10          1           0       -3.543790   -0.273869   -0.549050
     11          1           0       -1.500244    0.970121   -0.948570
     12          1           0       -1.049467    1.348949    1.474847
     13          1           0       -2.046681   -0.133695    1.901910
     14          1           0       -0.651549   -1.583978    0.526950
     15          1           0        2.954250   -0.536536    0.965800
     16          1           0        1.690507   -1.777013    1.399098
     17          1           0        2.463504   -0.878220   -1.486586
     18          1           0        1.195078   -2.119183   -1.068757
     19          1           0        2.430045    1.307679   -0.466151
 ---------------------------------------------------------------------

 SCF Done:  E(RB3LYP) =  -423.160765101     A.U. after    1 cycles

 The electronic state is 1-A.
 Alpha  occ. eigenvalues --  -19.13665 -19.13620 -10.27090 -10.22652 -10.21569
 Alpha  occ. eigenvalues --  -10.20691 -10.20662 -10.19422 -10.17642  -1.04458
 Alpha  occ. eigenvalues --   -1.02054  -0.88782  -0.83493  -0.67337  -0.62627
 Alpha  occ. eigenvalues --   -0.61989  -0.59607  -0.54873  -0.51534  -0.49082
 Alpha  occ. eigenvalues --   -0.48766  -0.45287  -0.42815  -0.42414  -0.40472
 Alpha  occ. eigenvalues --   -0.38656  -0.38292  -0.36205  -0.34248  -0.32750
 Alpha  occ. eigenvalues --   -0.30888  -0.25859  -0.25329  -0.24919
 Alpha virt. eigenvalues --   -0.01918   0.07770   0.09143   0.09789   0.12144
 Alpha virt. eigenvalues --    0.12623   0.13251   0.14436   0.15602   0.16639
 Alpha virt. eigenvalues --    0.18459   0.20290   0.20884   0.21201   0.23805

 Mulliken charges:
               1
     1  O   -0.427969
     2  C    0.078969
     3  C   -0.344466
     4  C   -0.107861
     5  C    0.267022
     6  C   -0.305993
     7  C   -0.304363
     8  C    0.109323
     9  O   -0.283514
    10  H    0.285937
    11  H    0.108395
    12  H    0.133629
    13  H    0.106863
    14  H    0.091462
    15  H    0.124777
    16  H    0.132743
    17  H    0.125592
    18  H    0.137785
    19  H    0.071671
 Sum of Mulliken charges =   0.00000

 Dipole moment (field-independent basis, Debye):
    X=              0.8542    Y=             -1.3901    Z=              0.6149  Tot=              1.7436
 Quadrupole moment (field-independent basis, Debye-Ang):
   XX=            -45.0803   YY=            -59.0914   ZZ=            -53.0190
   XY=             -3.3903   XZ=             -1.4366   YZ=             -0.7645

  Exact polarizability:  89.425  -5.349  77.333  -1.814   0.020  64.894
 Approx polarizability: 119.259 -13.301 123.686  -0.473   0.525  98.561

                      1                      2                      3
                      A                      A                      A
 Frequencies --     71.0537               133.8352               155.5194
 Red. masses --      3.7354                 3.5360                 3.2519
 Frc consts  --      0.0111                 0.0373                 0.0463
 IR Inten    --      2.2130                 2.9914                 2.1938

                      4                      5                      6
                      A                      A                      A
 Frequencies --    181.6472               258.7155               301.8015
 Red. masses --      4.5922                 3.9162                 1.2000
 Frc consts  --      0.0893                 0.1544                 0.0644
 IR Inten    --      8.2761                 2.2104                83.7886

                      7                      8                      9
                      A                      A                      A
 Frequencies --    335.9709               346.2123               405.0598
 Red. masses --      2.7619                 2.2342                 3.0705
 Frc consts  --      0.1837                 0.1578                 0.2968
 IR Inten    --      4.0403                 6.3282                15.8634

                     10                     11                     12
                      A                      A                      A
 Frequencies --    419.4818               496.2668               536.6476
 Red. masses --      2.8048                 2.5221                 5.4461
 Frc consts  --      0.2908                 0.3660                 0.9241
 IR Inten    --     14.5484                 0.6048                 9.5526

                     13                     14                     15
                      A                      A                      A
 Frequencies --    761.1617               784.0861               811.4484
 Red. masses --      1.7419                 1.1518                 4.5815
 Frc consts  --      0.5946                 0.4172                 1.7774
 IR Inten    --      5.0454                 4.1497                 5.1209

                     16                     17                     18
                      A                      A                      A
 Frequencies --    827.4434               908.1903               919.1169
 Red. masses --      1.9612                 1.9984                 1.4779
 Frc consts  --      0.7911                 0.9711                 0.7356
 IR Inten    --      4.5419                19.9377                28.2288

                     19                     20                     21
                      A                      A                      A
 Frequencies --    929.1611               969.3027               987.5845
 Red. masses --      2.6903                 2.9796                 1.7896
 Frc consts  --      1.3684                 1.6494                 1.0284
 IR Inten    --     39.0134                19.2327                 0.5839

                     22                     23                     24
                      A                      A                      A
 Frequencies --   1030.0508              1043.4914              1062.0164
 Red. masses --      1.6731                 1.6388                 1.2875
 Frc consts  --      1.0459                 1.0514                 0.8556
 IR Inten    --      4.8312                 0.1100                 2.2480

                     25                     26                     27
                      A                      A                      A
 Frequencies --   1069.8379              1086.7243              1114.1104
 Red. masses --      1.5075                 1.4445                 1.2781
 Frc consts  --      1.0166                 1.0051                 0.9347
 IR Inten    --     11.0738                 1.7042                 5.8789

                     28                     29                     30
                      A                      A                      A
 Frequencies --   1118.4199              1178.0613              1196.1807
 Red. masses --      1.3888                 2.1711                 1.3168
 Frc consts  --      1.0236                 1.7753                 1.1101
 IR Inten    --     24.3360                28.8570                 0.0035

                     31                     32                     33
                      A                      A                      A
 Frequencies --   1223.6260              1250.0455              1293.3797
 Red. masses --      2.0439                 2.1686                 1.2388
 Frc consts  --      1.8031                 1.9965                 1.2209
 IR Inten    --     45.6505                 2.1576                54.4624

                     34                     35                     36
                      A                      A                      A
 Frequencies --   1360.8229              1376.4621              1424.8768
 Red. masses --      1.4271                 2.6973                 1.2967
 Frc consts  --      1.5570                 3.0110                 1.5511
 IR Inten    --     20.6832                 3.5403                 5.4606

                     37                     38                     39
                      A                      A                      A
 Frequencies --   1453.5463              1467.8446              1495.3604
 Red. masses --      1.2296                 1.0845                 1.3936
 Frc consts  --      1.5306                 1.3767                 1.8361
 IR Inten    --      2.9873                 3.6477                 4.6362

                     40                     41                     42
                      A                      A                      A
 Frequencies --   1500.0272              1807.7544              2846.1168
 Red. masses --      1.8529                10.4593                 1.0816
 Frc consts  --      2.4565                20.1388                 5.1621
 IR Inten    --      7.5180               223.6847               116.7893

                     43                     44                     45
                      A                      A                      A
 Frequencies --   3135.3451              3136.3315              3139.8932
 Red. masses --      1.0511                 1.0639                 1.0727
 Frc consts  --      6.0880                 6.1661                 6.2307
 IR Inten    --     11.9056                 3.4045                10.7971

                     46                     47                     48
                      A                      A                      A
 Frequencies --   3144.0680              3150.6637              3216.8259
 Red. masses --      1.0652                 1.0864                 1.1174
 Frc consts  --      6.2041                 6.3542                 6.8127
 IR Inten    --      4.7458                16.1885                 0.1302

                     49                     50                     51
                      A                      A                      A
 Frequencies --   3230.9949              3243.9361              3803.1204
 Red. masses --      1.1158                 1.1156                 1.0661
 Frc consts  --      6.8627                 6.9165                 9.0850
 IR Inten    --      7.5590                 3.5990                19.8189

 - Thermochemistry -
 -------------------
 Temperature   298.150 Kelvin.  Pressure   1.00000 Atm.
 Atom     1 has atomic number  8 and mass  15.99491

 Molecular mass:   126.06808 amu.
 Principal axes and moments of inertia in atomic units:
                           1         2         3
     Eigenvalues --   743.258891437.854391790.33247
           X            0.99935  -0.03439  -0.01098
           Y            0.03440   0.99941   0.00111
           Z            0.01093  -0.00148   0.99994
 This molecule is an asymmetric top.
 Rotational symmetry number  1.
 Warning -- assumption of classical behavior for rotation
           may cause significant error
 Rotational temperatures (Kelvin)      0.11653     0.06024     0.04838
 Rotational constants (GHZ):           2.42815     1.25516     1.00805
 Zero-point vibrational energy     413546.9 (Joules/Mol)
                                   98.84008 (Kcal/Mol)
 Warning -- explicit consideration of  12 degrees of freedom as
           vibrations may cause significant error
 Vibrational temperatures:    102.23   192.56   223.76   261.35   372.23
          (Kelvin)            434.22   483.39   498.12   582.79   603.54
                              714.02   772.12  1095.14  1128.12  1167.49
                             1190.51  1306.68  1322.40  1336.85  1394.61
                             1420.91  1482.01  1501.35  1528.00  1539.26
                             1563.55  1602.95  1609.15  1694.97  1721.04
                             1760.52  1798.53  1860.88  1957.92  1980.42
                             2050.08  2091.33  2111.90  2151.49  2158.20
                             2600.95  4094.92  4511.06  4512.48  4517.60
                             4523.61  4533.10  4628.29  4648.68  4667.29
                             5471.84

 Zero-point correction=                           0.157512 (Hartree/Particle)
 Thermal correction to Energy=                    0.166554
 Thermal correction to Enthalpy=                  0.167498
 Thermal correction to Gibbs Free Energy=         0.123705
 Sum of electronic and zero-point Energies=           -423.003253
 Sum of electronic and thermal Energies=              -422.994211
 Sum of electronic and thermal Enthalpies=            -422.993267
 Sum of electronic and thermal Free Energies=         -423.037061

                     E (Thermal)             CV                S
                      KCal/Mol        Cal/Mol-Kelvin    Cal/Mol-Kelvin
 Total                  104.514             34.137             92.171
 Electronic               0.000              0.000              0.000
 Translational            0.889              2.981             40.409
 Rotational               0.889              2.981             29.038
 Vibrational            102.737             28.175             22.724
 Vibration     1          0.598              1.968              4.124
 Vibration     2          0.613              1.920              2.890
 Vibration     3          0.620              1.897              2.604
 Vibration     4          0.630              1.865              2.311
 Vibration     5          0.668              1.748              1.670
 Vibration     6          0.694              1.670              1.407
 Vibration     7          0.717              1.604              1.231
 Vibration     8          0.724              1.583              1.183
 Vibration     9          0.770              1.459              0.944
 Vibration    10          0.782              1.428              0.894
 Vibration    11          0.852              1.258              0.668
 Vibration    12          0.892              1.169              0.573

 Optimization completed.
    -- Stationary point found.
 Normal termination of Gaussian 09 at Tue Jan 28 02:50:16 2020.
