 Gaussian 09, Revision D.01,
 Gaussian 09:  ES64L-G09RevD.01 24-Apr-2013

 -----------------------------
 # b3lyp 6-31G(2df,p) opt Freq
 -----------------------------

 -----
 titel
 -----
 Symbolic Z-matrix:
 Charge =  0 Multiplicity = 1

 SCF Done:  E(RB3LYP) =  -423.220174349     A.U. after   13 cycles
 Optimization completed.
    -- Stationary point found.
 Normal termination of Gaussian 09 at Mon Jan 27 12:21:07 2020.

 ----------------------------------------------------------------------
 #N Geom=AllCheck Guess=TCheck SCRF=Check GenChk RB3LYP/6-31G(2df,p) Fr
 eq
 ----------------------------------------------------------------------

 Structure from the checkpoint file:  "/scratch/puck/g09_ac119878-cf75-4d35-b868-5e0d9a3d0cb7/Gau-152597.chk"
 -----
 titel
 -----
 Charge =  0 Multiplicity = 1

                         Standard orientation:
 ---------------------------------------------------------------------
 Center     Atomic      Atomic             Coordinates (Angstroms)
 Number     Number       Type             X           Y           Z
 ---------------------------------------------------------------------
      1          6           0        1.791162    0.780895   -0.077761
      2          6           0        1.748485   -0.766370   -0.251170
      3          6           0        0.358064   -1.196734    0.231044
      4          8           0       -0.614085   -1.159860   -0.837963
      5          6           0       -1.453827   -0.050893   -0.530551
      6          6           0       -0.677257    1.251856   -0.786654
      7          6           0        0.374043    1.182343    0.368117
      8          6           0       -0.177916   -0.055160    1.136888
      9          8           0       -1.579334   -0.075052    0.878934
     10          1           0        2.517572    1.055128    0.694300
     11          1           0        2.094859    1.299784   -0.990834
     12          1           0        1.891444   -1.082782   -1.286884
     13          1           0        2.526045   -1.252731    0.346174
     14          1           0        0.335516   -2.193508    0.680071
     15          1           0       -2.420193   -0.176973   -1.017345
     16          1           0       -0.226439    1.270113   -1.781289
     17          1           0       -1.337499    2.116933   -0.682728
     18          1           0        0.365808    2.093899    0.967249
     19          1           0        0.023716   -0.126183    2.204026
 ---------------------------------------------------------------------

 SCF Done:  E(RB3LYP) =  -423.220174349     A.U. after    1 cycles

 The electronic state is 1-A.
 Alpha  occ. eigenvalues --  -19.14341 -19.13566 -10.27105 -10.23154 -10.22782
 Alpha  occ. eigenvalues --  -10.19073 -10.18425 -10.18108 -10.18106  -1.09088
 Alpha  occ. eigenvalues --   -0.98624  -0.82934  -0.76864  -0.70829  -0.67085
 Alpha  occ. eigenvalues --   -0.60229  -0.57160  -0.56011  -0.53787  -0.47371
 Alpha  occ. eigenvalues --   -0.47254  -0.44677  -0.43597  -0.40235  -0.39965
 Alpha  occ. eigenvalues --   -0.38488  -0.35677  -0.34983  -0.33589  -0.33244
 Alpha  occ. eigenvalues --   -0.32237  -0.31306  -0.26419  -0.25106
 Alpha virt. eigenvalues --    0.07675   0.09175   0.11295   0.12844   0.13998
 Alpha virt. eigenvalues --    0.14833   0.15203   0.16163   0.16640   0.17270
 Alpha virt. eigenvalues --    0.18237   0.18947   0.20377   0.20594   0.22552

 Mulliken charges:
               1
     1  C   -0.230881
     2  C   -0.230953
     3  C    0.104502
     4  O   -0.289163
     5  C    0.176883
     6  C   -0.247178
     7  C   -0.028516
     8  C    0.035710
     9  O   -0.246920
    10  H    0.099083
    11  H    0.104325
    12  H    0.116543
    13  H    0.099539
    14  H    0.077884
    15  H    0.089744
    16  H    0.105848
    17  H    0.105245
    18  H    0.072645
    19  H    0.085660
 Sum of Mulliken charges =   0.00000

 Dipole moment (field-independent basis, Debye):
    X=              1.5074    Y=              1.1021    Z=              0.2448  Tot=              1.8833
 Quadrupole moment (field-independent basis, Debye-Ang):
   XX=            -53.3844   YY=            -53.4918   ZZ=            -52.6373
   XY=             -1.8250   XZ=              2.9939   YZ=             -1.9328

  Exact polarizability:  77.540  -2.465  70.988   3.626  -1.869  67.000
 Approx polarizability: 108.921  -2.684 101.897   4.178  -0.399 105.235

                      1                      2                      3
                      A                      A                      A
 Frequencies --    104.4328               318.6380               332.9865
 Red. masses --      2.0956                 2.6926                 2.2350
 Frc consts  --      0.0135                 0.1611                 0.1460
 IR Inten    --      0.6004                 0.1387                 1.1892

                      4                      5                      6
                      A                      A                      A
 Frequencies --    429.0782               556.6817               580.4401
 Red. masses --      2.4806                 5.8164                 5.5833
 Frc consts  --      0.2691                 1.0620                 1.1083
 IR Inten    --      1.5963                 6.6915                 1.8883

                      7                      8                      9
                      A                      A                      A
 Frequencies --    635.1778               702.9594               763.2494
 Red. masses --      5.7501                 3.1767                 1.8079
 Frc consts  --      1.3668                 0.9249                 0.6205
 IR Inten    --      7.1013                 1.1919                 1.1955

                     10                     11                     12
                      A                      A                      A
 Frequencies --    810.3004               815.6753               844.0255
 Red. masses --      4.6070                 3.0894                 2.6436
 Frc consts  --      1.7822                 1.2110                 1.1096
 IR Inten    --      1.6013                 6.0441                 5.2910

                     13                     14                     15
                      A                      A                      A
 Frequencies --    864.5397               891.2172               895.5369
 Red. masses --      2.8058                 2.8189                 3.8114
 Frc consts  --      1.2356                 1.3192                 1.8010
 IR Inten    --     25.5575                27.7611                 1.2289

                     16                     17                     18
                      A                      A                      A
 Frequencies --    929.2869               971.5417               982.6373
 Red. masses --      2.0666                 2.1667                 2.0209
 Frc consts  --      1.0515                 1.2050                 1.1497
 IR Inten    --     10.7497                36.1879                18.6843

                     19                     20                     21
                      A                      A                      A
 Frequencies --    995.4902              1027.3353              1044.7893
 Red. masses --      2.7675                 2.1467                 3.4106
 Frc consts  --      1.6159                 1.3349                 2.1935
 IR Inten    --     21.2176                18.1923                19.1630

                     22                     23                     24
                      A                      A                      A
 Frequencies --   1068.5369              1085.6256              1103.6786
 Red. masses --      2.3508                 2.1728                 3.5941
 Frc consts  --      1.5814                 1.5088                 2.5794
 IR Inten    --      8.5906                17.8925                68.6051

                     25                     26                     27
                      A                      A                      A
 Frequencies --   1157.9649              1174.4927              1195.5310
 Red. masses --      1.1825                 1.2241                 1.8701
 Frc consts  --      0.9342                 0.9948                 1.5748
 IR Inten    --      2.2061                 2.2775                18.3263

                     28                     29                     30
                      A                      A                      A
 Frequencies --   1249.2369              1258.8649              1265.4645
 Red. masses --      1.3530                 1.2217                 1.3843
 Frc consts  --      1.2441                 1.1407                 1.3061
 IR Inten    --      3.9263                 0.6383                 4.2345

                     31                     32                     33
                      A                      A                      A
 Frequencies --   1281.0015              1292.9218              1316.3113
 Red. masses --      1.3257                 1.7403                 1.2456
 Frc consts  --      1.2817                 1.7140                 1.2716
 IR Inten    --      0.4429                 6.8053                 0.5902

                     34                     35                     36
                      A                      A                      A
 Frequencies --   1330.3564              1342.1148              1345.4793
 Red. masses --      1.4318                 1.5162                 1.5224
 Frc consts  --      1.4930                 1.6091                 1.6238
 IR Inten    --      4.0034                 6.4880                 1.4576

                     37                     38                     39
                      A                      A                      A
 Frequencies --   1363.1646              1378.4686              1478.5796
 Red. masses --      1.4040                 1.4341                 1.0773
 Frc consts  --      1.5371                 1.6056                 1.3876
 IR Inten    --      6.1413                 5.3586                 1.5018

                     40                     41                     42
                      A                      A                      A
 Frequencies --   1480.4957              1504.5439              3045.0500
 Red. masses --      1.1020                 1.0926                 1.0647
 Frc consts  --      1.4231                 1.4571                 5.8164
 IR Inten    --      2.5836                 4.2765                17.4512

                     43                     44                     45
                      A                      A                      A
 Frequencies --   3056.5647              3063.8067              3072.4518
 Red. masses --      1.0684                 1.0611                 1.0824
 Frc consts  --      5.8810                 5.8684                 6.0203
 IR Inten    --     30.3630                21.3873                63.9701

                     46                     47                     48
                      A                      A                      A
 Frequencies --   3086.3375              3095.7216              3111.3713
 Red. masses --      1.1003                 1.0877                 1.1022
 Frc consts  --      6.1752                 6.1414                 6.2867
 IR Inten    --      9.8071                21.6700                20.1985

                     49                     50                     51
                      A                      A                      A
 Frequencies --   3119.9792              3136.4874              3145.1377
 Red. masses --      1.1052                 1.0902                 1.0926
 Frc consts  --      6.3384                 6.3191                 6.3677
 IR Inten    --     26.5708                48.8317                15.3199

 - Thermochemistry -
 -------------------
 Temperature   298.150 Kelvin.  Pressure   1.00000 Atm.
 Atom     1 has atomic number  6 and mass  12.00000

 Molecular mass:   126.06808 amu.
 Principal axes and moments of inertia in atomic units:
                           1         2         3
     Eigenvalues --   631.84361 897.467961050.62779
           X            0.99933  -0.02913   0.02232
           Y            0.03058   0.99722  -0.06796
           Z           -0.02028   0.06859   0.99744
 This molecule is an asymmetric top.
 Rotational symmetry number  1.
 Warning -- assumption of classical behavior for rotation
           may cause significant error
 Rotational temperatures (Kelvin)      0.13708     0.09651     0.08244
 Rotational constants (GHZ):           2.85631     2.01093     1.71777
 Zero-point vibrational energy     431264.3 (Joules/Mol)
                                  103.07464 (Kcal/Mol)
 Warning -- explicit consideration of   6 degrees of freedom as
           vibrations may cause significant error
 Vibrational temperatures:    150.26   458.45   479.09   617.35   800.94
          (Kelvin)            835.12   913.88  1011.40  1098.14  1165.84
                             1173.57  1214.36  1243.88  1282.26  1288.48
                             1337.03  1397.83  1413.79  1432.29  1478.10
                             1503.22  1537.38  1561.97  1587.95  1666.05
                             1689.83  1720.10  1797.37  1811.22  1820.72
                             1843.07  1860.22  1893.88  1914.08  1931.00
                             1935.84  1961.29  1983.31  2127.34  2130.10
                             2164.70  4381.14  4397.71  4408.13  4420.57
                             4440.55  4454.05  4476.56  4488.95  4512.70
                             4525.15

 Zero-point correction=                           0.164260 (Hartree/Particle)
 Thermal correction to Energy=                    0.170466
 Thermal correction to Enthalpy=                  0.171411
 Thermal correction to Gibbs Free Energy=         0.133733
 Sum of electronic and zero-point Energies=           -423.055914
 Sum of electronic and thermal Energies=              -423.049708
 Sum of electronic and thermal Enthalpies=            -423.048764
 Sum of electronic and thermal Free Energies=         -423.086441

                     E (Thermal)             CV                S
                      KCal/Mol        Cal/Mol-Kelvin    Cal/Mol-Kelvin
 Total                  106.969             26.353             79.298
 Electronic               0.000              0.000              0.000
 Translational            0.889              2.981             40.409
 Rotational               0.889              2.981             27.879
 Vibrational            105.192             20.391             11.010
 Vibration     1          0.605              1.946              3.370
 Vibration     2          0.705              1.638              1.317
 Vibration     3          0.715              1.610              1.246
 Vibration     4          0.790              1.407              0.862
 Vibration     5          0.912              1.125              0.530
 Vibration     6          0.937              1.074              0.485

 Optimization completed.
    -- Stationary point found.
 Normal termination of Gaussian 09 at Mon Jan 27 13:13:37 2020.
