 Gaussian 09, Revision D.01,
 Gaussian 09:  ES64L-G09RevD.01 24-Apr-2013

 -----------------------------
 # b3lyp 6-31G(2df,p) opt Freq
 -----------------------------

 -----
 titel
 -----
 Symbolic Z-matrix:
 Charge =  0 Multiplicity = 1

 SCF Done:  E(RB3LYP) =  -423.166812331     A.U. after   14 cycles
 Optimization completed.
    -- Stationary point found.
 Normal termination of Gaussian 09 at Mon Jan 27 14:04:41 2020.

 ----------------------------------------------------------------------
 #N Geom=AllCheck Guess=TCheck SCRF=Check GenChk RB3LYP/6-31G(2df,p) Fr
 eq
 ----------------------------------------------------------------------

 Structure from the checkpoint file:  "/scratch/puck/g09_0c3f0bb5-1158-44b8-bf54-386472069ad6/Gau-158513.chk"
 -----
 titel
 -----
 Charge =  0 Multiplicity = 1

                         Standard orientation:
 ---------------------------------------------------------------------
 Center     Atomic      Atomic             Coordinates (Angstroms)
 Number     Number       Type             X           Y           Z
 ---------------------------------------------------------------------
      1          6           0       -2.602582   -0.422099    0.102150
      2          6           0       -1.107003   -0.645200   -0.040388
      3          8           0       -0.642070   -1.762148   -0.143856
      4          6           0       -0.244230    0.588308   -0.028096
      5          8           0       -0.959174    1.801350    0.036225
      6          6           0        1.096948    0.739657   -0.731376
      7          6           0        1.944235   -0.538620   -0.740631
      8          6           0        1.865806   -0.573008    0.821993
      9          6           0        1.033513    0.712777    0.789472
     10          1           0       -2.822178    0.189384    0.981792
     11          1           0       -2.993520    0.128671   -0.761025
     12          1           0       -3.098693   -1.390880    0.169453
     13          1           0       -1.216728    2.049404   -0.858121
     14          1           0        1.215728    1.594048   -1.389565
     15          1           0        1.534748   -1.397404   -1.270771
     16          1           0        2.958124   -0.337749   -1.095349
     17          1           0        1.396095   -1.450882    1.266429
     18          1           0        2.839048   -0.407106    1.289497
     19          1           0        1.077207    1.538013    1.489959
 ---------------------------------------------------------------------

 SCF Done:  E(RB3LYP) =  -423.166812331     A.U. after    1 cycles

 The electronic state is 1-A.
 Alpha  occ. eigenvalues --  -19.15476 -19.12258 -10.26578 -10.24779 -10.20084
 Alpha  occ. eigenvalues --  -10.19940 -10.18276 -10.18164 -10.18142  -1.04628
 Alpha  occ. eigenvalues --   -1.02959  -0.88810  -0.74739  -0.72243  -0.65548
 Alpha  occ. eigenvalues --   -0.62907  -0.55600  -0.53107  -0.51538  -0.47465
 Alpha  occ. eigenvalues --   -0.46314  -0.44410  -0.42670  -0.42154  -0.40079
 Alpha  occ. eigenvalues --   -0.38665  -0.37391  -0.34509  -0.34311  -0.32652
 Alpha  occ. eigenvalues --   -0.31522  -0.28268  -0.27103  -0.22847
 Alpha virt. eigenvalues --   -0.01343   0.06188   0.09583   0.10715   0.12631
 Alpha virt. eigenvalues --    0.14272   0.15022   0.15775   0.16449   0.17044
 Alpha virt. eigenvalues --    0.17647   0.18540   0.20177   0.20785   0.23819

 Mulliken charges:
               1
     1  C   -0.472649
     2  C    0.314736
     3  O   -0.317668
     4  C    0.274558
     5  O   -0.467668
     6  C   -0.118704
     7  C   -0.232828
     8  C   -0.236649
     9  C   -0.076956
    10  H    0.150383
    11  H    0.126449
    12  H    0.135050
    13  H    0.286450
    14  H    0.084257
    15  H    0.124898
    16  H    0.099932
    17  H    0.122948
    18  H    0.102608
    19  H    0.100851
 Sum of Mulliken charges =   0.00000

 Dipole moment (field-independent basis, Debye):
    X=             -0.1633    Y=              1.9746    Z=             -0.9391  Tot=              2.1927
 Quadrupole moment (field-independent basis, Debye-Ang):
   XX=            -48.6496   YY=            -58.0387   ZZ=            -50.6052
   XY=             -0.7645   XZ=              1.7764   YZ=             -3.4862

  Exact polarizability:  90.415  -2.058  74.175   0.539  -1.045  64.734
 Approx polarizability: 116.920  -5.296 118.013   0.806   0.146 102.442

                      1                      2                      3
                      A                      A                      A
 Frequencies --     42.4161               162.3754               194.1775
 Red. masses --      3.8252                 1.0306                 3.1358
 Frc consts  --      0.0041                 0.0160                 0.0697
 IR Inten    --      3.1377                 0.5948                 1.9415

                      4                      5                      6
                      A                      A                      A
 Frequencies --    213.5994               282.6788               304.8928
 Red. masses --      4.3303                 1.3814                 3.2659
 Frc consts  --      0.1164                 0.0650                 0.1789
 IR Inten    --      5.3151                47.9623                 1.6655

                      7                      8                      9
                      A                      A                      A
 Frequencies --    338.4408               358.8850               403.0320
 Red. masses --      1.5693                 3.2177                 4.6406
 Frc consts  --      0.1059                 0.2442                 0.4441
 IR Inten    --     46.4721                 7.3370                 1.1955

                     10                     11                     12
                      A                      A                      A
 Frequencies --    428.4060               587.0273               600.3155
 Red. masses --      4.3396                 5.6344                 2.3887
 Frc consts  --      0.4693                 1.1440                 0.5072
 IR Inten    --     12.3647                 8.3928                 1.8992

                     13                     14                     15
                      A                      A                      A
 Frequencies --    635.3180               721.9659               777.3208
 Red. masses --      3.4136                 3.4548                 1.2169
 Frc consts  --      0.8118                 1.0610                 0.4332
 IR Inten    --      8.1197                 2.4180                 4.0142

                     16                     17                     18
                      A                      A                      A
 Frequencies --    843.5370               857.7656               909.7428
 Red. masses --      1.8248                 3.3709                 1.7234
 Frc consts  --      0.7650                 1.4613                 0.8404
 IR Inten    --      8.8713                 4.9603                 3.3528

                     19                     20                     21
                      A                      A                      A
 Frequencies --    945.5415               962.0647               967.9299
 Red. masses --      2.6650                 2.0341                 2.0811
 Frc consts  --      1.4038                 1.1093                 1.1488
 IR Inten    --      7.3967                 5.4060                22.5087

                     22                     23                     24
                      A                      A                      A
 Frequencies --   1011.0835              1024.4049              1049.6536
 Red. masses --      1.2513                 1.8740                 2.0423
 Frc consts  --      0.7536                 1.1587                 1.3257
 IR Inten    --      5.9611                 2.1861                 5.7803

                     25                     26                     27
                      A                      A                      A
 Frequencies --   1091.5081              1104.0192              1149.5762
 Red. masses --      1.9873                 2.2215                 2.1618
 Frc consts  --      1.3950                 1.5953                 1.6832
 IR Inten    --      0.7939                18.1123                72.3914

                     28                     29                     30
                      A                      A                      A
 Frequencies --   1178.7563              1218.7558              1242.2155
 Red. masses --      2.0951                 1.2174                 1.3739
 Frc consts  --      1.7151                 1.0654                 1.2491
 IR Inten    --     46.3968                 0.5222                 4.9897

                     31                     32                     33
                      A                      A                      A
 Frequencies --   1249.0394              1279.3883              1307.5273
 Red. masses --      1.5471                 1.4582                 1.8304
 Frc consts  --      1.4221                 1.4062                 1.8438
 IR Inten    --      2.8844                14.5007                43.9829

                     34                     35                     36
                      A                      A                      A
 Frequencies --   1332.8224              1371.8861              1385.8420
 Red. masses --      1.9945                 1.8527                 1.8684
 Frc consts  --      2.0875                 2.0544                 2.1142
 IR Inten    --     32.6314                 4.6341                60.8087

                     37                     38                     39
                      A                      A                      A
 Frequencies --   1454.8118              1469.0873              1470.9355
 Red. masses --      1.0570                 1.0821                 1.0518
 Frc consts  --      1.3180                 1.3760                 1.3408
 IR Inten    --     15.5259                 0.2935                 9.1568

                     40                     41                     42
                      A                      A                      A
 Frequencies --   1490.5441              1783.0440              3041.9948
 Red. masses --      1.1211                10.7307                 1.0381
 Frc consts  --      1.4676                20.1003                 5.6599
 IR Inten    --      5.2234               104.5624                 4.0111

                     43                     44                     45
                      A                      A                      A
 Frequencies --   3069.8188              3077.9869              3106.6055
 Red. masses --      1.0625                 1.0611                 1.0942
 Frc consts  --      5.8996                 5.9231                 6.2219
 IR Inten    --     26.8819                42.1081                 7.2598

                     46                     47                     48
                      A                      A                      A
 Frequencies --   3130.1870              3145.8562              3156.5922
 Red. masses --      1.1041                 1.1042                 1.1043
 Frc consts  --      6.3736                 6.4383                 6.4828
 IR Inten    --      6.7475                18.7868                10.4370

                     49                     50                     51
                      A                      A                      A
 Frequencies --   3162.1690              3189.9367              3799.6533
 Red. masses --      1.0899                 1.0941                 1.0665
 Frc consts  --      6.4212                 6.5594                 9.0722
 IR Inten    --     20.9575                10.1798                21.2007

 - Thermochemistry -
 -------------------
 Temperature   298.150 Kelvin.  Pressure   1.00000 Atm.
 Atom     1 has atomic number  6 and mass  12.00000

 Molecular mass:   126.06808 amu.
 Principal axes and moments of inertia in atomic units:
                           1         2         3
     Eigenvalues --   679.203711165.181661546.59926
           X            0.99991  -0.01334   0.00088
           Y            0.01335   0.99973  -0.01902
           Z           -0.00062   0.01903   0.99982
 This molecule is an asymmetric top.
 Rotational symmetry number  1.
 Warning -- assumption of classical behavior for rotation
           may cause significant error
 Rotational temperatures (Kelvin)      0.12752     0.07434     0.05600
 Rotational constants (GHZ):           2.65714     1.54889     1.16691
 Zero-point vibrational energy     413208.9 (Joules/Mol)
                                   98.75930 (Kcal/Mol)
 Warning -- explicit consideration of  12 degrees of freedom as
           vibrations may cause significant error
 Vibrational temperatures:     61.03   233.62   279.38   307.32   406.71
          (Kelvin)            438.67   486.94   516.35   579.87   616.38
                              844.60   863.72   914.08  1038.75  1118.39
                             1213.66  1234.13  1308.92  1360.42  1384.19
                             1392.63  1454.72  1473.89  1510.22  1570.43
                             1588.44  1653.98  1695.97  1753.52  1787.27
                             1797.09  1840.75  1881.24  1917.63  1973.84
                             1993.91  2093.15  2113.69  2116.35  2144.56
                             2565.40  4376.75  4416.78  4428.53  4469.71
                             4503.64  4526.18  4541.63  4549.65  4589.60
                             5466.85

 Zero-point correction=                           0.157383 (Hartree/Particle)
 Thermal correction to Energy=                    0.166244
 Thermal correction to Enthalpy=                  0.167188
 Thermal correction to Gibbs Free Energy=         0.123798
 Sum of electronic and zero-point Energies=           -423.009429
 Sum of electronic and thermal Energies=              -423.000569
 Sum of electronic and thermal Enthalpies=            -422.999625
 Sum of electronic and thermal Free Energies=         -423.043014

                     E (Thermal)             CV                S
                      KCal/Mol        Cal/Mol-Kelvin    Cal/Mol-Kelvin
 Total                  104.319             33.961             91.321
 Electronic               0.000              0.000              0.000
 Translational            0.889              2.981             40.409
 Rotational               0.889              2.981             28.594
 Vibrational            102.542             27.999             22.318
 Vibration     1          0.595              1.980              5.143
 Vibration     2          0.622              1.889              2.522
 Vibration     3          0.635              1.848              2.188
 Vibration     4          0.644              1.820              2.013
 Vibration     5          0.682              1.706              1.517
 Vibration     6          0.696              1.664              1.390
 Vibration     7          0.719              1.599              1.219
 Vibration     8          0.734              1.557              1.127
 Vibration     9          0.768              1.464              0.952
 Vibration    10          0.790              1.408              0.864
 Vibration    11          0.944              1.059              0.473
 Vibration    12          0.958              1.031              0.449

 Normal termination of Gaussian 09 at Mon Jan 27 14:47:10 2020.
