 Gaussian 09, Revision D.01,
 Gaussian 09:  ES64L-G09RevD.01 24-Apr-2013

 -----------------------------
 # b3lyp 6-31G(2df,p) opt Freq
 -----------------------------

 -----
 titel
 -----
 Symbolic Z-matrix:
 Charge =  0 Multiplicity = 1

 SCF Done:  E(RB3LYP) =  -423.162621214     A.U. after   14 cycles
 Optimization completed.
    -- Stationary point found.
 Normal termination of Gaussian 09 at Mon Jan 27 22:01:13 2020.

 ----------------------------------------------------------------------
 #N Geom=AllCheck Guess=TCheck SCRF=Check GenChk RB3LYP/6-31G(2df,p) Fr
 eq
 ----------------------------------------------------------------------

 Structure from the checkpoint file:  "/scratch/puck/g09_8bc5c58d-87d1-4d0a-b445-e2abd3e5a2a0/Gau-179148.chk"
 -----
 titel
 -----
 Charge =  0 Multiplicity = 1

                         Standard orientation:
 ---------------------------------------------------------------------
 Center     Atomic      Atomic             Coordinates (Angstroms)
 Number     Number       Type             X           Y           Z
 ---------------------------------------------------------------------
      1          6           0       -0.056085    2.018317    0.360609
      2          6           0        0.240570    0.832026   -0.546587
      3          6           0       -0.786078   -0.387581   -0.629624
      4          6           0       -1.999148   -0.352751    0.263045
      5          8           0       -3.126037   -0.190737   -0.137609
      6          6           0        0.368277   -1.295599   -0.168094
      7          8           0        0.806841   -0.796557    1.104420
      8          6           0        1.318405   -0.174440   -0.087833
      9          6           0        2.799773   -0.084930   -0.253884
     10          1           0       -0.980130    2.523070    0.061588
     11          1           0       -0.159662    1.699064    1.400932
     12          1           0        0.754545    2.753185    0.310297
     13          1           0        0.444246    1.170361   -1.567383
     14          1           0       -1.106017   -0.563178   -1.658656
     15          1           0       -1.784739   -0.485457    1.344265
     16          1           0        0.521778   -2.350354   -0.367415
     17          1           0        3.060943    0.134087   -1.294114
     18          1           0        3.214185    0.712932    0.372566
     19          1           0        3.274138   -1.025613    0.037634
 ---------------------------------------------------------------------

 SCF Done:  E(RB3LYP) =  -423.162621214     A.U. after    1 cycles

 The electronic state is 1-A.
 Alpha  occ. eigenvalues --  -19.15985 -19.13415 -10.26423 -10.24983 -10.24599
 Alpha  occ. eigenvalues --  -10.21065 -10.20286 -10.19597 -10.18280  -1.08627
 Alpha  occ. eigenvalues --   -1.03968  -0.82597  -0.75705  -0.73059  -0.66468
 Alpha  occ. eigenvalues --   -0.62508  -0.56946  -0.53987  -0.51689  -0.47760
 Alpha  occ. eigenvalues --   -0.45445  -0.44614  -0.43387  -0.42890  -0.41227
 Alpha  occ. eigenvalues --   -0.39613  -0.38738  -0.37947  -0.36295  -0.33908
 Alpha  occ. eigenvalues --   -0.32882  -0.30162  -0.26969  -0.23841
 Alpha virt. eigenvalues --   -0.02543   0.08388   0.08941   0.10242   0.11240
 Alpha virt. eigenvalues --    0.12606   0.13177   0.14380   0.14762   0.16402
 Alpha virt. eigenvalues --    0.16881   0.17681   0.18246   0.19182   0.20860

 Mulliken charges:
               1
     1  C   -0.420973
     2  C   -0.065443
     3  C   -0.128586
     4  C    0.150473
     5  O   -0.259440
     6  C   -0.079500
     7  O   -0.285637
     8  C    0.419495
     9  C   -0.506142
    10  H    0.131195
    11  H    0.135663
    12  H    0.118044
    13  H    0.088314
    14  H    0.095401
    15  H    0.094759
    16  H    0.110164
    17  H    0.127889
    18  H    0.135609
    19  H    0.138715
 Sum of Mulliken charges =   0.00000

 Dipole moment (field-independent basis, Debye):
    X=              3.2397    Y=              0.1966    Z=             -1.3224  Tot=              3.5047
 Quadrupole moment (field-independent basis, Debye-Ang):
   XX=            -62.2228   YY=            -50.0944   ZZ=            -53.9453
   XY=              0.5337   XZ=             -2.8147   YZ=              1.3210

  Exact polarizability:  91.547   1.815  72.597   1.046   0.003  64.331
 Approx polarizability: 126.220   4.186 104.244   6.202  -2.729 105.439

                      1                      2                      3
                      A                      A                      A
 Frequencies --     53.9480               101.4954               187.2242
 Red. masses --      4.9144                 4.0234                 1.0891
 Frc consts  --      0.0084                 0.0244                 0.0225
 IR Inten    --      5.4010                 2.3477                 0.4862

                      4                      5                      6
                      A                      A                      A
 Frequencies --    202.5382               216.7289               230.1695
 Red. masses --      2.4246                 1.4176                 2.1294
 Frc consts  --      0.0586                 0.0392                 0.0665
 IR Inten    --      0.2928                 0.4165                 4.3129

                      7                      8                      9
                      A                      A                      A
 Frequencies --    239.7048               324.0539               402.1565
 Red. masses --      1.9517                 3.2598                 3.2156
 Frc consts  --      0.0661                 0.2017                 0.3064
 IR Inten    --      1.5988                 5.9945                 1.4811

                     10                     11                     12
                      A                      A                      A
 Frequencies --    449.9687               525.4860               574.6298
 Red. masses --      3.8206                 3.5737                 3.5810
 Frc consts  --      0.4558                 0.5814                 0.6967
 IR Inten    --     11.3851                 1.8658                 7.0658

                     13                     14                     15
                      A                      A                      A
 Frequencies --    673.9462               713.4161               790.8280
 Red. masses --      3.5521                 3.8734                 3.1912
 Frc consts  --      0.9506                 1.1615                 1.1759
 IR Inten    --      1.9216                 0.5938                11.4604

                     16                     17                     18
                      A                      A                      A
 Frequencies --    852.8787               863.8957               921.0702
 Red. masses --      2.9967                 2.7005                 2.1325
 Frc consts  --      1.2843                 1.1875                 1.0659
 IR Inten    --      3.6524                18.9354                 3.6795

                     19                     20                     21
                      A                      A                      A
 Frequencies --    992.9344              1000.1485              1021.3778
 Red. masses --      1.4444                 1.6481                 1.4207
 Frc consts  --      0.8390                 0.9713                 0.8733
 IR Inten    --      8.8941                 7.2312                 3.9217

                     22                     23                     24
                      A                      A                      A
 Frequencies --   1052.9635              1055.1955              1100.0287
 Red. masses --      1.8174                 2.1865                 1.9775
 Frc consts  --      1.1872                 1.4344                 1.4099
 IR Inten    --     15.5076                 4.6048                 4.8151

                     25                     26                     27
                      A                      A                      A
 Frequencies --   1132.6781              1147.6891              1196.1500
 Red. masses --      2.3974                 2.4336                 1.4880
 Frc consts  --      1.8122                 1.8887                 1.2543
 IR Inten    --     21.7256                23.0168                 1.6896

                     28                     29                     30
                      A                      A                      A
 Frequencies --   1210.1605              1251.5572              1271.9713
 Red. masses --      1.7382                 1.3871                 1.8527
 Frc consts  --      1.4998                 1.2801                 1.7661
 IR Inten    --     10.6267                15.5716                 0.2845

                     31                     32                     33
                      A                      A                      A
 Frequencies --   1297.5861              1356.4990              1405.4995
 Red. masses --      1.6729                 1.5641                 1.2678
 Frc consts  --      1.6596                 1.6957                 1.4756
 IR Inten    --      8.5528                 3.5251                 1.9238

                     34                     35                     36
                      A                      A                      A
 Frequencies --   1406.9037              1421.0156              1467.9430
 Red. masses --      1.2532                 1.2460                 2.0707
 Frc consts  --      1.4615                 1.4824                 2.6290
 IR Inten    --      5.3419                 3.3653                12.0819

                     37                     38                     39
                      A                      A                      A
 Frequencies --   1483.0075              1493.8754              1496.7065
 Red. masses --      1.1313                 1.0646                 1.2485
 Frc consts  --      1.4660                 1.3999                 1.6479
 IR Inten    --     12.4759                 0.6769                 1.8161

                     40                     41                     42
                      A                      A                      A
 Frequencies --   1506.1734              1816.3085              2915.0995
 Red. masses --      1.1020                 9.9807                 1.0834
 Frc consts  --      1.4730                19.3996                 5.4242
 IR Inten    --      5.0589               188.4386                59.1015

                     43                     44                     45
                      A                      A                      A
 Frequencies --   3035.6016              3037.4232              3059.4724
 Red. masses --      1.0363                 1.0364                 1.0847
 Frc consts  --      5.6266                 5.6339                 5.9821
 IR Inten    --     16.3135                21.3118                14.4110

                     46                     47                     48
                      A                      A                      A
 Frequencies --   3098.2040              3099.8584              3101.2918
 Red. masses --      1.0989                 1.0882                 1.0993
 Frc consts  --      6.2146                 6.1610                 6.2295
 IR Inten    --      9.1891                24.1922                12.9323

                     49                     50                     51
                      A                      A                      A
 Frequencies --   3121.8711              3123.0638              3182.1878
 Red. masses --      1.1011                 1.1011                 1.0940
 Frc consts  --      6.3226                 6.3275                 6.5269
 IR Inten    --      9.0426                20.0651                17.8129

 - Thermochemistry -
 -------------------
 Temperature   298.150 Kelvin.  Pressure   1.00000 Atm.
 Atom     1 has atomic number  6 and mass  12.00000

 Molecular mass:   126.06808 amu.
 Principal axes and moments of inertia in atomic units:
                           1         2         3
     Eigenvalues --   573.179081495.784931763.98286
           X            0.99992  -0.00050  -0.01256
           Y            0.00095   0.99936   0.03575
           Z            0.01253  -0.03576   0.99928
 This molecule is an asymmetric top.
 Rotational symmetry number  1.
 Warning -- assumption of classical behavior for rotation
           may cause significant error
 Rotational temperatures (Kelvin)      0.15111     0.05791     0.04910
 Rotational constants (GHZ):           3.14865     1.20655     1.02311
 Zero-point vibrational energy     410813.1 (Joules/Mol)
                                   98.18668 (Kcal/Mol)
 Warning -- explicit consideration of  12 degrees of freedom as
           vibrations may cause significant error
 Vibrational temperatures:     77.62   146.03   269.37   291.41   311.82
          (Kelvin)            331.16   344.88   466.24   578.61   647.40
                              756.06   826.76   969.66  1026.45  1137.82
                             1227.10  1242.95  1325.21  1428.61  1438.99
                             1469.53  1514.98  1518.19  1582.69  1629.67
                             1651.27  1720.99  1741.15  1800.71  1830.08
                             1866.93  1951.70  2022.20  2024.22  2044.52
                             2112.04  2133.71  2149.35  2153.42  2167.04
                             2613.26  4194.17  4367.55  4370.17  4401.89
                             4457.62  4460.00  4462.06  4491.67  4493.39
                             4578.45

 Zero-point correction=                           0.156470 (Hartree/Particle)
 Thermal correction to Energy=                    0.165744
 Thermal correction to Enthalpy=                  0.166689
 Thermal correction to Gibbs Free Energy=         0.122178
 Sum of electronic and zero-point Energies=           -423.006151
 Sum of electronic and thermal Energies=              -422.996877
 Sum of electronic and thermal Enthalpies=            -422.995933
 Sum of electronic and thermal Free Energies=         -423.040443

                     E (Thermal)             CV                S
                      KCal/Mol        Cal/Mol-Kelvin    Cal/Mol-Kelvin
 Total                  104.006             33.911             93.680
 Electronic               0.000              0.000              0.000
 Translational            0.889              2.981             40.409
 Rotational               0.889              2.981             28.805
 Vibrational            102.229             27.950             24.467
 Vibration     1          0.596              1.976              4.667
 Vibration     2          0.604              1.948              3.425
 Vibration     3          0.632              1.857              2.255
 Vibration     4          0.639              1.836              2.110
 Vibration     5          0.646              1.816              1.986
 Vibration     6          0.652              1.795              1.878
 Vibration     7          0.657              1.780              1.805
 Vibration     8          0.709              1.627              1.290
 Vibration     9          0.768              1.465              0.955
 Vibration    10          0.809              1.361              0.796
 Vibration    11          0.880              1.194              0.597
 Vibration    12          0.931              1.086              0.495

 Optimization completed.
    -- Stationary point found.
 Normal termination of Gaussian 09 at Mon Jan 27 22:46:01 2020.
