 Gaussian 09, Revision D.01,
 Gaussian 09:  ES64L-G09RevD.01 24-Apr-2013

 -----------------------------
 # b3lyp 6-31G(2df,p) opt Freq
 -----------------------------

 -----
 titel
 -----
 Symbolic Z-matrix:
 Charge =  0 Multiplicity = 1

 SCF Done:  E(RB3LYP) =  -423.132551103     A.U. after   13 cycles
 Optimization completed.
    -- Stationary point found.
 Normal termination of Gaussian 09 at Mon Jan 27 17:17:30 2020.

 ----------------------------------------------------------------------
 #N Geom=AllCheck Guess=TCheck SCRF=Check GenChk RB3LYP/6-31G(2df,p) Fr
 eq
 ----------------------------------------------------------------------

 Structure from the checkpoint file:  "/scratch/puck/g09_2769c282-20ac-483f-ab37-5d7366169d1f/Gau-179487.chk"
 -----
 titel
 -----
 Charge =  0 Multiplicity = 1

                         Standard orientation:
 ---------------------------------------------------------------------
 Center     Atomic      Atomic             Coordinates (Angstroms)
 Number     Number       Type             X           Y           Z
 ---------------------------------------------------------------------
      1          6           0       -0.274151    2.100761   -0.392842
      2          6           0       -0.205516    0.697018    0.132736
      3          6           0       -1.030748    0.211425    1.318235
      4          6           0       -1.179734   -0.505141    0.022783
      5          8           0       -2.426539   -0.596527   -0.561477
      6          6           0       -0.020638   -1.486405   -0.193097
      7          6           0        0.932729   -0.280608   -0.053049
      8          6           0        2.235152   -0.076258   -0.684425
      9          8           0        2.119650   -0.291740    0.730391
     10          1           0        0.074709    2.158747   -1.430261
     11          1           0       -1.303420    2.473056   -0.365073
     12          1           0        0.340563    2.785072    0.203722
     13          1           0       -0.559792   -0.257713    2.178906
     14          1           0       -1.868100    0.859934    1.557295
     15          1           0       -2.309907   -0.710486   -1.511557
     16          1           0        0.092042   -2.292172    0.539302
     17          1           0       -0.002304   -1.912252   -1.202130
     18          1           0        2.697859   -0.887664   -1.246452
     19          1           0        2.550895    0.924852   -0.977117
 ---------------------------------------------------------------------

 SCF Done:  E(RB3LYP) =  -423.132551103     A.U. after    1 cycles

 The electronic state is 1-A.
 Alpha  occ. eigenvalues --  -19.15519 -19.14476 -10.24450 -10.24158 -10.23059
 Alpha  occ. eigenvalues --  -10.19495 -10.18871 -10.18455 -10.18327  -1.06599
 Alpha  occ. eigenvalues --   -1.04092  -0.88965  -0.74036  -0.71508  -0.65809
 Alpha  occ. eigenvalues --   -0.62210  -0.58231  -0.54680  -0.49831  -0.48993
 Alpha  occ. eigenvalues --   -0.46427  -0.45508  -0.42917  -0.41387  -0.40671
 Alpha  occ. eigenvalues --   -0.39400  -0.38508  -0.36881  -0.34045  -0.32577
 Alpha  occ. eigenvalues --   -0.31380  -0.27186  -0.25885  -0.23284
 Alpha virt. eigenvalues --    0.06914   0.08824   0.09934   0.11177   0.12253
 Alpha virt. eigenvalues --    0.13103   0.13321   0.14431   0.15524   0.16425
 Alpha virt. eigenvalues --    0.17348   0.18463   0.19141   0.20857   0.22597

 Mulliken charges:
               1
     1  C   -0.512652
     2  C    0.171401
     3  C   -0.359687
     4  C    0.369088
     5  O   -0.456528
     6  C   -0.408191
     7  C    0.421714
     8  C   -0.274211
     9  O   -0.278901
    10  H    0.112696
    11  H    0.126961
    12  H    0.130290
    13  H    0.117039
    14  H    0.119411
    15  H    0.284296
    16  H    0.113516
    17  H    0.098102
    18  H    0.111634
    19  H    0.114022
 Sum of Mulliken charges =   0.00000

 Dipole moment (field-independent basis, Debye):
    X=             -0.2614    Y=              0.2844    Z=             -2.4507  Tot=              2.4810
 Quadrupole moment (field-independent basis, Debye-Ang):
   XX=            -58.9359   YY=            -51.5718   ZZ=            -49.9387
   XY=             -0.3701   XZ=             -2.0620   YZ=              1.5410

  Exact polarizability:  82.389   0.640  76.007  -5.413   0.745  69.701
 Approx polarizability: 116.234   3.762 105.321  -3.784   0.969 109.423

                      1                      2                      3
                      A                      A                      A
 Frequencies --    104.0517               158.9959               186.7521
 Red. masses --      3.7394                 2.3159                 1.2160
 Frc consts  --      0.0239                 0.0345                 0.0250
 IR Inten    --      1.4570                 0.3787                 1.4901

                      4                      5                      6
                      A                      A                      A
 Frequencies --    221.9134               252.4696               337.8836
 Red. masses --      2.3354                 3.1897                 1.9987
 Frc consts  --      0.0678                 0.1198                 0.1344
 IR Inten    --      0.7434                 1.0085                15.5964

                      7                      8                      9
                      A                      A                      A
 Frequencies --    341.8488               384.6770               425.7645
 Red. masses --      1.3461                 3.7537                 2.0526
 Frc consts  --      0.0927                 0.3273                 0.2192
 IR Inten    --     91.5467                 7.1640                 1.8034

                     10                     11                     12
                      A                      A                      A
 Frequencies --    485.3865               487.5277               586.9257
 Red. masses --      3.6416                 3.4732                 3.2491
 Frc consts  --      0.5055                 0.4864                 0.6595
 IR Inten    --      6.2696                 4.9029                 1.9313

                     13                     14                     15
                      A                      A                      A
 Frequencies --    636.0812               715.9791               784.1002
 Red. masses --      3.2499                 4.2113                 2.7122
 Frc consts  --      0.7747                 1.2719                 0.9825
 IR Inten    --      3.6598                 1.6632                 0.3433

                     16                     17                     18
                      A                      A                      A
 Frequencies --    815.3935               839.2469               915.8997
 Red. masses --      3.5610                 2.7985                 1.6404
 Frc consts  --      1.3949                 1.1613                 0.8108
 IR Inten    --     51.8545                12.9079                 4.6467

                     19                     20                     21
                      A                      A                      A
 Frequencies --    938.9088               966.2069               993.0950
 Red. masses --      2.6587                 1.2916                 1.7853
 Frc consts  --      1.3809                 0.7104                 1.0374
 IR Inten    --     18.4559                 6.5793                 9.7803

                     22                     23                     24
                      A                      A                      A
 Frequencies --   1036.0930              1069.6777              1097.9747
 Red. masses --      1.9028                 1.4608                 1.5614
 Frc consts  --      1.2035                 0.9848                 1.1090
 IR Inten    --      2.8935                 4.1868                 3.0231

                     25                     26                     27
                      A                      A                      A
 Frequencies --   1116.7403              1124.0915              1139.9698
 Red. masses --      1.6818                 1.3430                 1.4172
 Frc consts  --      1.2357                 0.9999                 1.0851
 IR Inten    --     11.3904                 4.9486                 5.9813

                     28                     29                     30
                      A                      A                      A
 Frequencies --   1156.8371              1163.0810              1215.1002
 Red. masses --      1.8215                 1.9407                 1.6134
 Frc consts  --      1.4362                 1.5468                 1.4035
 IR Inten    --     21.9859                37.5684                 3.6351

                     31                     32                     33
                      A                      A                      A
 Frequencies --   1230.6502              1327.5549              1353.1072
 Red. masses --      2.4503                 2.3271                 3.1824
 Frc consts  --      2.1865                 2.4164                 3.4330
 IR Inten    --      0.1462               204.0982                 0.8657

                     34                     35                     36
                      A                      A                      A
 Frequencies --   1411.6300              1424.5147              1435.2586
 Red. masses --      1.3978                 1.6949                 2.1534
 Frc consts  --      1.6411                 2.0264                 2.6136
 IR Inten    --      1.3912                 2.2919                15.2928

                     37                     38                     39
                      A                      A                      A
 Frequencies --   1475.0496              1485.0978              1501.9255
 Red. masses --      1.1535                 1.0468                 1.0632
 Frc consts  --      1.4787                 1.3602                 1.4131
 IR Inten    --      4.2429                 4.1612                 8.0308

                     40                     41                     42
                      A                      A                      A
 Frequencies --   1512.9672              1540.9874              3021.7037
 Red. masses --      1.5068                 1.7747                 1.0357
 Frc consts  --      2.0322                 2.4830                 5.5715
 IR Inten    --     16.3133                 3.5574                35.6996

                     43                     44                     45
                      A                      A                      A
 Frequencies --   3038.1379              3073.2053              3079.4881
 Red. masses --      1.0577                 1.0511                 1.1002
 Frc consts  --      5.7522                 5.8490                 6.1475
 IR Inten    --     33.1483                23.6869                24.1150

                     46                     47                     48
                      A                      A                      A
 Frequencies --   3089.9325              3097.8514              3108.0371
 Red. masses --      1.1074                 1.0995                 1.0566
 Frc consts  --      6.2294                 6.2168                 6.0135
 IR Inten    --     22.4933                17.2043                16.5979

                     49                     50                     51
                      A                      A                      A
 Frequencies --   3157.3150              3201.5294              3790.1999
 Red. masses --      1.1189                 1.1138                 1.0658
 Frc consts  --      6.5715                 6.7261                 9.0206
 IR Inten    --     24.0102                 6.9564                16.6706

 - Thermochemistry -
 -------------------
 Temperature   298.150 Kelvin.  Pressure   1.00000 Atm.
 Atom     1 has atomic number  6 and mass  12.00000

 Molecular mass:   126.06808 amu.
 Principal axes and moments of inertia in atomic units:
                           1         2         3
     Eigenvalues --   664.054791253.013441499.57073
           X            0.99959  -0.01327  -0.02534
           Y            0.01317   0.99990  -0.00439
           Z            0.02539   0.00406   0.99967
 This molecule is an asymmetric top.
 Rotational symmetry number  1.
 Warning -- assumption of classical behavior for rotation
           may cause significant error
 Rotational temperatures (Kelvin)      0.13043     0.06912     0.05776
 Rotational constants (GHZ):           2.71776     1.44032     1.20351
 Zero-point vibrational energy     413039.5 (Joules/Mol)
                                   98.71881 (Kcal/Mol)
 Warning -- explicit consideration of  12 degrees of freedom as
           vibrations may cause significant error
 Vibrational temperatures:    149.71   228.76   268.69   319.28   363.25
          (Kelvin)            486.14   491.84   553.46   612.58   698.36
                              701.44   844.45   915.18  1030.13  1128.14
                             1173.17  1207.49  1317.77  1350.88  1390.15
                             1428.84  1490.70  1539.03  1579.74  1606.74
                             1617.31  1640.16  1664.43  1673.41  1748.26
                             1770.63  1910.05  1946.82  2031.02  2049.56
                             2065.01  2122.26  2136.72  2160.93  2176.82
                             2217.13  4347.55  4371.20  4421.65  4430.69
                             4445.72  4457.11  4471.77  4542.67  4606.28
                             5453.25

 Zero-point correction=                           0.157318 (Hartree/Particle)
 Thermal correction to Energy=                    0.166025
 Thermal correction to Enthalpy=                  0.166969
 Thermal correction to Gibbs Free Energy=         0.124449
 Sum of electronic and zero-point Energies=           -422.975233
 Sum of electronic and thermal Energies=              -422.966527
 Sum of electronic and thermal Enthalpies=            -422.965582
 Sum of electronic and thermal Free Energies=         -423.008102

                     E (Thermal)             CV                S
                      KCal/Mol        Cal/Mol-Kelvin    Cal/Mol-Kelvin
 Total                  104.182             33.800             89.490
 Electronic               0.000              0.000              0.000
 Translational            0.889              2.981             40.409
 Rotational               0.889              2.981             28.614
 Vibrational            102.405             27.838             20.467
 Vibration     1          0.605              1.946              3.377
 Vibration     2          0.621              1.893              2.562
 Vibration     3          0.632              1.858              2.260
 Vibration     4          0.648              1.808              1.943
 Vibration     5          0.664              1.759              1.713
 Vibration     6          0.718              1.600              1.222
 Vibration     7          0.721              1.592              1.204
 Vibration     8          0.754              1.503              1.021
 Vibration     9          0.788              1.414              0.873
 Vibration    10          0.841              1.282              0.696
 Vibration    11          0.843              1.278              0.690
 Vibration    12          0.944              1.060              0.473

 Normal termination of Gaussian 09 at Mon Jan 27 18:01:50 2020.
