 Gaussian 09, Revision D.01,
 Gaussian 09:  ES64L-G09RevD.01 24-Apr-2013

 -----------------------------
 # b3lyp 6-31G(2df,p) opt Freq
 -----------------------------

 -----
 titel
 -----
 Symbolic Z-matrix:
 Charge =  0 Multiplicity = 1

 SCF Done:  E(RB3LYP) =  -423.144625077     A.U. after   14 cycles
 SCF Done:  E(RB3LYP) =  -423.144625387     A.U. after    7 cycles
 SCF Done:  E(RB3LYP) =  -423.144625789     A.U. after    7 cycles
 SCF Done:  E(RB3LYP) =  -423.144625460     A.U. after    7 cycles
 Optimization completed.
    -- Stationary point found.
 Normal termination of Gaussian 09 at Tue Jan 28 12:00:51 2020.

 ----------------------------------------------------------------------
 #N Geom=AllCheck Guess=TCheck SCRF=Check GenChk RB3LYP/6-31G(2df,p) Fr
 eq
 ----------------------------------------------------------------------

 Structure from the checkpoint file:  "/scratch/puck/g09_3d8a0a21-80d2-41ae-8594-61591eff2886/Gau-138338.chk"
 -----
 titel
 -----
 Charge =  0 Multiplicity = 1

                         Standard orientation:
 ---------------------------------------------------------------------
 Center     Atomic      Atomic             Coordinates (Angstroms)
 Number     Number       Type             X           Y           Z
 ---------------------------------------------------------------------
      1          8           0        2.716001    0.868568    0.304820
      2          6           0        1.747243    0.403501   -0.623198
      3          6           0        0.959574   -0.720032    0.041781
      4          6           0       -0.087039   -1.341929   -0.918194
      5          8           0       -1.319663   -1.409580   -0.207693
      6          6           0       -1.341905   -0.316706    0.706907
      7          6           0        0.105783   -0.238738    1.241909
      8          6           0       -1.784479    0.927868    0.061484
      9          6           0       -2.149389    1.941473   -0.473137
     10          1           0        3.160244    1.629740   -0.079560
     11          1           0        1.054722    1.207086   -0.918099
     12          1           0        2.226623    0.024587   -1.541022
     13          1           0        1.676703   -1.475189    0.374560
     14          1           0       -0.201698   -0.721043   -1.820134
     15          1           0        0.160736   -2.358621   -1.232938
     16          1           0       -2.057501   -0.582408    1.491371
     17          1           0        0.388568    0.759828    1.577144
     18          1           0        0.205801   -0.922921    2.087498
     19          1           0       -2.483637    2.834417   -0.941150
 ---------------------------------------------------------------------

 SCF Done:  E(RB3LYP) =  -423.144625460     A.U. after    1 cycles

 The electronic state is 1-A.
 Alpha  occ. eigenvalues --  -19.14033 -19.13715 -10.25236 -10.22831 -10.22582
 Alpha  occ. eigenvalues --  -10.18996 -10.18461 -10.18148 -10.17680  -1.03946
 Alpha  occ. eigenvalues --   -1.01780  -0.79747  -0.77543  -0.72301  -0.66911
 Alpha  occ. eigenvalues --   -0.62140  -0.57124  -0.53390  -0.52073  -0.50244
 Alpha  occ. eigenvalues --   -0.47454  -0.46309  -0.44757  -0.41888  -0.40565
 Alpha  occ. eigenvalues --   -0.36370  -0.35491  -0.34661  -0.32638  -0.31769
 Alpha  occ. eigenvalues --   -0.27799  -0.27347  -0.26402  -0.25680
 Alpha virt. eigenvalues --    0.03795   0.04889   0.07582   0.09762   0.11860
 Alpha virt. eigenvalues --    0.12242   0.12761   0.14368   0.15526   0.16268
 Alpha virt. eigenvalues --    0.17447   0.18198   0.19510   0.21251   0.22673

 Mulliken charges:
               1
     1  O   -0.421885
     2  C   -0.098928
     3  C    0.009189
     4  C   -0.107418
     5  O   -0.241840
     6  C   -0.082594
     7  C   -0.237407
     8  C    0.362910
     9  C   -0.498773
    10  H    0.287832
    11  H    0.101807
    12  H    0.085553
    13  H    0.088958
    14  H    0.097624
    15  H    0.111008
    16  H    0.110805
    17  H    0.126074
    18  H    0.107584
    19  H    0.199501
 Sum of Mulliken charges =   0.00000

 Dipole moment (field-independent basis, Debye):
    X=              1.2555    Y=              1.2925    Z=             -0.7529  Tot=              1.9529
 Quadrupole moment (field-independent basis, Debye-Ang):
   XX=            -54.8784   YY=            -48.9329   ZZ=            -51.4602
   XY=             -0.8902   XZ=             -4.1477   YZ=             -3.0331

  Exact polarizability:  76.992  -7.461  82.067   0.625  -5.822  68.660
 Approx polarizability: 101.191 -11.128 128.157   3.958 -14.910 103.876

                      1                      2                      3
                      A                      A                      A
 Frequencies --     45.0165               112.0594               138.9787
 Red. masses --      4.0637                 3.1511                 3.1507
 Frc consts  --      0.0049                 0.0233                 0.0359
 IR Inten    --      0.3686                 3.1658                 5.2857

                      4                      5                      6
                      A                      A                      A
 Frequencies --    179.2988               231.9061               271.7877
 Red. masses --      3.3063                 3.2183                 1.1232
 Frc consts  --      0.0626                 0.1020                 0.0489
 IR Inten    --      0.6584                 8.5585                94.3492

                      7                      8                      9
                      A                      A                      A
 Frequencies --    282.5068               373.8327               440.9336
 Red. masses --      3.3445                 2.6183                 3.1170
 Frc consts  --      0.1573                 0.2156                 0.3571
 IR Inten    --      6.6185                 0.2788                 5.5681

                     10                     11                     12
                      A                      A                      A
 Frequencies --    461.4873               553.9507               624.6756
 Red. masses --      4.3195                 6.7954                 1.2321
 Frc consts  --      0.5420                 1.2286                 0.2833
 IR Inten    --      1.6935                11.1089                44.2461

                     13                     14                     15
                      A                      A                      A
 Frequencies --    665.3125               686.9395               760.1368
 Red. masses --      1.2604                 3.5094                 4.3430
 Frc consts  --      0.3287                 0.9757                 1.4785
 IR Inten    --     35.9357                10.9134                 4.4276

                     16                     17                     18
                      A                      A                      A
 Frequencies --    801.1634               861.2606               926.4491
 Red. masses --      2.8673                 2.7615                 1.9140
 Frc consts  --      1.0843                 1.2069                 0.9679
 IR Inten    --      2.8143                 2.8906                 5.2875

                     19                     20                     21
                      A                      A                      A
 Frequencies --    945.9996               983.1076               993.8299
 Red. masses --      2.4787                 2.0670                 2.0876
 Frc consts  --      1.3069                 1.1771                 1.2148
 IR Inten    --     14.3300                17.0284                36.3013

                     22                     23                     24
                      A                      A                      A
 Frequencies --   1019.2272              1078.8502              1094.6645
 Red. masses --      3.1559                 3.2937                 3.1314
 Frc consts  --      1.9316                 2.2587                 2.2108
 IR Inten    --      6.9907                58.9387                28.2989

                     25                     26                     27
                      A                      A                      A
 Frequencies --   1104.5665              1129.5539              1200.7165
 Red. masses --      4.5937                 1.8413                 1.1699
 Frc consts  --      3.3021                 1.3842                 0.9938
 IR Inten    --     77.3912                12.8065                14.0724

                     28                     29                     30
                      A                      A                      A
 Frequencies --   1232.7964              1239.9504              1267.4975
 Red. masses --      1.2599                 1.1993                 1.2443
 Frc consts  --      1.1282                 1.0864                 1.1778
 IR Inten    --      6.2982                10.9458                41.1540

                     31                     32                     33
                      A                      A                      A
 Frequencies --   1280.0903              1315.5725              1323.6671
 Red. masses --      1.3069                 1.3876                 1.3115
 Frc consts  --      1.2617                 1.4150                 1.3539
 IR Inten    --      8.9287                 5.9293                 2.0086

                     34                     35                     36
                      A                      A                      A
 Frequencies --   1355.6141              1363.3471              1400.8978
 Red. masses --      1.2280                 1.2920                 1.3827
 Frc consts  --      1.3296                 1.4149                 1.5988
 IR Inten    --      7.6625                16.5274                 2.1721

                     37                     38                     39
                      A                      A                      A
 Frequencies --   1458.9221              1492.6791              1513.4442
 Red. masses --      1.4645                 1.0882                 1.0875
 Frc consts  --      1.8366                 1.4285                 1.4677
 IR Inten    --      3.7794                 3.6038                 0.7219

                     40                     41                     42
                      A                      A                      A
 Frequencies --   1521.9647              2226.4756              2961.2369
 Red. masses --      1.0845                 5.9052                 1.0593
 Frc consts  --      1.4802                17.2472                 5.4728
 IR Inten    --      5.6188                 0.9468                37.0841

                     43                     44                     45
                      A                      A                      A
 Frequencies --   2985.6682              3002.1660              3059.3406
 Red. masses --      1.0710                 1.1005                 1.0820
 Frc consts  --      5.6248                 5.8441                 5.9667
 IR Inten    --     68.3346                35.9960                 6.7955

                     46                     47                     48
                      A                      A                      A
 Frequencies --   3066.6220              3080.8565              3095.5076
 Red. masses --      1.0841                 1.0695                 1.0919
 Frc consts  --      6.0066                 5.9810                 6.1645
 IR Inten    --     16.9257                29.0139                44.8570

                     49                     50                     51
                      A                      A                      A
 Frequencies --   3135.1099              3501.9907              3832.3973
 Red. masses --      1.1032                 1.1619                 1.0664
 Frc consts  --      6.3888                 8.3956                 9.2280
 IR Inten    --     12.7276                59.2254                22.7540

 - Thermochemistry -
 -------------------
 Temperature   298.150 Kelvin.  Pressure   1.00000 Atm.
 Atom     1 has atomic number  8 and mass  15.99491

 Molecular mass:   126.06808 amu.
 Principal axes and moments of inertia in atomic units:
                           1         2         3
     Eigenvalues --   770.855321432.429511757.50852
           X            0.99986  -0.01072  -0.01268
           Y            0.01047   0.99974  -0.02014
           Z            0.01289   0.02001   0.99972
 This molecule is an asymmetric top.
 Rotational symmetry number  1.
 Warning -- assumption of classical behavior for rotation
           may cause significant error
 Rotational temperatures (Kelvin)      0.11236     0.06047     0.04928
 Rotational constants (GHZ):           2.34122     1.25992     1.02687
 Zero-point vibrational energy     416791.1 (Joules/Mol)
                                   99.61546 (Kcal/Mol)
 Warning -- explicit consideration of  11 degrees of freedom as
           vibrations may cause significant error
 Vibrational temperatures:     64.77   161.23   199.96   257.97   333.66
          (Kelvin)            391.04   406.46   537.86   634.40   663.98
                              797.01   898.77   957.24   988.35  1093.67
                             1152.69  1239.16  1332.95  1361.08  1414.47
                             1429.90  1466.44  1552.22  1574.98  1589.22
                             1625.17  1727.56  1773.72  1784.01  1823.64
                             1841.76  1892.81  1904.46  1950.42  1961.55
                             2015.58  2099.06  2147.63  2177.51  2189.77
                             3203.40  4260.55  4295.71  4319.44  4401.70
                             4412.18  4432.66  4453.74  4510.72  5038.58
                             5513.96

 Zero-point correction=                           0.158747 (Hartree/Particle)
 Thermal correction to Energy=                    0.167919
 Thermal correction to Enthalpy=                  0.168863
 Thermal correction to Gibbs Free Energy=         0.124284
 Sum of electronic and zero-point Energies=           -422.985878
 Sum of electronic and thermal Energies=              -422.976707
 Sum of electronic and thermal Enthalpies=            -422.975763
 Sum of electronic and thermal Free Energies=         -423.020341

                     E (Thermal)             CV                S
                      KCal/Mol        Cal/Mol-Kelvin    Cal/Mol-Kelvin
 Total                  105.370             33.898             93.823
 Electronic               0.000              0.000              0.000
 Translational            0.889              2.981             40.409
 Rotational               0.889              2.981             29.052
 Vibrational            103.593             27.937             24.362
 Vibration     1          0.595              1.979              5.025
 Vibration     2          0.607              1.939              3.233
 Vibration     3          0.615              1.914              2.818
 Vibration     4          0.629              1.868              2.336
 Vibration     5          0.653              1.792              1.864
 Vibration     6          0.675              1.725              1.585
 Vibration     7          0.682              1.706              1.518
 Vibration     8          0.745              1.526              1.064
 Vibration     9          0.801              1.381              0.824
 Vibration    10          0.819              1.335              0.762
 Vibration    11          0.909              1.131              0.536

 Optimization completed.
    -- Stationary point found.
 Normal termination of Gaussian 09 at Tue Jan 28 12:41:42 2020.
