 Gaussian 09, Revision D.01,
 Gaussian 09:  ES64L-G09RevD.01 24-Apr-2013

 -----------------------------
 # b3lyp 6-31G(2df,p) opt Freq
 -----------------------------

 -----
 titel
 -----
 Symbolic Z-matrix:
 Charge =  0 Multiplicity = 1

 SCF Done:  E(RB3LYP) =  -423.195594768     A.U. after   13 cycles
 Optimization completed.
    -- Stationary point found.
 Normal termination of Gaussian 09 at Mon Jan 27 18:30:14 2020.

 ----------------------------------------------------------------------
 #N Geom=AllCheck Guess=TCheck SCRF=Check GenChk RB3LYP/6-31G(2df,p) Fr
 eq
 ----------------------------------------------------------------------

 Structure from the checkpoint file:  "/scratch/puck/g09_c18d229f-453e-4292-9595-03a619c2bd63/Gau-81826.chk"
 -----
 titel
 -----
 Charge =  0 Multiplicity = 1

                         Standard orientation:
 ---------------------------------------------------------------------
 Center     Atomic      Atomic             Coordinates (Angstroms)
 Number     Number       Type             X           Y           Z
 ---------------------------------------------------------------------
      1          8           0       -2.354439   -0.067868   -0.104288
      2          6           0       -0.943347   -0.016200   -0.061724
      3          6           0       -0.364654    1.355939   -0.496010
      4          6           0        1.185850    1.284645   -0.438586
      5          6           0        1.571249   -0.135643    0.030560
      6          8           0        1.025146   -0.320359    1.355401
      7          6           0       -0.397251   -0.303031    1.362004
      8          6           0        0.965359   -1.144539   -0.914029
      9          6           0       -0.365509   -1.074549   -0.960283
     10          1           0       -2.695465    0.669078    0.414067
     11          1           0       -0.728962    1.591965   -1.498786
     12          1           0       -0.743425    2.129484    0.183932
     13          1           0        1.632895    1.492866   -1.414889
     14          1           0        1.588643    2.009794    0.273966
     15          1           0        2.650357   -0.246241    0.146435
     16          1           0       -0.784529   -1.266664    1.716893
     17          1           0       -0.741083    0.483368    2.052648
     18          1           0        1.570017   -1.849209   -1.472555
     19          1           0       -1.024286   -1.708357   -1.542213
 ---------------------------------------------------------------------

 SCF Done:  E(RB3LYP) =  -423.195594768     A.U. after    1 cycles

 The electronic state is 1-A.
 Alpha  occ. eigenvalues --  -19.14338 -19.13264 -10.24090 -10.23289 -10.22158
 Alpha  occ. eigenvalues --  -10.18626 -10.18429 -10.18111 -10.17914  -1.03488
 Alpha  occ. eigenvalues --   -1.01972  -0.82673  -0.75647  -0.74864  -0.64447
 Alpha  occ. eigenvalues --   -0.61796  -0.60318  -0.53213  -0.50750  -0.48899
 Alpha  occ. eigenvalues --   -0.47134  -0.43737  -0.42578  -0.41504  -0.39958
 Alpha  occ. eigenvalues --   -0.39046  -0.37571  -0.36806  -0.34442  -0.33579
 Alpha  occ. eigenvalues --   -0.30039  -0.26792  -0.25245  -0.23810
 Alpha virt. eigenvalues --    0.01186   0.06744   0.08768   0.11728   0.12564
 Alpha virt. eigenvalues --    0.13973   0.15271   0.16635   0.17069   0.18026
 Alpha virt. eigenvalues --    0.18452   0.19624   0.21065   0.21914   0.22166

 Mulliken charges:
               1
     1  O   -0.504649
     2  C    0.317621
     3  C   -0.250840
     4  C   -0.215240
     5  C    0.053175
     6  O   -0.275713
     7  C   -0.092429
     8  C   -0.091080
     9  C   -0.078856
    10  H    0.275876
    11  H    0.108202
    12  H    0.086739
    13  H    0.102718
    14  H    0.105765
    15  H    0.075849
    16  H    0.101368
    17  H    0.078829
    18  H    0.098773
    19  H    0.103894
 Sum of Mulliken charges =   0.00000

 Dipole moment (field-independent basis, Debye):
    X=             -0.0214    Y=              1.3047    Z=             -0.5968  Tot=              1.4349
 Quadrupole moment (field-independent basis, Debye-Ang):
   XX=            -52.6647   YY=            -51.5240   ZZ=            -54.4870
   XY=             -2.6646   XZ=             -4.9579   YZ=              2.1568

  Exact polarizability:  84.111  -1.225  70.652  -3.883   4.776  67.780
 Approx polarizability: 130.769  -2.429 101.192  -2.483   7.924 102.297

                      1                      2                      3
                      A                      A                      A
 Frequencies --    162.1904               269.8022               285.3316
 Red. masses --      2.1648                 1.0910                 2.3012
 Frc consts  --      0.0336                 0.0468                 0.1104
 IR Inten    --      3.3782                68.2999                 2.7066

                      4                      5                      6
                      A                      A                      A
 Frequencies --    317.6521               362.9652               393.6436
 Red. masses --      3.3121                 3.2237                 2.8397
 Frc consts  --      0.1969                 0.2502                 0.2593
 IR Inten    --     29.7465                 3.9713                 1.4420

                      7                      8                      9
                      A                      A                      A
 Frequencies --    419.8796               453.7203               553.6587
 Red. masses --      2.8752                 3.8951                 7.0046
 Frc consts  --      0.2987                 0.4724                 1.2651
 IR Inten    --      7.2497                 2.0797                 1.8088

                     10                     11                     12
                      A                      A                      A
 Frequencies --    589.0601               650.8967               718.7734
 Red. masses --      4.7968                 3.3321                 1.6746
 Frc consts  --      0.9807                 0.8318                 0.5097
 IR Inten    --      1.8270                 1.4001                17.4646

                     13                     14                     15
                      A                      A                      A
 Frequencies --    732.8813               819.9332               829.7324
 Red. masses --      4.5303                 1.7479                 2.2333
 Frc consts  --      1.4336                 0.6923                 0.9059
 IR Inten    --      1.5014                 4.0119                 4.1244

                     16                     17                     18
                      A                      A                      A
 Frequencies --    910.5644               931.6477               965.5561
 Red. masses --      2.9314                 2.1190                 1.3887
 Frc consts  --      1.4320                 1.0836                 0.7628
 IR Inten    --     31.7760                 7.2225                 1.0259

                     19                     20                     21
                      A                      A                      A
 Frequencies --    973.7289               991.1760              1006.5980
 Red. masses --      1.8838                 2.7440                 2.3758
 Frc consts  --      1.0523                 1.5883                 1.4183
 IR Inten    --      2.7919                 1.9914                13.5054

                     22                     23                     24
                      A                      A                      A
 Frequencies --   1029.3490              1072.8855              1110.9398
 Red. masses --      2.4260                 5.7120                 1.4903
 Frc consts  --      1.5145                 3.8739                 1.0837
 IR Inten    --      0.9291                81.0838                 2.9129

                     25                     26                     27
                      A                      A                      A
 Frequencies --   1120.9269              1135.9727              1190.0388
 Red. masses --      1.4591                 2.8717                 2.5608
 Frc consts  --      1.0802                 2.1834                 2.1367
 IR Inten    --     31.5800                35.7198                71.4452

                     28                     29                     30
                      A                      A                      A
 Frequencies --   1194.5235              1220.7243              1255.5637
 Red. masses --      1.2810                 1.1641                 1.1293
 Frc consts  --      1.0769                 1.0220                 1.0489
 IR Inten    --     17.8829                 1.4388                 4.8009

                     31                     32                     33
                      A                      A                      A
 Frequencies --   1260.1158              1321.6585              1327.0508
 Red. masses --      1.5677                 1.4301                 1.3954
 Frc consts  --      1.4667                 1.4719                 1.4479
 IR Inten    --      2.5261                 4.2373                12.7187

                     34                     35                     36
                      A                      A                      A
 Frequencies --   1341.3434              1368.3265              1388.1519
 Red. masses --      1.2888                 1.5008                 1.5162
 Frc consts  --      1.3662                 1.6555                 1.7213
 IR Inten    --     15.4409                26.9310                 2.6673

                     37                     38                     39
                      A                      A                      A
 Frequencies --   1431.8615              1480.2935              1498.5940
 Red. masses --      1.8563                 1.0884                 1.0958
 Frc consts  --      2.2423                 1.4052                 1.4499
 IR Inten    --      3.6508                 0.8600                 1.5471

                     40                     41                     42
                      A                      A                      A
 Frequencies --   1521.8401              1678.8441              2974.3007
 Red. masses --      1.0930                 6.4630                 1.0646
 Frc consts  --      1.4915                10.7326                 5.5490
 IR Inten    --      0.4989                 0.2581                69.6193

                     43                     44                     45
                      A                      A                      A
 Frequencies --   3023.6155              3035.9440              3054.7399
 Red. masses --      1.0665                 1.0989                 1.0604
 Frc consts  --      5.7446                 5.9675                 5.8303
 IR Inten    --     39.5439                46.9261                29.4081

                     46                     47                     48
                      A                      A                      A
 Frequencies --   3087.8840              3104.1027              3106.0777
 Red. masses --      1.0993                 1.0890                 1.1031
 Frc consts  --      6.1756                 6.1823                 6.2705
 IR Inten    --      3.8788                34.0382                38.0247

                     49                     50                     51
                      A                      A                      A
 Frequencies --   3189.1754              3212.4681              3807.1727
 Red. masses --      1.0858                 1.1036                 1.0659
 Frc consts  --      6.5064                 6.7104                 9.1024
 IR Inten    --      4.5579                11.8347                15.3575

 - Thermochemistry -
 -------------------
 Temperature   298.150 Kelvin.  Pressure   1.00000 Atm.
 Atom     1 has atomic number  8 and mass  15.99491

 Molecular mass:   126.06808 amu.
 Principal axes and moments of inertia in atomic units:
                           1         2         3
     Eigenvalues --   681.888761066.672381076.59056
           X            0.99888   0.01450  -0.04498
           Y            0.00028   0.94993   0.31246
           Z            0.04726  -0.31212   0.94887
 This molecule is an asymmetric top.
 Rotational symmetry number  1.
 Warning -- assumption of classical behavior for rotation
           may cause significant error
 Rotational temperatures (Kelvin)      0.12702     0.08120     0.08045
 Rotational constants (GHZ):           2.64668     1.69194     1.67635
 Zero-point vibrational energy     423979.7 (Joules/Mol)
                                  101.33359 (Kcal/Mol)
 Warning -- explicit consideration of  10 degrees of freedom as
           vibrations may cause significant error
 Vibrational temperatures:    233.36   388.18   410.53   457.03   522.23
          (Kelvin)            566.36   604.11   652.80   796.59   847.53
                              936.49  1034.15  1054.45  1179.70  1193.80
                             1310.10  1340.43  1389.22  1400.98  1426.08
                             1448.27  1481.00  1543.64  1598.39  1612.76
                             1634.41  1712.20  1718.65  1756.35  1806.47
                             1813.02  1901.57  1909.33  1929.89  1968.71
                             1997.24  2060.13  2129.81  2156.14  2189.59
                             2415.48  4279.35  4350.30  4368.04  4395.08
                             4442.77  4466.11  4468.95  4588.51  4622.02
                             5477.67

 Zero-point correction=                           0.161485 (Hartree/Particle)
 Thermal correction to Energy=                    0.168819
 Thermal correction to Enthalpy=                  0.169763
 Thermal correction to Gibbs Free Energy=         0.130365
 Sum of electronic and zero-point Energies=           -423.034109
 Sum of electronic and thermal Energies=              -423.026776
 Sum of electronic and thermal Enthalpies=            -423.025832
 Sum of electronic and thermal Free Energies=         -423.065229

                     E (Thermal)             CV                S
                      KCal/Mol        Cal/Mol-Kelvin    Cal/Mol-Kelvin
 Total                  105.935             30.529             82.919
 Electronic               0.000              0.000              0.000
 Translational            0.889              2.981             40.409
 Rotational               0.889              2.981             28.151
 Vibrational            104.158             24.567             14.360
 Vibration     1          0.622              1.889              2.524
 Vibration     2          0.674              1.729              1.597
 Vibration     3          0.683              1.701              1.501
 Vibration     4          0.704              1.640              1.322
 Vibration     5          0.737              1.549              1.109
 Vibration     6          0.761              1.484              0.986
 Vibration     7          0.783              1.427              0.892
 Vibration     8          0.812              1.353              0.785
 Vibration     9          0.909              1.132              0.537
 Vibration    10          0.946              1.055              0.469

 Normal termination of Gaussian 09 at Mon Jan 27 19:26:30 2020.
