 Gaussian 09, Revision D.01,
 Gaussian 09:  ES64L-G09RevD.01 24-Apr-2013

 -----------------------------
 # b3lyp 6-31G(2df,p) opt Freq
 -----------------------------

 -----
 titel
 -----
 Symbolic Z-matrix:
 Charge =  0 Multiplicity = 1

 SCF Done:  E(RB3LYP) =  -423.169889650     A.U. after   14 cycles
 Optimization completed.
    -- Stationary point found.
 Normal termination of Gaussian 09 at Mon Jan 27 15:32:17 2020.

 ----------------------------------------------------------------------
 #N Geom=AllCheck Guess=TCheck SCRF=Check GenChk RB3LYP/6-31G(2df,p) Fr
 eq
 ----------------------------------------------------------------------

 Structure from the checkpoint file:  "/scratch/puck/g09_4ba28f6b-2546-43aa-a3bb-825e4d742f84/Gau-174848.chk"
 -----
 titel
 -----
 Charge =  0 Multiplicity = 1

                         Standard orientation:
 ---------------------------------------------------------------------
 Center     Atomic      Atomic             Coordinates (Angstroms)
 Number     Number       Type             X           Y           Z
 ---------------------------------------------------------------------
      1          6           0        1.836115    0.531962    1.331296
      2          6           0        1.396101   -0.447657    0.231491
      3          6           0        2.136709   -0.189449   -1.092070
      4          6           0       -0.085342   -0.364693    0.013345
      5          8           0       -0.758250   -1.441392   -0.689876
      6          6           0       -1.269171   -1.065110    0.585609
      7          6           0       -2.229252    0.102209    0.323594
      8          6           0       -0.984241    0.850678   -0.248499
      9          8           0       -0.778972    1.978974   -0.585736
     10          1           0        1.330252    0.323447    2.279580
     11          1           0        2.914258    0.454953    1.500180
     12          1           0        1.612145    1.564421    1.045460
     13          1           0        1.611521   -1.473131    0.557983
     14          1           0        3.217887   -0.282469   -0.951318
     15          1           0        1.827349   -0.905324   -1.858705
     16          1           0        1.925883    0.819438   -1.460670
     17          1           0       -1.291555   -1.812078    1.369694
     18          1           0       -3.051455   -0.110201   -0.362157
     19          1           0       -2.604025    0.612651    1.216248
 ---------------------------------------------------------------------

 SCF Done:  E(RB3LYP) =  -423.169889650     A.U. after    1 cycles

 The electronic state is 1-A.
 Alpha  occ. eigenvalues --  -19.16919 -19.14662 -10.27990 -10.25494 -10.24869
 Alpha  occ. eigenvalues --  -10.20455 -10.20314 -10.18204 -10.17720  -1.09504
 Alpha  occ. eigenvalues --   -1.05272  -0.81213  -0.79825  -0.68962  -0.67216
 Alpha  occ. eigenvalues --   -0.62770  -0.60403  -0.50799  -0.50289  -0.48432
 Alpha  occ. eigenvalues --   -0.45666  -0.44572  -0.43524  -0.42401  -0.40645
 Alpha  occ. eigenvalues --   -0.39222  -0.38436  -0.37048  -0.35568  -0.34969
 Alpha  occ. eigenvalues --   -0.34656  -0.31483  -0.28130  -0.24051
 Alpha virt. eigenvalues --   -0.02558   0.07902   0.09061   0.11118   0.11492
 Alpha virt. eigenvalues --    0.12532   0.14293   0.14844   0.15325   0.16601
 Alpha virt. eigenvalues --    0.16681   0.18032   0.19130   0.20257   0.20528

 Mulliken charges:
               1
     1  C   -0.406950
     2  C   -0.110731
     3  C   -0.400939
     4  C    0.331096
     5  O   -0.291715
     6  C   -0.064145
     7  C   -0.370628
     8  C    0.383598
     9  O   -0.304268
    10  H    0.112112
    11  H    0.118589
    12  H    0.142587
    13  H    0.088347
    14  H    0.113038
    15  H    0.131181
    16  H    0.139068
    17  H    0.120030
    18  H    0.137574
    19  H    0.132156
 Sum of Mulliken charges =   0.00000

 Dipole moment (field-independent basis, Debye):
    X=              0.1516    Y=             -1.4533    Z=              2.1852  Tot=              2.6288
 Quadrupole moment (field-independent basis, Debye-Ang):
   XX=            -48.7099   YY=            -59.7534   ZZ=            -52.8777
   XY=              0.9240   XZ=             -2.1387   YZ=             -0.6421

  Exact polarizability:  86.758   1.690  73.824  -3.956  -2.398  66.191
 Approx polarizability: 112.961   5.698 123.264  -6.384  -4.874 100.593

                      1                      2                      3
                      A                      A                      A
 Frequencies --     58.0382               121.1343               148.5413
 Red. masses --      3.3093                 4.2951                 3.0623
 Frc consts  --      0.0066                 0.0371                 0.0398
 IR Inten    --      1.1440                 5.0614                 0.4503

                      4                      5                      6
                      A                      A                      A
 Frequencies --    173.3123               227.9661               258.6684
 Red. masses --      3.5924                 1.0324                 1.0977
 Frc consts  --      0.0636                 0.0316                 0.0433
 IR Inten    --      2.7830                 0.0291                 0.0622

                      7                      8                      9
                      A                      A                      A
 Frequencies --    304.7253               395.7517               418.1979
 Red. masses --      2.6775                 2.7180                 3.2688
 Frc consts  --      0.1465                 0.2508                 0.3368
 IR Inten    --      0.0859                 2.1596                 0.7598

                     10                     11                     12
                      A                      A                      A
 Frequencies --    468.7058               494.6141               584.9660
 Red. masses --      2.7671                 4.7144                 3.2592
 Frc consts  --      0.3582                 0.6795                 0.6571
 IR Inten    --      0.2605                14.2398                 3.0864

                     13                     14                     15
                      A                      A                      A
 Frequencies --    650.2630               705.4591               798.5029
 Red. masses --      3.2951                 4.2059                 3.7450
 Frc consts  --      0.8209                 1.2333                 1.4069
 IR Inten    --      1.5929                11.5989                 0.8133

                     16                     17                     18
                      A                      A                      A
 Frequencies --    874.4323               881.5462               918.7362
 Red. masses --      3.1752                 3.3830                 2.5365
 Frc consts  --      1.4305                 1.5490                 1.2615
 IR Inten    --     11.5569                 8.9942                17.2577

                     19                     20                     21
                      A                      A                      A
 Frequencies --    935.0525               958.2263               970.5963
 Red. masses --      1.2068                 1.5513                 1.5187
 Frc consts  --      0.6217                 0.8393                 0.8429
 IR Inten    --      4.0489                10.7574                 1.5873

                     22                     23                     24
                      A                      A                      A
 Frequencies --    990.3461              1033.6008              1060.5964
 Red. masses --      2.9948                 1.9862                 1.9804
 Frc consts  --      1.7306                 1.2502                 1.3125
 IR Inten    --     27.1412                19.5373                 1.7829

                     25                     26                     27
                      A                      A                      A
 Frequencies --   1130.1031              1138.1674              1186.2642
 Red. masses --      2.2897                 1.4079                 1.7497
 Frc consts  --      1.7229                 1.0746                 1.4507
 IR Inten    --      0.2045                 3.7412                12.8285

                     28                     29                     30
                      A                      A                      A
 Frequencies --   1192.2684              1238.4913              1263.1081
 Red. masses --      1.8802                 2.0447                 1.9083
 Frc consts  --      1.5747                 1.8479                 1.7938
 IR Inten    --      0.9115                14.6238                 2.6779

                     31                     32                     33
                      A                      A                      A
 Frequencies --   1329.1639              1343.0130              1398.4332
 Red. masses --      1.4589                 1.3777                 1.2267
 Frc consts  --      1.5185                 1.4640                 1.4134
 IR Inten    --      4.6112                 0.9779                 4.4415

                     34                     35                     36
                      A                      A                      A
 Frequencies --   1416.0848              1435.5115              1452.2780
 Red. masses --      1.3929                 1.5211                 1.7611
 Frc consts  --      1.6457                 1.8468                 2.1884
 IR Inten    --      5.8919                 8.1701                 3.1072

                     37                     38                     39
                      A                      A                      A
 Frequencies --   1489.6776              1494.0589              1503.4518
 Red. masses --      1.0410                 1.0497                 1.0430
 Frc consts  --      1.3611                 1.3805                 1.3891
 IR Inten    --      0.8672                 1.0224                10.5743

                     40                     41                     42
                      A                      A                      A
 Frequencies --   1519.2414              1888.1453              3026.4044
 Red. masses --      1.1171                12.7719                 1.0832
 Frc consts  --      1.5192                26.8273                 5.8454
 IR Inten    --      7.1641               233.9399                12.7762

                     43                     44                     45
                      A                      A                      A
 Frequencies --   3036.2951              3040.0956              3066.0010
 Red. masses --      1.0346                 1.0348                 1.0589
 Frc consts  --      5.6195                 5.6351                 5.8648
 IR Inten    --     23.3179                15.1106                 9.8791

                     46                     47                     48
                      A                      A                      A
 Frequencies --   3106.1528              3110.7600              3115.6199
 Red. masses --      1.1016                 1.1024                 1.1018
 Frc consts  --      6.2620                 6.2854                 6.3016
 IR Inten    --     24.3132                 5.6303                35.5937

                     49                     50                     51
                      A                      A                      A
 Frequencies --   3118.7920              3130.5477              3200.2611
 Red. masses --      1.1020                 1.1056                 1.0945
 Frc consts  --      6.3155                 6.3838                 6.6045
 IR Inten    --     19.5735                 6.7185                 7.5287

 - Thermochemistry -
 -------------------
 Temperature   298.150 Kelvin.  Pressure   1.00000 Atm.
 Atom     1 has atomic number  6 and mass  12.00000

 Molecular mass:   126.06808 amu.
 Principal axes and moments of inertia in atomic units:
                           1         2         3
     Eigenvalues --   752.174931261.022641482.79149
           X            0.99981   0.01398  -0.01393
           Y           -0.01371   0.99971   0.01983
           Z            0.01421  -0.01964   0.99971
 This molecule is an asymmetric top.
 Rotational symmetry number  1.
 Warning -- assumption of classical behavior for rotation
           may cause significant error
 Rotational temperatures (Kelvin)      0.11515     0.06869     0.05841
 Rotational constants (GHZ):           2.39936     1.43117     1.21712
 Zero-point vibrational energy     411517.6 (Joules/Mol)
                                   98.35507 (Kcal/Mol)
 Warning -- explicit consideration of  12 degrees of freedom as
           vibrations may cause significant error
 Vibrational temperatures:     83.50   174.29   213.72   249.36   327.99
          (Kelvin)            372.17   438.43   569.40   601.69   674.36
                              711.64   841.63   935.58  1015.00  1148.87
                             1258.11  1268.35  1321.85  1345.33  1378.67
                             1396.47  1424.89  1487.12  1525.96  1625.96
                             1637.57  1706.77  1715.41  1781.91  1817.33
                             1912.37  1932.29  2012.03  2037.43  2065.38
                             2089.50  2143.31  2149.61  2163.13  2185.85
                             2716.62  4354.32  4368.55  4374.01  4411.29
                             4469.06  4475.68  4482.68  4487.24  4504.15
                             4604.46

 Zero-point correction=                           0.156739 (Hartree/Particle)
 Thermal correction to Energy=                    0.165887
 Thermal correction to Enthalpy=                  0.166831
 Thermal correction to Gibbs Free Energy=         0.122699
 Sum of electronic and zero-point Energies=           -423.013151
 Sum of electronic and thermal Energies=              -423.004003
 Sum of electronic and thermal Enthalpies=            -423.003059
 Sum of electronic and thermal Free Energies=         -423.047191

                     E (Thermal)             CV                S
                      KCal/Mol        Cal/Mol-Kelvin    Cal/Mol-Kelvin
 Total                  104.096             33.930             92.884
 Electronic               0.000              0.000              0.000
 Translational            0.889              2.981             40.409
 Rotational               0.889              2.981             28.732
 Vibrational            102.318             27.968             23.743
 Vibration     1          0.596              1.974              4.523
 Vibration     2          0.609              1.932              3.082
 Vibration     3          0.618              1.904              2.691
 Vibration     4          0.627              1.875              2.399
 Vibration     5          0.651              1.798              1.895
 Vibration     6          0.667              1.748              1.671
 Vibration     7          0.696              1.665              1.391
 Vibration     8          0.762              1.479              0.978
 Vibration     9          0.781              1.431              0.898
 Vibration    10          0.826              1.319              0.741
 Vibration    11          0.850              1.262              0.672
 Vibration    12          0.942              1.064              0.476

 Optimization completed.
    -- Stationary point found.
 Normal termination of Gaussian 09 at Mon Jan 27 16:14:09 2020.
