 Gaussian 09, Revision D.01,
 Gaussian 09:  ES64L-G09RevD.01 24-Apr-2013

 -----------------------------
 # b3lyp 6-31G(2df,p) opt Freq
 -----------------------------

 -----
 titel
 -----
 Symbolic Z-matrix:
 Charge =  0 Multiplicity = 1

 SCF Done:  E(RB3LYP) =  -423.172401626     A.U. after   13 cycles
 Optimization completed.
    -- Stationary point found.
 Normal termination of Gaussian 09 at Tue Jan 28 02:58:11 2020.

 ----------------------------------------------------------------------
 #N Geom=AllCheck Guess=TCheck SCRF=Check GenChk RB3LYP/6-31G(2df,p) Fr
 eq
 ----------------------------------------------------------------------

 Structure from the checkpoint file:  "/scratch/puck/g09_416b3310-5c56-42f4-b731-e1048651c4ca/Gau-195944.chk"
 -----
 titel
 -----
 Charge =  0 Multiplicity = 1

                         Standard orientation:
 ---------------------------------------------------------------------
 Center     Atomic      Atomic             Coordinates (Angstroms)
 Number     Number       Type             X           Y           Z
 ---------------------------------------------------------------------
      1          6           0       -2.575288   -0.063366    0.475617
      2          6           0       -1.360082    0.399120   -0.320551
      3          8           0       -0.795222   -0.713594   -1.068254
      4          6           0        0.407637   -1.056673   -0.433983
      5          6           0        1.634866   -0.078588   -0.560131
      6          6           0        0.956638    1.301524   -0.495234
      7          6           0       -0.165262    0.895420    0.508799
      8          6           0        0.483781   -0.456541    0.979144
      9          8           0        1.915076   -0.323665    0.850301
     10          1           0       -3.045656    0.785166    0.984203
     11          1           0       -3.312292   -0.514682   -0.194494
     12          1           0       -2.303593   -0.808487    1.229574
     13          1           0       -1.671133    1.154228   -1.051721
     14          1           0        0.640447   -2.112717   -0.559328
     15          1           0        2.489266   -0.235869   -1.217600
     16          1           0        1.648946    2.043971   -0.093763
     17          1           0        0.562260    1.648993   -1.453266
     18          1           0       -0.411629    1.624909    1.278861
     19          1           0        0.150811   -0.932811    1.899193
 ---------------------------------------------------------------------

 SCF Done:  E(RB3LYP) =  -423.172401626     A.U. after    1 cycles

 The electronic state is 1-A.
 Alpha  occ. eigenvalues --  -19.14092 -19.13669 -10.23598 -10.23419 -10.23385
 Alpha  occ. eigenvalues --  -10.23355 -10.19356 -10.18455 -10.17886  -1.06531
 Alpha  occ. eigenvalues --   -1.02546  -0.80222  -0.76437  -0.71172  -0.68925
 Alpha  occ. eigenvalues --   -0.61144  -0.56906  -0.55070  -0.53165  -0.48240
 Alpha  occ. eigenvalues --   -0.47343  -0.44939  -0.41363  -0.41200  -0.39505
 Alpha  occ. eigenvalues --   -0.38011  -0.37415  -0.35461  -0.34557  -0.33930
 Alpha  occ. eigenvalues --   -0.32615  -0.31189  -0.24574  -0.24408
 Alpha virt. eigenvalues --    0.07731   0.09747   0.11075   0.11302   0.13243
 Alpha virt. eigenvalues --    0.13904   0.14563   0.15880   0.16043   0.16712
 Alpha virt. eigenvalues --    0.18012   0.18680   0.19426   0.20181   0.21748

 Mulliken charges:
               1
     1  C   -0.409394
     2  C    0.131910
     3  O   -0.290449
     4  C    0.105978
     5  C    0.034372
     6  C   -0.226733
     7  C   -0.088232
     8  C    0.049205
     9  O   -0.299249
    10  H    0.114635
    11  H    0.128735
    12  H    0.119692
    13  H    0.083707
    14  H    0.094176
    15  H    0.078042
    16  H    0.108207
    17  H    0.105043
    18  H    0.074278
    19  H    0.086078
 Sum of Mulliken charges =   0.00000

 Dipole moment (field-independent basis, Debye):
    X=             -1.0306    Y=              0.8543    Z=              0.1106  Tot=              1.3432
 Quadrupole moment (field-independent basis, Debye-Ang):
   XX=            -55.0663   YY=            -51.5204   ZZ=            -54.1445
   XY=             -0.8654   XZ=             -4.8677   YZ=             -1.0003

  Exact polarizability:  82.363  -1.239  69.905  -4.136  -1.419  66.413
 Approx polarizability: 112.283  -3.112 104.319  -1.055  -1.213 105.952

                      1                      2                      3
                      A                      A                      A
 Frequencies --    154.3513               222.2306               262.7003
 Red. masses --      3.1931                 1.0508                 2.6717
 Frc consts  --      0.0448                 0.0306                 0.1086
 IR Inten    --      0.3416                 0.0199                 0.8039

                      4                      5                      6
                      A                      A                      A
 Frequencies --    336.5985               430.0354               477.8171
 Red. masses --      2.5132                 4.1945                 2.8784
 Frc consts  --      0.1678                 0.4570                 0.3872
 IR Inten    --      1.2009                 3.3770                 4.3177

                      7                      8                      9
                      A                      A                      A
 Frequencies --    514.7190               629.9657               704.3971
 Red. masses --      4.2947                 3.7729                 5.1002
 Frc consts  --      0.6704                 0.8822                 1.4910
 IR Inten    --      7.8595                 0.3626                 3.8075

                     10                     11                     12
                      A                      A                      A
 Frequencies --    770.2342               798.1583               819.8749
 Red. masses --      4.7462                 2.4067                 2.4838
 Frc consts  --      1.6590                 0.9033                 0.9837
 IR Inten    --      2.4471                 1.4855                13.6962

                     13                     14                     15
                      A                      A                      A
 Frequencies --    847.3976               869.9910               896.6302
 Red. masses --      3.7596                 2.8246                 2.8745
 Frc consts  --      1.5906                 1.2596                 1.3616
 IR Inten    --     11.2652                 7.7533                 5.9235

                     16                     17                     18
                      A                      A                      A
 Frequencies --    912.3577               946.7626               955.7069
 Red. masses --      2.4069                 2.2653                 1.9010
 Frc consts  --      1.1804                 1.1963                 1.0230
 IR Inten    --     21.0527                 5.5442                 7.4613

                     19                     20                     21
                      A                      A                      A
 Frequencies --    988.7289               995.3975              1020.2459
 Red. masses --      1.8851                 2.0839                 1.8363
 Frc consts  --      1.0858                 1.2165                 1.1261
 IR Inten    --      9.7174                 9.4170                 9.1941

                     22                     23                     24
                      A                      A                      A
 Frequencies --   1051.4206              1083.6061              1106.3825
 Red. masses --      2.6811                 1.4175                 3.0316
 Frc consts  --      1.7463                 0.9806                 2.1864
 IR Inten    --      1.5489                 4.2065                96.9794

                     25                     26                     27
                      A                      A                      A
 Frequencies --   1125.2525              1146.0325              1179.0044
 Red. masses --      2.1054                 2.4348                 1.4924
 Frc consts  --      1.5707                 1.8841                 1.2223
 IR Inten    --     19.0479                63.8403                 2.0142

                     28                     29                     30
                      A                      A                      A
 Frequencies --   1191.1086              1212.2009              1242.7939
 Red. masses --      1.8321                 1.4504                 1.2748
 Frc consts  --      1.5315                 1.2557                 1.1601
 IR Inten    --      8.2036                 2.2382                 0.3990

                     31                     32                     33
                      A                      A                      A
 Frequencies --   1263.7224              1283.7489              1301.6116
 Red. masses --      1.6029                 1.3167                 1.5712
 Frc consts  --      1.5082                 1.2785                 1.5684
 IR Inten    --      2.2846                 2.0047                 3.7920

                     34                     35                     36
                      A                      A                      A
 Frequencies --   1324.3132              1330.6017              1366.4881
 Red. masses --      1.5641                 1.5302                 1.6216
 Frc consts  --      1.6162                 1.5962                 1.7840
 IR Inten    --      2.6896                11.6907                21.1593

                     37                     38                     39
                      A                      A                      A
 Frequencies --   1393.6855              1407.0297              1479.4560
 Red. masses --      1.3348                 1.2944                 1.0988
 Frc consts  --      1.5275                 1.5098                 1.4170
 IR Inten    --      3.3192                12.8390                 2.5854

                     40                     41                     42
                      A                      A                      A
 Frequencies --   1486.7413              1496.7042              3036.0280
 Red. masses --      1.0597                 1.0495                 1.0745
 Frc consts  --      1.3801                 1.3852                 5.8356
 IR Inten    --      3.9562                 2.5909                25.6778

                     43                     44                     45
                      A                      A                      A
 Frequencies --   3037.2583              3069.5867              3107.6836
 Red. masses --      1.0461                 1.0586                 1.1003
 Frc consts  --      5.6857                 5.8768                 6.2611
 IR Inten    --     16.6065                24.8734                19.8091

                     46                     47                     48
                      A                      A                      A
 Frequencies --   3118.1036              3122.4626              3127.6691
 Red. masses --      1.1016                 1.1014                 1.0910
 Frc consts  --      6.3106                 6.3269                 6.2881
 IR Inten    --     16.6805                18.8522                32.4043

                     49                     50                     51
                      A                      A                      A
 Frequencies --   3129.3560              3136.9199              3147.9235
 Red. masses --      1.0944                 1.0884                 1.0952
 Frc consts  --      6.3143                 6.3100                 6.3942
 IR Inten    --     23.3349                49.8079                23.0017

 - Thermochemistry -
 -------------------
 Temperature   298.150 Kelvin.  Pressure   1.00000 Atm.
 Atom     1 has atomic number  6 and mass  12.00000

 Molecular mass:   126.06808 amu.
 Principal axes and moments of inertia in atomic units:
                           1         2         3
     Eigenvalues --   519.449881166.024611191.46932
           X            0.99909  -0.01041  -0.04144
           Y           -0.00324   0.94862  -0.31641
           Z            0.04261   0.31626   0.94772
 This molecule is an asymmetric top.
 Rotational symmetry number  1.
 Warning -- assumption of classical behavior for rotation
           may cause significant error
 Rotational temperatures (Kelvin)      0.16674     0.07428     0.07269
 Rotational constants (GHZ):           3.47433     1.54777     1.51472
 Zero-point vibrational energy     425028.4 (Joules/Mol)
                                  101.58422 (Kcal/Mol)
 Warning -- explicit consideration of   7 degrees of freedom as
           vibrations may cause significant error
 Vibrational temperatures:    222.08   319.74   377.97   484.29   618.72
          (Kelvin)            687.47   740.56   906.38  1013.47  1108.19
                             1148.37  1179.62  1219.21  1251.72  1290.05
                             1312.68  1362.18  1375.05  1422.56  1432.15
                             1467.90  1512.76  1559.07  1591.84  1618.99
                             1648.88  1696.32  1713.74  1744.08  1788.10
                             1818.21  1847.03  1872.73  1905.39  1914.44
                             1966.07  2005.20  2024.40  2128.60  2139.09
                             2153.42  4368.16  4369.93  4416.45  4471.26
                             4486.25  4492.52  4500.01  4502.44  4513.32
                             4529.15

 Zero-point correction=                           0.161885 (Hartree/Particle)
 Thermal correction to Energy=                    0.168672
 Thermal correction to Enthalpy=                  0.169616
 Thermal correction to Gibbs Free Energy=         0.131009
 Sum of electronic and zero-point Energies=           -423.010517
 Sum of electronic and thermal Energies=              -423.003730
 Sum of electronic and thermal Enthalpies=            -423.002786
 Sum of electronic and thermal Free Energies=         -423.041393

                     E (Thermal)             CV                S
                      KCal/Mol        Cal/Mol-Kelvin    Cal/Mol-Kelvin
 Total                  105.843             28.303             81.256
 Electronic               0.000              0.000              0.000
 Translational            0.889              2.981             40.409
 Rotational               0.889              2.981             28.070
 Vibrational            104.066             22.341             12.778
 Vibration     1          0.620              1.898              2.618
 Vibration     2          0.648              1.807              1.941
 Vibration     3          0.670              1.741              1.644
 Vibration     4          0.717              1.602              1.228
 Vibration     5          0.791              1.405              0.859
 Vibration     6          0.834              1.299              0.716
 Vibration     7          0.870              1.217              0.622

 Optimization completed.
    -- Stationary point found.
 Normal termination of Gaussian 09 at Tue Jan 28 03:44:15 2020.
