 Gaussian 09, Revision D.01,
 Gaussian 09:  ES64L-G09RevD.01 24-Apr-2013

 -----------------------------
 # b3lyp 6-31G(2df,p) opt Freq
 -----------------------------

 -----
 titel
 -----
 Symbolic Z-matrix:
 Charge =  0 Multiplicity = 1

 SCF Done:  E(RB3LYP) =  -423.112268192     A.U. after   13 cycles
 Optimization completed.
    -- Stationary point found.
 Normal termination of Gaussian 09 at Mon Jan 27 22:05:59 2020.

 ----------------------------------------------------------------------
 #N Geom=AllCheck Guess=TCheck SCRF=Check GenChk RB3LYP/6-31G(2df,p) Fr
 eq
 ----------------------------------------------------------------------

 Structure from the checkpoint file:  "/scratch/puck/g09_f47cff30-8aa9-4a0f-9c22-566e9e47496e/Gau-46312.chk"
 -----
 titel
 -----
 Charge =  0 Multiplicity = 1

                         Standard orientation:
 ---------------------------------------------------------------------
 Center     Atomic      Atomic             Coordinates (Angstroms)
 Number     Number       Type             X           Y           Z
 ---------------------------------------------------------------------
      1          6           0        0.511539    1.962703    0.771458
      2          6           0        0.668463    0.644250    0.064237
      3          6           0        1.975473   -0.113566   -0.275781
      4          6           0        0.874608   -1.029860   -0.840806
      5          6           0        0.001719    0.190710   -1.290092
      6          6           0       -1.246868   -0.376020   -0.601141
      7          8           0       -2.206867    0.579571   -0.209522
      8          6           0       -0.101263   -0.714134    0.353570
      9          8           0       -0.275683   -1.377997    1.551820
     10          1           0        0.902313    1.906457    1.794629
     11          1           0        1.063066    2.755378    0.252904
     12          1           0       -0.541688    2.247361    0.819487
     13          1           0        2.638702    0.363656   -1.004949
     14          1           0        2.565614   -0.498211    0.565187
     15          1           0        0.961676   -1.976871   -1.373635
     16          1           0        0.079400    0.708215   -2.243800
     17          1           0       -1.714497   -1.238225   -1.100546
     18          1           0       -2.769116    0.173570    0.458364
     19          1           0        0.572899   -1.438426    2.005310
 ---------------------------------------------------------------------

 SCF Done:  E(RB3LYP) =  -423.112268192     A.U. after    1 cycles

 The electronic state is 1-A.
 Alpha  occ. eigenvalues --  -19.15176 -19.13495 -10.23803 -10.22799 -10.19756
 Alpha  occ. eigenvalues --  -10.19358 -10.19294 -10.18153 -10.16838  -1.03993
 Alpha  occ. eigenvalues --   -1.01638  -0.92641  -0.74218  -0.71686  -0.62730
 Alpha  occ. eigenvalues --   -0.60430  -0.59853  -0.54471  -0.50507  -0.47972
 Alpha  occ. eigenvalues --   -0.45961  -0.45601  -0.41253  -0.40309  -0.39419
 Alpha  occ. eigenvalues --   -0.39177  -0.36448  -0.32599  -0.32169  -0.30899
 Alpha  occ. eigenvalues --   -0.29852  -0.29290  -0.25290  -0.24510
 Alpha virt. eigenvalues --    0.06108   0.08851   0.12050   0.12620   0.13296
 Alpha virt. eigenvalues --    0.13564   0.15059   0.15637   0.16615   0.17287
 Alpha virt. eigenvalues --    0.18022   0.18175   0.20194   0.21403   0.21631

 Mulliken charges:
               1
     1  C   -0.522855
     2  C    0.281338
     3  C   -0.327229
     4  C   -0.123757
     5  C   -0.104015
     6  C    0.061738
     7  O   -0.442169
     8  C    0.331325
     9  O   -0.477818
    10  H    0.107757
    11  H    0.114602
    12  H    0.142424
    13  H    0.092884
    14  H    0.075784
    15  H    0.071750
    16  H    0.079222
    17  H    0.063264
    18  H    0.288760
    19  H    0.286994
 Sum of Mulliken charges =   0.00000

 Dipole moment (field-independent basis, Debye):
    X=              1.0499    Y=             -0.6539    Z=              0.5516  Tot=              1.3543
 Quadrupole moment (field-independent basis, Debye-Ang):
   XX=            -51.4294   YY=            -54.7039   ZZ=            -51.2348
   XY=              0.8221   XZ=              0.2422   YZ=              0.2737

  Exact polarizability:  80.254   0.945  73.998   0.087   1.887  72.320
 Approx polarizability: 113.748   0.519 108.643  -0.847  -1.429 111.193

                      1                      2                      3
                      A                      A                      A
 Frequencies --    176.8263               190.8965               194.6444
 Red. masses --      2.9125                 1.3775                 2.6058
 Frc consts  --      0.0537                 0.0296                 0.0582
 IR Inten    --      2.6902                26.6386                16.1573

                      4                      5                      6
                      A                      A                      A
 Frequencies --    208.8227               254.5235               281.8064
 Red. masses --      1.4911                 1.2814                 2.0947
 Frc consts  --      0.0383                 0.0489                 0.0980
 IR Inten    --      7.3217                66.4893                17.2584

                      7                      8                      9
                      A                      A                      A
 Frequencies --    296.2771               334.2263               439.8021
 Red. masses --      1.8946                 2.7150                 3.1075
 Frc consts  --      0.0980                 0.1787                 0.3541
 IR Inten    --     68.3481                13.5488                 3.1822

                     10                     11                     12
                      A                      A                      A
 Frequencies --    506.5587               535.9963               647.6854
 Red. masses --      2.4474                 4.0617                 4.0397
 Frc consts  --      0.3700                 0.6875                 0.9984
 IR Inten    --     10.8349                 5.2314                 4.0675

                     13                     14                     15
                      A                      A                      A
 Frequencies --    673.7183               736.6295               810.4684
 Red. masses --      3.9214                 4.7957                 4.6514
 Frc consts  --      1.0487                 1.5332                 1.8001
 IR Inten    --      5.2058                 4.2628                11.9420

                     16                     17                     18
                      A                      A                      A
 Frequencies --    863.1329               865.3545               916.1458
 Red. masses --      1.9611                 2.0704                 1.7614
 Frc consts  --      0.8608                 0.9135                 0.8710
 IR Inten    --      7.5035                 1.3359                 4.1696

                     19                     20                     21
                      A                      A                      A
 Frequencies --    944.1285               960.6352               966.8906
 Red. masses --      1.7166                 2.6281                 1.8226
 Frc consts  --      0.9015                 1.4289                 1.0039
 IR Inten    --      4.8101                 5.5067                 7.4854

                     22                     23                     24
                      A                      A                      A
 Frequencies --   1017.2156              1046.4681              1080.5277
 Red. masses --      1.2693                 1.6753                 1.7903
 Frc consts  --      0.7738                 1.0809                 1.2316
 IR Inten    --      8.9997                16.3391                 4.9323

                     25                     26                     27
                      A                      A                      A
 Frequencies --   1095.9860              1124.1107              1152.6663
 Red. masses --      2.1621                 1.7487                 1.5302
 Frc consts  --      1.5302                 1.3019                 1.1979
 IR Inten    --     30.9171                40.6422                 1.2634

                     28                     29                     30
                      A                      A                      A
 Frequencies --   1157.8755              1182.2820              1207.4674
 Red. masses --      2.2466                 1.7754                 1.9573
 Frc consts  --      1.7746                 1.4621                 1.6813
 IR Inten    --     30.2826                13.6853                28.7089

                     31                     32                     33
                      A                      A                      A
 Frequencies --   1219.7658              1235.4871              1304.3071
 Red. masses --      1.6588                 1.9521                 2.1088
 Frc consts  --      1.4541                 1.7556                 2.1137
 IR Inten    --     13.5826               104.4142                65.1572

                     34                     35                     36
                      A                      A                      A
 Frequencies --   1310.4432              1348.2847              1377.5931
 Red. masses --      1.6487                 3.0914                 1.7899
 Frc consts  --      1.6681                 3.3111                 2.0013
 IR Inten    --     22.1006               106.4998                 1.7997

                     37                     38                     39
                      A                      A                      A
 Frequencies --   1402.3232              1447.2058              1489.4222
 Red. masses --      1.4011                 1.9135                 1.0524
 Frc consts  --      1.6234                 2.3612                 1.3755
 IR Inten    --      4.6682                19.9290                 2.6257

                     40                     41                     42
                      A                      A                      A
 Frequencies --   1498.0896              1515.0069              2989.5633
 Red. masses --      1.0476                 1.1581                 1.0840
 Frc consts  --      1.3852                 1.5661                 5.7082
 IR Inten    --      6.1011                 0.9833                81.0093

                     43                     44                     45
                      A                      A                      A
 Frequencies --   3021.0673              3025.7336              3078.0257
 Red. masses --      1.0553                 1.0405                 1.1047
 Frc consts  --      5.6749                 5.6127                 6.1666
 IR Inten    --     46.6219                51.8405                10.5886

                     46                     47                     48
                      A                      A                      A
 Frequencies --   3080.5997              3113.3547              3130.5161
 Red. masses --      1.1008                 1.0901                 1.0976
 Frc consts  --      6.1553                 6.2253                 6.3377
 IR Inten    --     48.8374                49.1191                 6.7029

                     49                     50                     51
                      A                      A                      A
 Frequencies --   3145.0154              3796.1988              3815.4714
 Red. masses --      1.0931                 1.0656                 1.0660
 Frc consts  --      6.3702                 9.0475                 9.1435
 IR Inten    --     26.9641                17.6071                30.9190

 - Thermochemistry -
 -------------------
 Temperature   298.150 Kelvin.  Pressure   1.00000 Atm.
 Atom     1 has atomic number  6 and mass  12.00000

 Molecular mass:   126.06808 amu.
 Principal axes and moments of inertia in atomic units:
                           1         2         3
     Eigenvalues --   829.314931031.768241156.29529
           X            0.99930   0.03632   0.00891
           Y           -0.03722   0.98892   0.14369
           Z           -0.00360  -0.14392   0.98958
 This molecule is an asymmetric top.
 Rotational symmetry number  1.
 Warning -- assumption of classical behavior for rotation
           may cause significant error
 Rotational temperatures (Kelvin)      0.10444     0.08395     0.07491
 Rotational constants (GHZ):           2.17618     1.74917     1.56080
 Zero-point vibrational energy     413987.1 (Joules/Mol)
                                   98.94530 (Kcal/Mol)
 Warning -- explicit consideration of  11 degrees of freedom as
           vibrations may cause significant error
 Vibrational temperatures:    254.41   274.66   280.05   300.45   366.20
          (Kelvin)            405.46   426.28   480.88   632.78   728.82
                              771.18   931.87   969.33  1059.84  1166.08
                             1241.85  1245.05  1318.13  1358.39  1382.14
                             1391.14  1463.54  1505.63  1554.64  1576.88
                             1617.34  1658.43  1665.92  1701.04  1737.27
                             1754.97  1777.59  1876.60  1885.43  1939.88
                             1982.05  2017.63  2082.20  2142.94  2155.41
                             2179.75  4301.31  4346.64  4353.35  4428.59
                             4432.29  4479.42  4504.11  4524.97  5461.88
                             5489.61

 Zero-point correction=                           0.157679 (Hartree/Particle)
 Thermal correction to Energy=                    0.166269
 Thermal correction to Enthalpy=                  0.167214
 Thermal correction to Gibbs Free Energy=         0.125265
 Sum of electronic and zero-point Energies=           -422.954589
 Sum of electronic and thermal Energies=              -422.945999
 Sum of electronic and thermal Enthalpies=            -422.945055
 Sum of electronic and thermal Free Energies=         -422.987003

                     E (Thermal)             CV                S
                      KCal/Mol        Cal/Mol-Kelvin    Cal/Mol-Kelvin
 Total                  104.336             33.708             88.289
 Electronic               0.000              0.000              0.000
 Translational            0.889              2.981             40.409
 Rotational               0.889              2.981             28.383
 Vibrational            102.558             27.746             19.497
 Vibration     1          0.628              1.871              2.362
 Vibration     2          0.634              1.852              2.219
 Vibration     3          0.635              1.847              2.183
 Vibration     4          0.642              1.827              2.054
 Vibration     5          0.665              1.755              1.699
 Vibration     6          0.681              1.707              1.523
 Vibration     7          0.690              1.681              1.438
 Vibration     8          0.716              1.607              1.240
 Vibration     9          0.800              1.383              0.827
 Vibration    10          0.862              1.235              0.642
 Vibration    11          0.891              1.170              0.574

 Optimization completed.
    -- Stationary point found.
 Normal termination of Gaussian 09 at Mon Jan 27 22:57:48 2020.
