 Gaussian 09, Revision D.01,
 Gaussian 09:  ES64L-G09RevD.01 24-Apr-2013

 -----------------------------
 # b3lyp 6-31G(2df,p) opt Freq
 -----------------------------

 -----
 titel
 -----
 Symbolic Z-matrix:
 Charge =  0 Multiplicity = 1

 SCF Done:  E(RB3LYP) =  -423.136301540     A.U. after   14 cycles
 SCF Done:  E(RB3LYP) =  -423.136294714     A.U. after    9 cycles
 SCF Done:  E(RB3LYP) =  -423.136300730     A.U. after    9 cycles
 SCF Done:  E(RB3LYP) =  -423.136300141     A.U. after    7 cycles
 SCF Done:  E(RB3LYP) =  -423.136300384     A.U. after    6 cycles
 SCF Done:  E(RB3LYP) =  -423.136299835     A.U. after    7 cycles
 SCF Done:  E(RB3LYP) =  -423.136299205     A.U. after    9 cycles
 SCF Done:  E(RB3LYP) =  -423.136298678     A.U. after    9 cycles
 SCF Done:  E(RB3LYP) =  -423.136297759     A.U. after    9 cycles
 SCF Done:  E(RB3LYP) =  -423.136300180     A.U. after    7 cycles
 SCF Done:  E(RB3LYP) =  -423.136298515     A.U. after   10 cycles
 SCF Done:  E(RB3LYP) =  -423.136297409     A.U. after    9 cycles
 SCF Done:  E(RB3LYP) =  -423.136296193     A.U. after    9 cycles
 SCF Done:  E(RB3LYP) =  -423.136301643     A.U. after    9 cycles
 SCF Done:  E(RB3LYP) =  -423.136295752     A.U. after   11 cycles
 SCF Done:  E(RB3LYP) =  -423.136294970     A.U. after    9 cycles
 SCF Done:  E(RB3LYP) =  -423.136294470     A.U. after    8 cycles
 SCF Done:  E(RB3LYP) =  -423.136294914     A.U. after    7 cycles
 SCF Done:  E(RB3LYP) =  -423.136294783     A.U. after    6 cycles
 Optimization completed on the basis of negligible forces.
    -- Stationary point found.
 Normal termination of Gaussian 09 at Tue Jan 28 14:44:12 2020.

 ----------------------------------------------------------------------
 #N Geom=AllCheck Guess=TCheck SCRF=Check GenChk RB3LYP/6-31G(2df,p) Fr
 eq
 ----------------------------------------------------------------------

 Structure from the checkpoint file:  "/scratch/puck/g09_e3038bc9-348c-45ee-aa5a-d4fb97fb2889/Gau-31808.chk"
 -----
 titel
 -----
 Charge =  0 Multiplicity = 1

                         Standard orientation:
 ---------------------------------------------------------------------
 Center     Atomic      Atomic             Coordinates (Angstroms)
 Number     Number       Type             X           Y           Z
 ---------------------------------------------------------------------
      1          6           0       -3.865082   -0.533616   -0.286349
      2          6           0       -2.469939   -0.176229   -0.075794
      3          6           0       -1.317404    0.123097    0.109851
      4          6           0        0.063158    0.463108    0.349745
      5          8           0        0.576241    0.085123    1.599158
      6          6           0        0.628767    1.745118   -0.216967
      7          6           0        1.046929    0.421749   -0.815384
      8          6           0        2.405749   -0.175530   -0.526270
      9          8           0        2.308232   -1.526916   -0.057002
     10          1           0       -4.522260    0.338662   -0.196470
     11          1           0       -4.022844   -0.967762   -1.280123
     12          1           0       -4.195302   -1.272894    0.451896
     13          1           0        0.967529   -0.792073    1.477621
     14          1           0       -0.029215    2.385386   -0.791836
     15          1           0        1.343164    2.257934    0.417875
     16          1           0        0.619671    0.171929   -1.782675
     17          1           0        3.052075   -0.117866   -1.413362
     18          1           0        2.900130    0.367252    0.281615
     19          1           0        1.858199   -2.042405   -0.734788
 ---------------------------------------------------------------------

 SCF Done:  E(RB3LYP) =  -423.136294783     A.U. after    1 cycles

 The electronic state is 1-A.
 Alpha  occ. eigenvalues --  -19.14989 -19.13252 -10.25480 -10.23666 -10.20225
 Alpha  occ. eigenvalues --  -10.19692 -10.19126 -10.17196 -10.16406  -1.03244
 Alpha  occ. eigenvalues --   -1.01686  -0.85546  -0.77167  -0.71608  -0.69085
 Alpha  occ. eigenvalues --   -0.60989  -0.59451  -0.53074  -0.52681  -0.47165
 Alpha  occ. eigenvalues --   -0.46324  -0.44765  -0.42578  -0.42455  -0.42386
 Alpha  occ. eigenvalues --   -0.39294  -0.39141  -0.34743  -0.34135  -0.30258
 Alpha  occ. eigenvalues --   -0.28470  -0.26948  -0.25112  -0.22792
 Alpha virt. eigenvalues --    0.04245   0.05443   0.07142   0.10426   0.11188
 Alpha virt. eigenvalues --    0.12338   0.14326   0.14724   0.15326   0.17156
 Alpha virt. eigenvalues --    0.18060   0.18186   0.19059   0.21406   0.22235

 Mulliken charges:
               1
     1  C   -0.501455
     2  C    0.084453
     3  C    0.042388
     4  C    0.201982
     5  O   -0.459481
     6  C   -0.330305
     7  C   -0.113805
     8  C   -0.097196
     9  O   -0.421977
    10  H    0.148026
    11  H    0.144588
    12  H    0.151272
    13  H    0.292110
    14  H    0.123078
    15  H    0.126762
    16  H    0.095767
    17  H    0.099867
    18  H    0.126302
    19  H    0.287623
 Sum of Mulliken charges =   0.00000

 Dipole moment (field-independent basis, Debye):
    X=             -0.4917    Y=             -0.5590    Z=             -2.6456  Tot=              2.7483
 Quadrupole moment (field-independent basis, Debye-Ang):
   XX=            -47.5481   YY=            -50.4020   ZZ=            -54.5856
   XY=              2.6724   XZ=             -1.2389   YZ=              0.9602

  Exact polarizability: 112.936   7.854  70.448   1.716   0.497  63.118
 Approx polarizability: 152.269  14.005 102.930   6.384   1.648  96.784

                      1                      2                      3
                      A                      A                      A
 Frequencies --     24.4283                71.1168                97.1203
 Red. masses --      1.0221                 4.3489                 3.4483
 Frc consts  --      0.0004                 0.0130                 0.0192
 IR Inten    --      0.0657                 0.4723                 1.8147

                      4                      5                      6
                      A                      A                      A
 Frequencies --    124.7691               187.0049               240.6925
 Red. masses --      3.1501                 3.9306                 3.1032
 Frc consts  --      0.0289                 0.0810                 0.1059
 IR Inten    --      6.1297                 6.5268                 6.4204

                      7                      8                      9
                      A                      A                      A
 Frequencies --    308.6159               319.4712               345.6364
 Red. masses --      3.2672                 1.5727                 4.2005
 Frc consts  --      0.1833                 0.0946                 0.2957
 IR Inten    --      2.3740                24.1463                 6.4673

                     10                     11                     12
                      A                      A                      A
 Frequencies --    371.2400               439.2981               493.8855
 Red. masses --      2.5286                 2.5810                 3.7663
 Frc consts  --      0.2053                 0.2935                 0.5413
 IR Inten    --     42.6649                10.2598                53.4032

                     13                     14                     15
                      A                      A                      A
 Frequencies --    525.4209               557.5805               586.7893
 Red. masses --      1.4430                 7.0245                 2.2622
 Frc consts  --      0.2347                 1.2867                 0.4589
 IR Inten    --    108.2308                 4.4078                38.8975

                     16                     17                     18
                      A                      A                      A
 Frequencies --    671.9169               805.4606               858.5631
 Red. masses --      3.2570                 2.0999                 3.0563
 Frc consts  --      0.8664                 0.8027                 1.3273
 IR Inten    --      1.0957                 3.3042                17.4562

                     19                     20                     21
                      A                      A                      A
 Frequencies --    903.7740               940.6128              1004.3418
 Red. masses --      2.0937                 1.4758                 2.3748
 Frc consts  --      1.0076                 0.7693                 1.4114
 IR Inten    --      5.3796                13.0487                 2.8335

                     22                     23                     24
                      A                      A                      A
 Frequencies --   1025.9178              1037.3326              1052.0518
 Red. masses --      4.6792                 2.3889                 1.4237
 Frc consts  --      2.9016                 1.5146                 0.9284
 IR Inten    --     49.8404                59.4594                 0.1541

                     25                     26                     27
                      A                      A                      A
 Frequencies --   1054.4980              1070.5469              1104.6666
 Red. masses --      1.3945                 1.3903                 2.3866
 Frc consts  --      0.9136                 0.9388                 1.7159
 IR Inten    --      1.1374                 3.7005                22.6268

                     28                     29                     30
                      A                      A                      A
 Frequencies --   1121.4765              1233.8268              1258.4885
 Red. masses --      1.2495                 1.5060                 2.2516
 Frc consts  --      0.9259                 1.3508                 2.1010
 IR Inten    --      5.1116                12.0227                75.2851

                     31                     32                     33
                      A                      A                      A
 Frequencies --   1295.4756              1354.6886              1394.6202
 Red. masses --      2.5163                 1.2317                 1.2908
 Frc consts  --      2.4881                 1.3318                 1.4792
 IR Inten    --     49.1081                 3.9117                40.3547

                     34                     35                     36
                      A                      A                      A
 Frequencies --   1399.1467              1414.4904              1428.5697
 Red. masses --      1.4654                 1.2600                 1.4461
 Frc consts  --      1.6902                 1.4853                 1.7388
 IR Inten    --     11.8873                 9.6033                38.5581

                     37                     38                     39
                      A                      A                      A
 Frequencies --   1470.1978              1476.4840              1479.9146
 Red. masses --      1.3557                 1.0398                 1.0405
 Frc consts  --      1.7265                 1.3355                 1.3426
 IR Inten    --      7.3961                 5.8064                 5.7439

                     40                     41                     42
                      A                      A                      A
 Frequencies --   1500.8227              2364.2609              3007.4941
 Red. masses --      1.0889                11.8794                 1.0710
 Frc consts  --      1.4450                39.1234                 5.7074
 IR Inten    --      1.4812                 1.7969                67.1920

                     43                     44                     45
                      A                      A                      A
 Frequencies --   3024.6688              3083.2476              3086.8904
 Red. masses --      1.0348                 1.1004                 1.0998
 Frc consts  --      5.5776                 6.1631                 6.1746
 IR Inten    --     36.9752                11.7767                 9.6504

                     46                     47                     48
                      A                      A                      A
 Frequencies --   3110.2805              3139.9131              3148.2675
 Red. masses --      1.0927                 1.0539                 1.0895
 Frc consts  --      6.2278                 6.1218                 6.3626
 IR Inten    --      7.6626                 8.7525                13.3183

                     49                     50                     51
                      A                      A                      A
 Frequencies --   3235.4959              3730.0854              3811.4470
 Red. masses --      1.1178                 1.0659                 1.0663
 Frc consts  --      6.8942                 8.7382                 9.1263
 IR Inten    --      4.6436                91.3409                20.0648

 - Thermochemistry -
 -------------------
 Temperature   298.150 Kelvin.  Pressure   1.00000 Atm.
 Atom     1 has atomic number  6 and mass  12.00000

 Molecular mass:   126.06808 amu.
 Principal axes and moments of inertia in atomic units:
                           1         2         3
     Eigenvalues --   598.535492130.466972256.66922
           X            0.99987   0.01594   0.00051
           Y           -0.01594   0.99987  -0.00164
           Z           -0.00054   0.00163   1.00000
 This molecule is an asymmetric top.
 Rotational symmetry number  1.
 Warning -- assumption of classical behavior for rotation
           may cause significant error
 Rotational temperatures (Kelvin)      0.14471     0.04065     0.03838
 Rotational constants (GHZ):           3.01526     0.84711     0.79974
 Zero-point vibrational energy     411473.5 (Joules/Mol)
                                   98.34454 (Kcal/Mol)
 Warning -- explicit consideration of  15 degrees of freedom as
           vibrations may cause significant error
 Vibrational temperatures:     35.15   102.32   139.73   179.51   269.06
          (Kelvin)            346.30   444.03   459.65   497.29   534.13
                              632.05   710.59   755.96   802.23   844.26
                              966.74  1158.88  1235.28  1300.33  1353.33
                             1445.02  1476.06  1492.49  1513.67  1517.19
                             1540.28  1589.37  1613.55  1775.20  1810.68
                             1863.90  1949.09  2006.54  2013.06  2035.13
                             2055.39  2115.28  2124.33  2129.26  2159.35
                             3401.64  4327.11  4351.82  4436.10  4441.34
                             4474.99  4517.63  4529.65  4655.15  5366.75
                             5483.82

 Zero-point correction=                           0.156722 (Hartree/Particle)
 Thermal correction to Energy=                    0.167014
 Thermal correction to Enthalpy=                  0.167959
 Thermal correction to Gibbs Free Energy=         0.120138
 Sum of electronic and zero-point Energies=           -422.979573
 Sum of electronic and thermal Energies=              -422.969280
 Sum of electronic and thermal Enthalpies=            -422.968336
 Sum of electronic and thermal Free Energies=         -423.016157

                     E (Thermal)             CV                S
                      KCal/Mol        Cal/Mol-Kelvin    Cal/Mol-Kelvin
 Total                  104.803             36.801            100.647
 Electronic               0.000              0.000              0.000
 Translational            0.889              2.981             40.409
 Rotational               0.889              2.981             29.444
 Vibrational            103.026             30.839             30.795
 Vibration     1          0.593              1.985              6.237
 Vibration     2          0.598              1.968              4.122
 Vibration     3          0.603              1.951              3.511
 Vibration     4          0.610              1.928              3.025
 Vibration     5          0.632              1.858              2.257
 Vibration     6          0.658              1.778              1.798
 Vibration     7          0.698              1.657              1.370
 Vibration     8          0.705              1.636              1.313
 Vibration     9          0.724              1.584              1.186
 Vibration    10          0.743              1.531              1.075
 Vibration    11          0.799              1.384              0.829
 Vibration    12          0.850              1.264              0.674
 Vibration    13          0.880              1.194              0.598
 Vibration    14          0.913              1.123              0.529
 Vibration    15          0.944              1.060              0.473

 Optimization completed on the basis of negligible forces.
    -- Stationary point found.
 Normal termination of Gaussian 09 at Tue Jan 28 15:14:22 2020.
