 Gaussian 09, Revision D.01,
 Gaussian 09:  ES64L-G09RevD.01 24-Apr-2013

 -----------------------------
 # b3lyp 6-31G(2df,p) opt Freq
 -----------------------------

 -----
 titel
 -----
 Symbolic Z-matrix:
 Charge =  0 Multiplicity = 1

 SCF Done:  E(RB3LYP) =  -423.171752688     A.U. after   14 cycles
 Optimization completed.
    -- Stationary point found.
 Normal termination of Gaussian 09 at Mon Jan 27 16:09:02 2020.

 ----------------------------------------------------------------------
 #N Geom=AllCheck Guess=TCheck SCRF=Check GenChk RB3LYP/6-31G(2df,p) Fr
 eq
 ----------------------------------------------------------------------

 Structure from the checkpoint file:  "/scratch/puck/g09_fe5581a9-6c83-4199-baca-9fa212729930/Gau-83257.chk"
 -----
 titel
 -----
 Charge =  0 Multiplicity = 1

                         Standard orientation:
 ---------------------------------------------------------------------
 Center     Atomic      Atomic             Coordinates (Angstroms)
 Number     Number       Type             X           Y           Z
 ---------------------------------------------------------------------
      1          6           0       -1.754292   -1.068743   -0.835729
      2          6           0       -1.039056   -0.031637    0.034957
      3          8           0       -1.940182    0.438856    1.050276
      4          6           0       -0.595589    1.199842   -0.733456
      5          6           0        0.657391    1.564531   -0.468509
      6          6           0        1.322473    0.623439    0.497214
      7          8           0        2.270730   -0.280893   -0.134053
      8          6           0        1.305946   -1.352305   -0.119414
      9          6           0        0.284784   -0.509587    0.683357
     10          1           0       -2.683937   -0.643060   -1.225067
     11          1           0       -1.143113   -1.389879   -1.682873
     12          1           0       -2.007379   -1.960794   -0.248980
     13          1           0       -2.374074   -0.330406    1.436391
     14          1           0       -1.280433    1.716701   -1.397484
     15          1           0        1.170507    2.418120   -0.897274
     16          1           0        1.771907    1.112825    1.367649
     17          1           0        0.998503   -1.642401   -1.131583
     18          1           0        1.696120   -2.236663    0.397294
     19          1           0        0.117566   -0.861389    1.701614
 ---------------------------------------------------------------------

 SCF Done:  E(RB3LYP) =  -423.171752688     A.U. after    1 cycles

 The electronic state is 1-A.
 Alpha  occ. eigenvalues --  -19.13472 -19.12671 -10.24442 -10.23162 -10.22803
 Alpha  occ. eigenvalues --  -10.18767 -10.18563 -10.18422 -10.18400  -1.03294
 Alpha  occ. eigenvalues --   -1.01688  -0.82867  -0.74797  -0.71907  -0.67528
 Alpha  occ. eigenvalues --   -0.63534  -0.54798  -0.53984  -0.51871  -0.48468
 Alpha  occ. eigenvalues --   -0.47429  -0.44667  -0.42851  -0.42185  -0.41133
 Alpha  occ. eigenvalues --   -0.38406  -0.36570  -0.36276  -0.32771  -0.31462
 Alpha  occ. eigenvalues --   -0.31220  -0.26628  -0.26305  -0.24378
 Alpha virt. eigenvalues --    0.00488   0.07012   0.09710   0.10803   0.11056
 Alpha virt. eigenvalues --    0.12527   0.13551   0.15728   0.16185   0.17137
 Alpha virt. eigenvalues --    0.18585   0.19274   0.20320   0.20812   0.22584

 Mulliken charges:
               1
     1  C   -0.455457
     2  C    0.330113
     3  O   -0.471969
     4  C   -0.074908
     5  C   -0.096204
     6  C    0.086139
     7  O   -0.297050
     8  C   -0.096601
     9  C   -0.122895
    10  H    0.127062
    11  H    0.128174
    12  H    0.108178
    13  H    0.273454
    14  H    0.100405
    15  H    0.104201
    16  H    0.082926
    17  H    0.097831
    18  H    0.102098
    19  H    0.074500
 Sum of Mulliken charges =   0.00000

 Dipole moment (field-independent basis, Debye):
    X=             -1.5797    Y=             -1.3397    Z=              0.0913  Tot=              2.0733
 Quadrupole moment (field-independent basis, Debye-Ang):
   XX=            -57.7311   YY=            -50.3425   ZZ=            -51.7804
   XY=              4.1978   XZ=              1.7208   YZ=             -2.9173

  Exact polarizability:  84.911   3.878  76.449   3.803  -3.043  65.046
 Approx polarizability: 128.295   6.722 109.319   4.169  -2.696  98.527

                      1                      2                      3
                      A                      A                      A
 Frequencies --     83.3374               195.9508               224.2753
 Red. masses --      3.1515                 3.9302                 1.8752
 Frc consts  --      0.0129                 0.0889                 0.0556
 IR Inten    --      1.1512                 2.8646                 0.3387

                      4                      5                      6
                      A                      A                      A
 Frequencies --    252.6376               278.0708               337.3281
 Red. masses --      1.3045                 1.0708                 2.8072
 Frc consts  --      0.0491                 0.0488                 0.1882
 IR Inten    --      4.3130                84.6987                 1.8475

                      7                      8                      9
                      A                      A                      A
 Frequencies --    356.9064               390.8503               440.2203
 Red. masses --      4.0453                 3.4247                 2.5668
 Frc consts  --      0.3036                 0.3082                 0.2931
 IR Inten    --     12.4267                 4.4031                12.2205

                     10                     11                     12
                      A                      A                      A
 Frequencies --    578.5994               594.0571               717.7334
 Red. masses --      3.5170                 4.0056                 5.4751
 Frc consts  --      0.6937                 0.8329                 1.6618
 IR Inten    --      3.6806                 2.9756                 3.5373

                     13                     14                     15
                      A                      A                      A
 Frequencies --    754.4003               794.4020               869.3678
 Red. masses --      2.5564                 1.6223                 2.0968
 Frc consts  --      0.8572                 0.6032                 0.9337
 IR Inten    --      0.7816                12.6006                11.5189

                     16                     17                     18
                      A                      A                      A
 Frequencies --    897.7997               907.5662               937.5883
 Red. masses --      2.7618                 2.3598                 2.1204
 Frc consts  --      1.3116                 1.1452                 1.0982
 IR Inten    --      2.5864                 4.9988                22.6501

                     19                     20                     21
                      A                      A                      A
 Frequencies --    964.1734               983.8719              1005.4770
 Red. masses --      2.4802                 1.3754                 1.9282
 Frc consts  --      1.3585                 0.7845                 1.1485
 IR Inten    --     35.1323                 3.0151                11.8574

                     22                     23                     24
                      A                      A                      A
 Frequencies --   1014.1623              1024.6181              1056.9753
 Red. masses --      4.4631                 2.3214                 3.2012
 Frc consts  --      2.7046                 1.4359                 2.1071
 IR Inten    --     62.4273                 9.0671                12.4081

                     25                     26                     27
                      A                      A                      A
 Frequencies --   1101.9948              1123.3228              1146.5893
 Red. masses --      1.3224                 1.4781                 2.6910
 Frc consts  --      0.9462                 1.0989                 2.0844
 IR Inten    --     45.9785                19.4986                49.6867

                     28                     29                     30
                      A                      A                      A
 Frequencies --   1170.1301              1213.2284              1226.6272
 Red. masses --      1.1794                 1.8024                 2.1474
 Frc consts  --      0.9515                 1.5631                 1.9037
 IR Inten    --     10.6613                 5.1333                 9.0182

                     31                     32                     33
                      A                      A                      A
 Frequencies --   1264.0705              1301.1854              1312.9507
 Red. masses --      1.4288                 1.5176                 1.3463
 Frc consts  --      1.3451                 1.5138                 1.3674
 IR Inten    --      3.7048                 9.6514                 3.0229

                     34                     35                     36
                      A                      A                      A
 Frequencies --   1350.2787              1356.1736              1402.2255
 Red. masses --      1.6096                 1.4613                 1.5123
 Frc consts  --      1.7291                 1.5835                 1.7520
 IR Inten    --     16.1840                20.7899                28.4047

                     37                     38                     39
                      A                      A                      A
 Frequencies --   1408.8253              1490.2060              1496.3118
 Red. masses --      1.4754                 1.0541                 1.0750
 Frc consts  --      1.7254                 1.3791                 1.4181
 IR Inten    --      4.7269                 1.4976                 7.2482

                     40                     41                     42
                      A                      A                      A
 Frequencies --   1520.9764              1680.0306              3018.0113
 Red. masses --      1.0989                 6.8245                 1.0541
 Frc consts  --      1.4977                11.3489                 5.6567
 IR Inten    --      1.6350                 0.4100                50.1645

                     43                     44                     45
                      A                      A                      A
 Frequencies --   3026.1942              3052.6310              3059.0726
 Red. masses --      1.0418                 1.0865                 1.1095
 Frc consts  --      5.6210                 5.9653                 6.1172
 IR Inten    --     38.5154                42.0023                34.8110

                     46                     47                     48
                      A                      A                      A
 Frequencies --   3096.1188              3108.7695              3122.4635
 Red. masses --      1.0955                 1.0886                 1.1010
 Frc consts  --      6.1870                 6.1986                 6.3244
 IR Inten    --     18.4438                29.0437                21.0151

                     49                     50                     51
                      A                      A                      A
 Frequencies --   3182.9512              3208.3778              3794.1378
 Red. masses --      1.0850                 1.1041                 1.0659
 Frc consts  --      6.4763                 6.6963                 9.0403
 IR Inten    --      6.6666                15.7562                10.2744

 - Thermochemistry -
 -------------------
 Temperature   298.150 Kelvin.  Pressure   1.00000 Atm.
 Atom     1 has atomic number  6 and mass  12.00000

 Molecular mass:   126.06808 amu.
 Principal axes and moments of inertia in atomic units:
                           1         2         3
     Eigenvalues --   638.023931187.784921400.49938
           X            0.99914   0.03371   0.02431
           Y           -0.03363   0.99943  -0.00370
           Z           -0.02442   0.00288   0.99970
 This molecule is an asymmetric top.
 Rotational symmetry number  1.
 Warning -- assumption of classical behavior for rotation
           may cause significant error
 Rotational temperatures (Kelvin)      0.13575     0.07292     0.06184
 Rotational constants (GHZ):           2.82864     1.51942     1.28864
 Zero-point vibrational energy     418060.3 (Joules/Mol)
                                   99.91881 (Kcal/Mol)
 Warning -- explicit consideration of  11 degrees of freedom as
           vibrations may cause significant error
 Vibrational temperatures:    119.90   281.93   322.68   363.49   400.08
          (Kelvin)            485.34   513.51   562.35   633.38   832.47
                              854.71  1032.66  1085.41  1142.97  1250.82
                             1291.73  1305.78  1348.98  1387.23  1415.57
                             1446.66  1459.15  1474.20  1520.75  1585.52
                             1616.21  1649.68  1683.55  1745.56  1764.84
                             1818.71  1872.11  1889.04  1942.75  1951.23
                             2017.49  2026.98  2144.07  2152.86  2188.34
                             2417.19  4342.24  4354.01  4392.05  4401.32
                             4454.62  4472.82  4492.52  4579.55  4616.13
                             5458.91

 Zero-point correction=                           0.159231 (Hartree/Particle)
 Thermal correction to Energy=                    0.167418
 Thermal correction to Enthalpy=                  0.168362
 Thermal correction to Gibbs Free Energy=         0.126788
 Sum of electronic and zero-point Energies=           -423.012522
 Sum of electronic and thermal Energies=              -423.004335
 Sum of electronic and thermal Enthalpies=            -423.003391
 Sum of electronic and thermal Free Energies=         -423.044964

                     E (Thermal)             CV                S
                      KCal/Mol        Cal/Mol-Kelvin    Cal/Mol-Kelvin
 Total                  105.056             32.154             87.499
 Electronic               0.000              0.000              0.000
 Translational            0.889              2.981             40.409
 Rotational               0.889              2.981             28.453
 Vibrational            103.279             26.193             18.638
 Vibration     1          0.600              1.961              3.811
 Vibration     2          0.636              1.846              2.171
 Vibration     3          0.649              1.804              1.924
 Vibration     4          0.664              1.758              1.712
 Vibration     5          0.679              1.714              1.546
 Vibration     6          0.718              1.601              1.225
 Vibration     7          0.732              1.561              1.136
 Vibration     8          0.759              1.490              0.997
 Vibration     9          0.800              1.382              0.826
 Vibration    10          0.935              1.078              0.488
 Vibration    11          0.952              1.044              0.460

 Optimization completed.
    -- Stationary point found.
 Normal termination of Gaussian 09 at Mon Jan 27 16:54:41 2020.
