 Gaussian 09, Revision D.01,
 Gaussian 09:  ES64L-G09RevD.01 24-Apr-2013

 -----------------------------
 # b3lyp 6-31G(2df,p) opt Freq
 -----------------------------

 -----
 titel
 -----
 Symbolic Z-matrix:
 Charge =  0 Multiplicity = 1

 SCF Done:  E(RB3LYP) =  -423.125878775     A.U. after   13 cycles
 Optimization completed.
    -- Stationary point found.
 Normal termination of Gaussian 09 at Mon Jan 27 17:01:35 2020.

 ----------------------------------------------------------------------
 #N Geom=AllCheck Guess=TCheck SCRF=Check GenChk RB3LYP/6-31G(2df,p) Fr
 eq
 ----------------------------------------------------------------------

 Structure from the checkpoint file:  "/scratch/puck/g09_808bfcb5-a632-4f43-b417-cd6d09ac643f/Gau-48796.chk"
 -----
 titel
 -----
 Charge =  0 Multiplicity = 1

                         Standard orientation:
 ---------------------------------------------------------------------
 Center     Atomic      Atomic             Coordinates (Angstroms)
 Number     Number       Type             X           Y           Z
 ---------------------------------------------------------------------
      1          6           0        2.320859    0.463092    0.230931
      2          6           0        0.991334   -0.250262    0.033598
      3          8           0        1.205452   -1.648258   -0.176963
      4          6           0       -0.116554   -0.139198    1.072612
      5          6           0       -1.009604    1.080877    0.694094
      6          6           0       -0.405198    1.726827   -0.552292
      7          6           0       -0.052076    0.284927   -1.000919
      8          6           0       -1.177719   -0.238577    0.009585
      9          8           0       -2.283764   -1.027125   -0.134449
     10          1           0        2.933469    0.408284   -0.678397
     11          1           0        2.189188    1.517927    0.482013
     12          1           0        2.878684   -0.014598    1.042368
     13          1           0        1.790296   -1.738765   -0.937630
     14          1           0       -0.127883   -0.548350    2.075028
     15          1           0       -1.651149    1.523978    1.445179
     16          1           0       -1.184364    2.165590   -1.181959
     17          1           0        0.415619    2.443066   -0.441933
     18          1           0        0.058473    0.021999   -2.052497
     19          1           0       -1.982090   -1.942184   -0.186526
 ---------------------------------------------------------------------

 SCF Done:  E(RB3LYP) =  -423.125878775     A.U. after    1 cycles

 The electronic state is 1-A.
 Alpha  occ. eigenvalues --  -19.15152 -19.13405 -10.23670 -10.23403 -10.18876
 Alpha  occ. eigenvalues --  -10.18546 -10.18253 -10.18075 -10.17380  -1.03874
 Alpha  occ. eigenvalues --   -1.01765  -0.91343  -0.74045  -0.71463  -0.67185
 Alpha  occ. eigenvalues --   -0.60947  -0.55609  -0.53341  -0.51754  -0.49068
 Alpha  occ. eigenvalues --   -0.45723  -0.44614  -0.42295  -0.40604  -0.39552
 Alpha  occ. eigenvalues --   -0.38874  -0.36405  -0.35514  -0.33533  -0.30805
 Alpha  occ. eigenvalues --   -0.30783  -0.26417  -0.24795  -0.23254
 Alpha virt. eigenvalues --    0.07217   0.08866   0.10579   0.11703   0.12395
 Alpha virt. eigenvalues --    0.13122   0.15210   0.15758   0.16327   0.16814
 Alpha virt. eigenvalues --    0.18422   0.19216   0.21689   0.22153   0.23527

 Mulliken charges:
               1
     1  C   -0.472912
     2  C    0.434767
     3  O   -0.490368
     4  C   -0.182742
     5  C   -0.129480
     6  C   -0.250316
     7  C   -0.202215
     8  C    0.400469
     9  O   -0.458023
    10  H    0.102788
    11  H    0.124247
    12  H    0.124945
    13  H    0.272583
    14  H    0.087193
    15  H    0.090710
    16  H    0.105137
    17  H    0.088348
    18  H    0.060794
    19  H    0.294077
 Sum of Mulliken charges =   0.00000

 Dipole moment (field-independent basis, Debye):
    X=              1.4146    Y=              0.0430    Z=             -0.7176  Tot=              1.5868
 Quadrupole moment (field-independent basis, Debye-Ang):
   XX=            -55.2113   YY=            -51.3910   ZZ=            -50.6123
   XY=              0.2108   XZ=             -2.7437   YZ=              1.9083

  Exact polarizability:  79.547  -1.513  75.769  -1.705   0.000  68.723
 Approx polarizability: 110.219  -1.518 113.690  -1.404   1.221 106.807

                      1                      2                      3
                      A                      A                      A
 Frequencies --    136.5826               209.3714               222.4341
 Red. masses --      4.3063                 2.8613                 1.1039
 Frc consts  --      0.0473                 0.0739                 0.0322
 IR Inten    --      1.9658                 1.1140                 0.2338

                      4                      5                      6
                      A                      A                      A
 Frequencies --    306.5496               310.6373               340.5048
 Red. masses --      1.6523                 1.4156                 2.4653
 Frc consts  --      0.0915                 0.0805                 0.1684
 IR Inten    --     43.3780                25.0995                14.0349

                      7                      8                      9
                      A                      A                      A
 Frequencies --    390.2741               396.6145               408.2598
 Red. masses --      2.4970                 1.7876                 2.3304
 Frc consts  --      0.2241                 0.1657                 0.2289
 IR Inten    --     11.9784                67.0731                38.0605

                     10                     11                     12
                      A                      A                      A
 Frequencies --    486.9187               548.3820               597.6836
 Red. masses --      2.8904                 3.0156                 4.0348
 Frc consts  --      0.4038                 0.5343                 0.8492
 IR Inten    --     10.3719                 3.9747                18.2844

                     13                     14                     15
                      A                      A                      A
 Frequencies --    649.7690               732.5342               793.9107
 Red. masses --      2.8340                 3.7183                 3.7467
 Frc consts  --      0.7050                 1.1756                 1.3914
 IR Inten    --      4.0731                 1.8174                 3.8813

                     16                     17                     18
                      A                      A                      A
 Frequencies --    858.3583               902.8085               912.7127
 Red. masses --      1.8718                 2.2495                 2.1333
 Frc consts  --      0.8125                 1.0803                 1.0471
 IR Inten    --      3.1365                10.2960                19.2276

                     19                     20                     21
                      A                      A                      A
 Frequencies --    923.9452               952.8102               957.9079
 Red. masses --      1.7351                 1.7450                 1.7703
 Frc consts  --      0.8727                 0.9334                 0.9571
 IR Inten    --     10.0814                 4.8217                 1.8414

                     22                     23                     24
                      A                      A                      A
 Frequencies --    988.0337              1018.3263              1040.5247
 Red. masses --      1.4929                 2.3197                 1.9918
 Frc consts  --      0.8586                 1.4173                 1.2706
 IR Inten    --      1.5846                 4.1990                 2.0980

                     25                     26                     27
                      A                      A                      A
 Frequencies --   1082.2631              1095.0973              1114.5325
 Red. masses --      1.5210                 1.9289                 1.5023
 Frc consts  --      1.0496                 1.3629                 1.0995
 IR Inten    --     20.5436                15.5741                 1.5551

                     28                     29                     30
                      A                      A                      A
 Frequencies --   1145.2545              1159.6439              1187.9369
 Red. masses --      2.1213                 1.9609                 3.0661
 Frc consts  --      1.6393                 1.5537                 2.5493
 IR Inten    --     41.7229                13.2656                72.9335

                     31                     32                     33
                      A                      A                      A
 Frequencies --   1203.6861              1235.8514              1265.7024
 Red. masses --      1.6740                 2.1110                 1.6665
 Frc consts  --      1.4290                 1.8997                 1.5730
 IR Inten    --      9.5208                19.2866                16.3055

                     34                     35                     36
                      A                      A                      A
 Frequencies --   1291.7298              1317.9575              1396.1752
 Red. masses --      1.7224                 1.5342                 1.7072
 Frc consts  --      1.6933                 1.5701                 1.9607
 IR Inten    --     34.5508               158.9845                 6.8834

                     37                     38                     39
                      A                      A                      A
 Frequencies --   1406.4082              1484.5375              1487.5889
 Red. masses --      1.4526                 1.2492                 1.0921
 Frc consts  --      1.6928                 1.6220                 1.4239
 IR Inten    --     22.9911                25.2451                 4.3013

                     40                     41                     42
                      A                      A                      A
 Frequencies --   1500.0149              1515.9156              3022.9178
 Red. masses --      1.6592                 1.4820                 1.0427
 Frc consts  --      2.1996                 2.0066                 5.6136
 IR Inten    --     14.9558                28.4382                23.7290

                     43                     44                     45
                      A                      A                      A
 Frequencies --   3044.0884              3092.4644              3096.6389
 Red. masses --      1.0580                 1.0948                 1.1053
 Frc consts  --      5.7763                 6.1686                 6.2447
 IR Inten    --     54.5430                15.1373                34.0148

                     46                     47                     48
                      A                      A                      A
 Frequencies --   3122.2643              3126.5095              3194.6310
 Red. masses --      1.0912                 1.0991                 1.0918
 Frc consts  --      6.2677                 6.3302                 6.5650
 IR Inten    --     30.1297                22.0782                 4.6569

                     49                     50                     51
                      A                      A                      A
 Frequencies --   3203.5036              3779.4544              3794.7161
 Red. masses --      1.0945                 1.0658                 1.0658
 Frc consts  --      6.6180                 8.9696                 9.0427
 IR Inten    --     18.1044                27.9670                10.6241

 - Thermochemistry -
 -------------------
 Temperature   298.150 Kelvin.  Pressure   1.00000 Atm.
 Atom     1 has atomic number  6 and mass  12.00000

 Molecular mass:   126.06808 amu.
 Principal axes and moments of inertia in atomic units:
                           1         2         3
     Eigenvalues --   677.280801067.939061375.84482
           X            0.99991   0.01252  -0.00416
           Y           -0.01253   0.99992  -0.00235
           Z            0.00413   0.00240   0.99999
 This molecule is an asymmetric top.
 Rotational symmetry number  1.
 Warning -- assumption of classical behavior for rotation
           may cause significant error
 Rotational temperatures (Kelvin)      0.12788     0.08110     0.06295
 Rotational constants (GHZ):           2.66469     1.68993     1.31173
 Zero-point vibrational energy     415423.2 (Joules/Mol)
                                   99.28853 (Kcal/Mol)
 Warning -- explicit consideration of  12 degrees of freedom as
           vibrations may cause significant error
 Vibrational temperatures:    196.51   301.24   320.03   441.06   446.94
          (Kelvin)            489.91   561.52   570.64   587.39   700.57
                              789.00   859.93   934.87  1053.95  1142.26
                             1234.98  1298.94  1313.19  1329.35  1370.88
                             1378.21  1421.56  1465.14  1497.08  1557.13
                             1575.60  1603.56  1647.76  1668.47  1709.17
                             1731.83  1778.11  1821.06  1858.51  1896.24
                             2008.78  2023.51  2135.92  2140.31  2158.18
                             2181.06  4349.30  4379.76  4449.36  4455.37
                             4492.24  4498.34  4596.36  4609.12  5437.79
                             5459.74

 Zero-point correction=                           0.158226 (Hartree/Particle)
 Thermal correction to Energy=                    0.166467
 Thermal correction to Enthalpy=                  0.167411
 Thermal correction to Gibbs Free Energy=         0.126232
 Sum of electronic and zero-point Energies=           -422.967652
 Sum of electronic and thermal Energies=              -422.959412
 Sum of electronic and thermal Enthalpies=            -422.958468
 Sum of electronic and thermal Free Energies=         -422.999647

                     E (Thermal)             CV                S
                      KCal/Mol        Cal/Mol-Kelvin    Cal/Mol-Kelvin
 Total                  104.460             33.499             86.669
 Electronic               0.000              0.000              0.000
 Translational            0.889              2.981             40.409
 Rotational               0.889              2.981             28.389
 Vibrational            102.682             27.537             17.872
 Vibration     1          0.614              1.917              2.851
 Vibration     2          0.642              1.826              2.049
 Vibration     3          0.648              1.807              1.939
 Vibration     4          0.697              1.661              1.381
 Vibration     5          0.699              1.653              1.359
 Vibration     6          0.720              1.595              1.210
 Vibration     7          0.758              1.491              0.999
 Vibration     8          0.763              1.477              0.975
 Vibration     9          0.773              1.452              0.933
 Vibration    10          0.843              1.279              0.692
 Vibration    11          0.904              1.143              0.548
 Vibration    12          0.956              1.037              0.454

 Normal termination of Gaussian 09 at Mon Jan 27 17:47:04 2020.
