 Gaussian 09, Revision D.01,
 Gaussian 09:  ES64L-G09RevD.01 24-Apr-2013

 -----------------------------
 # b3lyp 6-31G(2df,p) opt Freq
 -----------------------------

 -----
 titel
 -----
 Symbolic Z-matrix:
 Charge =  0 Multiplicity = 1

 SCF Done:  E(RB3LYP) =  -423.126068118     A.U. after   14 cycles
 SCF Done:  E(RB3LYP) =  -423.126068106     A.U. after    6 cycles
 SCF Done:  E(RB3LYP) =  -423.126068199     A.U. after    7 cycles
 SCF Done:  E(RB3LYP) =  -423.126068258     A.U. after    7 cycles
 Optimization completed.
    -- Stationary point found.
 Normal termination of Gaussian 09 at Tue Jan 28 09:15:07 2020.

 ----------------------------------------------------------------------
 #N Geom=AllCheck Guess=TCheck SCRF=Check GenChk RB3LYP/6-31G(2df,p) Fr
 eq
 ----------------------------------------------------------------------

 Structure from the checkpoint file:  "/scratch/puck/g09_1551631c-693e-47c7-bced-e65303469451/Gau-16373.chk"
 -----
 titel
 -----
 Charge =  0 Multiplicity = 1

                         Standard orientation:
 ---------------------------------------------------------------------
 Center     Atomic      Atomic             Coordinates (Angstroms)
 Number     Number       Type             X           Y           Z
 ---------------------------------------------------------------------
      1          6           0       -2.025970    0.862652   -0.482751
      2          6           0       -1.136768   -0.270997   -0.022825
      3          8           0       -1.265005   -1.429466   -0.800769
      4          6           0       -0.792736   -0.466718    1.431163
      5          6           0        0.290330   -0.021121    0.443373
      6          6           0        0.833992    1.401960    0.541330
      7          8           0        1.261147    1.906063   -0.708072
      8          6           0        1.306118   -0.962348    0.051749
      9          6           0        2.226341   -1.659548   -0.288656
     10          1           0       -1.780131    1.146076   -1.509541
     11          1           0       -3.074762    0.542188   -0.455320
     12          1           0       -1.940075    1.746749    0.151790
     13          1           0       -2.141122   -1.796766   -0.638380
     14          1           0       -1.126366    0.268709    2.156826
     15          1           0       -0.731543   -1.485202    1.795821
     16          1           0        0.059303    2.085041    0.898513
     17          1           0        1.648184    1.411499    1.282273
     18          1           0        1.898520    1.274533   -1.062706
     19          1           0        3.011016   -2.308886   -0.588854
 ---------------------------------------------------------------------

 SCF Done:  E(RB3LYP) =  -423.126068258     A.U. after    1 cycles

 The electronic state is 1-A.
 Alpha  occ. eigenvalues --  -19.14510 -19.13162 -10.25154 -10.23249 -10.21691
 Alpha  occ. eigenvalues --  -10.19402 -10.18308 -10.18146 -10.17117  -1.03486
 Alpha  occ. eigenvalues --   -1.01517  -0.86767  -0.75141  -0.71836  -0.69476
 Alpha  occ. eigenvalues --   -0.62261  -0.58624  -0.53264  -0.50839  -0.49952
 Alpha  occ. eigenvalues --   -0.46750  -0.46498  -0.41801  -0.41588  -0.41214
 Alpha  occ. eigenvalues --   -0.40418  -0.36821  -0.35553  -0.32754  -0.30446
 Alpha  occ. eigenvalues --   -0.28353  -0.27362  -0.24801  -0.24593
 Alpha virt. eigenvalues --    0.04351   0.05190   0.07435   0.09709   0.10287
 Alpha virt. eigenvalues --    0.11783   0.13419   0.14413   0.15167   0.15626
 Alpha virt. eigenvalues --    0.16763   0.17806   0.19757   0.21308   0.22657

 Mulliken charges:
               1
     1  C   -0.444666
     2  C    0.376754
     3  O   -0.452067
     4  C   -0.394096
     5  C    0.037522
     6  C   -0.120017
     7  O   -0.419334
     8  C    0.300967
     9  C   -0.463744
    10  H    0.143849
    11  H    0.107181
    12  H    0.121485
    13  H    0.283128
    14  H    0.114325
    15  H    0.125447
    16  H    0.102775
    17  H    0.097843
    18  H    0.289100
    19  H    0.193548
 Sum of Mulliken charges =   0.00000

 Dipole moment (field-independent basis, Debye):
    X=             -1.3763    Y=             -0.7434    Z=              1.2699  Tot=              2.0148
 Quadrupole moment (field-independent basis, Debye-Ang):
   XX=            -44.8107   YY=            -55.4084   ZZ=            -53.7959
   XY=             -1.1335   XZ=             -1.9218   YZ=              1.8128

  Exact polarizability:  92.898 -10.955  77.662  -5.557   3.374  66.281
 Approx polarizability: 134.255 -20.576 113.045 -14.049   8.277 101.406

                      1                      2                      3
                      A                      A                      A
 Frequencies --     65.1528               115.9073               134.8219
 Red. masses --      4.0639                 3.3822                 3.4376
 Frc consts  --      0.0102                 0.0268                 0.0368
 IR Inten    --      2.8044                 0.9088                 0.4804

                      4                      5                      6
                      A                      A                      A
 Frequencies --    155.8199               188.6578               253.8200
 Red. masses --      2.4148                 1.5448                 1.0914
 Frc consts  --      0.0345                 0.0324                 0.0414
 IR Inten    --      2.1084                 3.1355                90.7247

                      7                      8                      9
                      A                      A                      A
 Frequencies --    277.6507               351.1598               362.5150
 Red. masses --      2.0890                 3.5690                 2.0125
 Frc consts  --      0.0949                 0.2593                 0.1558
 IR Inten    --      3.7455                 1.5164                29.6216

                     10                     11                     12
                      A                      A                      A
 Frequencies --    377.8793               399.7296               436.3483
 Red. masses --      2.3207                 1.8681                 3.1249
 Frc consts  --      0.1952                 0.1759                 0.3506
 IR Inten    --     25.0399                43.1351                17.8965

                     13                     14                     15
                      A                      A                      A
 Frequencies --    477.8686               565.2993               584.7910
 Red. masses --      3.1117                 4.6290                 3.7778
 Frc consts  --      0.4187                 0.8715                 0.7612
 IR Inten    --     12.7865                 8.1079                13.3852

                     16                     17                     18
                      A                      A                      A
 Frequencies --    598.2431               657.6864               675.6168
 Red. masses --      1.2403                 1.2387                 3.7897
 Frc consts  --      0.2615                 0.3157                 1.0192
 IR Inten    --     50.3254                45.0382                 6.4230

                     19                     20                     21
                      A                      A                      A
 Frequencies --    770.0113               869.1307               908.1863
 Red. masses --      4.2863                 2.6001                 1.2892
 Frc consts  --      1.4974                 1.1572                 0.6265
 IR Inten    --      1.7239                13.1422                 2.2867

                     22                     23                     24
                      A                      A                      A
 Frequencies --    930.4276               974.9574              1005.6245
 Red. masses --      1.7135                 2.1976                 1.7139
 Frc consts  --      0.8740                 1.2308                 1.0212
 IR Inten    --      0.9181                14.7651                18.1889

                     25                     26                     27
                      A                      A                      A
 Frequencies --   1051.5235              1078.0523              1084.3054
 Red. masses --      1.3948                 1.7095                 3.3570
 Frc consts  --      0.9086                 1.1705                 2.3254
 IR Inten    --     17.7161                27.4185                69.4049

                     28                     29                     30
                      A                      A                      A
 Frequencies --   1132.1276              1198.9803              1239.6769
 Red. masses --      2.2059                 2.4912                 1.8842
 Frc consts  --      1.6658                 2.1100                 1.7061
 IR Inten    --     28.7522                29.8496                14.5053

                     31                     32                     33
                      A                      A                      A
 Frequencies --   1280.9455              1313.7372              1374.4342
 Red. masses --      2.1690                 1.9829                 1.2683
 Frc consts  --      2.0969                 2.0164                 1.4116
 IR Inten    --     77.6463                11.7101                 5.5247

                     34                     35                     36
                      A                      A                      A
 Frequencies --   1393.5397              1415.5684              1429.6739
 Red. masses --      1.5785                 1.3463                 1.2907
 Frc consts  --      1.8061                 1.5895                 1.5543
 IR Inten    --      6.7583                31.6826                46.6441

                     37                     38                     39
                      A                      A                      A
 Frequencies --   1470.6723              1483.0344              1497.3967
 Red. masses --      1.2250                 1.0545                 1.2677
 Frc consts  --      1.5611                 1.3665                 1.6747
 IR Inten    --     10.9245                 4.8537                 6.0984

                     40                     41                     42
                      A                      A                      A
 Frequencies --   1510.5765              2227.9773              2987.5629
 Red. masses --      1.0835                 6.0322                 1.0711
 Frc consts  --      1.4567                17.6419                 5.6326
 IR Inten    --      2.3636                12.2312                57.2966

                     43                     44                     45
                      A                      A                      A
 Frequencies --   3031.4469              3091.4946              3102.7133
 Red. masses --      1.0432                 1.0923                 1.0917
 Frc consts  --      5.6482                 6.1505                 6.1921
 IR Inten    --     28.1555                28.7396                16.0490

                     46                     47                     48
                      A                      A                      A
 Frequencies --   3128.6944              3136.5064              3228.0342
 Red. masses --      1.0577                 1.0981                 1.1166
 Frc consts  --      6.1002                 6.3649                 6.8555
 IR Inten    --      5.2879                21.2086                 4.3032

                     49                     50                     51
                      A                      A                      A
 Frequencies --   3502.1692              3785.0310              3794.4777
 Red. masses --      1.1596                 1.0657                 1.0660
 Frc consts  --      8.3799                 8.9953                 9.0430
 IR Inten    --     79.0651                25.0723                17.4207

 - Thermochemistry -
 -------------------
 Temperature   298.150 Kelvin.  Pressure   1.00000 Atm.
 Atom     1 has atomic number  6 and mass  12.00000

 Molecular mass:   126.06808 amu.
 Principal axes and moments of inertia in atomic units:
                           1         2         3
     Eigenvalues --   934.014691138.114951591.03922
           X            0.99676  -0.08043  -0.00169
           Y            0.08044   0.99672   0.00849
           Z            0.00100  -0.00860   0.99996
 This molecule is an asymmetric top.
 Rotational symmetry number  1.
 Warning -- assumption of classical behavior for rotation
           may cause significant error
 Rotational temperatures (Kelvin)      0.09273     0.07610     0.05444
 Rotational constants (GHZ):           1.93224     1.58573     1.13432
 Zero-point vibrational energy     407374.3 (Joules/Mol)
                                   97.36478 (Kcal/Mol)
 Warning -- explicit consideration of  16 degrees of freedom as
           vibrations may cause significant error
 Vibrational temperatures:     93.74   166.76   193.98   224.19   271.44
          (Kelvin)            365.19   399.48   505.24   521.58   543.68
                              575.12   627.81   687.55   813.34   841.38
                              860.74   946.26   972.06  1107.87  1250.48
                             1306.68  1338.68  1402.74  1446.87  1512.91
                             1551.07  1560.07  1628.88  1725.06  1783.62
                             1842.99  1890.17  1977.50  2004.99  2036.68
                             2056.98  2115.97  2133.75  2154.42  2173.38
                             3205.56  4298.43  4361.57  4447.97  4464.11
                             4501.49  4512.73  4644.42  5038.83  5445.81
                             5459.40

 Zero-point correction=                           0.155161 (Hartree/Particle)
 Thermal correction to Energy=                    0.165477
 Thermal correction to Enthalpy=                  0.166421
 Thermal correction to Gibbs Free Energy=         0.120288
 Sum of electronic and zero-point Energies=           -422.970908
 Sum of electronic and thermal Energies=              -422.960591
 Sum of electronic and thermal Enthalpies=            -422.959647
 Sum of electronic and thermal Free Energies=         -423.005780

                     E (Thermal)             CV                S
                      KCal/Mol        Cal/Mol-Kelvin    Cal/Mol-Kelvin
 Total                  103.839             38.367             97.095
 Electronic               0.000              0.000              0.000
 Translational            0.889              2.981             40.409
 Rotational               0.889              2.981             28.916
 Vibrational            102.061             32.406             27.771
 Vibration     1          0.597              1.971              4.295
 Vibration     2          0.608              1.936              3.168
 Vibration     3          0.613              1.919              2.876
 Vibration     4          0.620              1.896              2.600
 Vibration     5          0.633              1.855              2.241
 Vibration     6          0.665              1.756              1.704
 Vibration     7          0.679              1.715              1.548
 Vibration     8          0.728              1.573              1.161
 Vibration     9          0.736              1.549              1.111
 Vibration    10          0.748              1.517              1.048
 Vibration    11          0.766              1.471              0.964
 Vibration    12          0.797              1.391              0.838
 Vibration    13          0.834              1.299              0.716
 Vibration    14          0.921              1.106              0.513
 Vibration    15          0.942              1.064              0.477
 Vibration    16          0.956              1.036              0.453

 Optimization completed.
    -- Stationary point found.
 Normal termination of Gaussian 09 at Tue Jan 28 09:56:40 2020.
