 Gaussian 09, Revision D.01,
 Gaussian 09:  ES64L-G09RevD.01 24-Apr-2013

 -----------------------------
 # b3lyp 6-31G(2df,p) opt Freq
 -----------------------------

 -----
 titel
 -----
 Symbolic Z-matrix:
 Charge =  0 Multiplicity = 1

 SCF Done:  E(RB3LYP) =  -423.189203818     A.U. after   14 cycles
 Optimization completed.
    -- Stationary point found.
 Normal termination of Gaussian 09 at Tue Jan 28 03:12:34 2020.

 ----------------------------------------------------------------------
 #N Geom=AllCheck Guess=TCheck SCRF=Check GenChk RB3LYP/6-31G(2df,p) Fr
 eq
 ----------------------------------------------------------------------

 Structure from the checkpoint file:  "/scratch/puck/g09_b6480d52-74b3-4ca0-b64a-b99e5746a3b8/Gau-88982.chk"
 -----
 titel
 -----
 Charge =  0 Multiplicity = 1

                         Standard orientation:
 ---------------------------------------------------------------------
 Center     Atomic      Atomic             Coordinates (Angstroms)
 Number     Number       Type             X           Y           Z
 ---------------------------------------------------------------------
      1          6           0       -2.343194   -1.126097   -0.045681
      2          6           0       -0.977590   -0.614359   -0.478051
      3          8           0       -1.071542    0.764207   -0.882939
      4          6           0       -0.188655    1.457285    0.030686
      5          8           0       -0.358333    0.753423    1.244072
      6          6           0        0.059595   -0.508731    0.695269
      7          6           0        1.399650   -0.161719    0.044581
      8          6           0        2.513325   -1.129739   -0.164509
      9          6           0        1.240231    1.100639   -0.363790
     10          1           0       -3.070802   -0.990313   -0.850658
     11          1           0       -2.296846   -2.193134    0.198915
     12          1           0       -2.688728   -0.572650    0.831085
     13          1           0       -0.580315   -1.208842   -1.309693
     14          1           0       -0.492599    2.498970    0.108221
     15          1           0        0.028257   -1.301274    1.441736
     16          1           0        2.181429   -2.002339   -0.741718
     17          1           0        3.346637   -0.669972   -0.702093
     18          1           0        2.891636   -1.513815    0.791223
     19          1           0        1.900162    1.708657   -0.967104
 ---------------------------------------------------------------------

 SCF Done:  E(RB3LYP) =  -423.189203818     A.U. after    1 cycles

 The electronic state is 1-A.
 Alpha  occ. eigenvalues --  -19.14424 -19.13395 -10.27522 -10.23874 -10.23292
 Alpha  occ. eigenvalues --  -10.19438 -10.19309 -10.17815 -10.17234  -1.09111
 Alpha  occ. eigenvalues --   -0.98261  -0.80997  -0.77602  -0.71348  -0.69045
 Alpha  occ. eigenvalues --   -0.60216  -0.58604  -0.54342  -0.51799  -0.49324
 Alpha  occ. eigenvalues --   -0.45917  -0.43313  -0.41938  -0.41046  -0.40054
 Alpha  occ. eigenvalues --   -0.39562  -0.38381  -0.37638  -0.36019  -0.33514
 Alpha  occ. eigenvalues --   -0.31933  -0.27610  -0.26010  -0.23446
 Alpha virt. eigenvalues --    0.00842   0.09455   0.10898   0.12379   0.12848
 Alpha virt. eigenvalues --    0.13194   0.14483   0.15152   0.16294   0.17221
 Alpha virt. eigenvalues --    0.17294   0.18249   0.19980   0.20680   0.22528

 Mulliken charges:
               1
     1  C   -0.410170
     2  C    0.150921
     3  O   -0.296758
     4  C    0.142350
     5  O   -0.234364
     6  C   -0.096286
     7  C    0.338908
     8  C   -0.509457
     9  C   -0.209955
    10  H    0.125722
    11  H    0.106106
    12  H    0.134368
    13  H    0.077011
    14  H    0.092485
    15  H    0.085445
    16  H    0.131937
    17  H    0.132502
    18  H    0.132217
    19  H    0.107019
 Sum of Mulliken charges =   0.00000

 Dipole moment (field-independent basis, Debye):
    X=              1.4372    Y=             -1.4149    Z=             -0.3437  Tot=              2.0459
 Quadrupole moment (field-independent basis, Debye-Ang):
   XX=            -52.0460   YY=            -48.9349   ZZ=            -56.4551
   XY=              0.9290   XZ=             -1.3530   YZ=             -1.1979

  Exact polarizability:  83.719  -0.294  83.143  -1.621  -3.973  59.772
 Approx polarizability: 107.259  -3.920 132.945   0.175  -9.395  96.989

                      1                      2                      3
                      A                      A                      A
 Frequencies --    146.1613               162.4651               185.4484
 Red. masses --      2.6509                 1.3550                 2.0236
 Frc consts  --      0.0334                 0.0211                 0.0410
 IR Inten    --      0.9962                 0.1998                 0.6405

                      4                      5                      6
                      A                      A                      A
 Frequencies --    238.1352               251.9813               333.8705
 Red. masses --      1.1102                 2.3373                 2.6334
 Frc consts  --      0.0371                 0.0874                 0.1730
 IR Inten    --      0.0237                 1.0353                 0.5797

                      7                      8                      9
                      A                      A                      A
 Frequencies --    419.0002               483.7792               568.5018
 Red. masses --      3.1575                 4.8174                 2.8847
 Frc consts  --      0.3266                 0.6643                 0.5493
 IR Inten    --      1.1622                 6.1413                 3.7188

                     10                     11                     12
                      A                      A                      A
 Frequencies --    589.0811               671.9425               746.7314
 Red. masses --      4.5428                 6.7486                 2.9690
 Frc consts  --      0.9288                 1.7953                 0.9754
 IR Inten    --      3.4978                 7.7593                 1.9405

                     13                     14                     15
                      A                      A                      A
 Frequencies --    802.0385               838.4181               854.6975
 Red. masses --      1.8984                 2.8458                 4.2748
 Frc consts  --      0.7195                 1.1786                 1.8399
 IR Inten    --      5.0932                33.8615                 9.8959

                     16                     17                     18
                      A                      A                      A
 Frequencies --    863.9535               880.9783               897.1320
 Red. masses --      3.8567                 3.5189                 2.9946
 Frc consts  --      1.6961                 1.6091                 1.4200
 IR Inten    --     69.4569                22.1718                38.3942

                     19                     20                     21
                      A                      A                      A
 Frequencies --    931.4108               999.2677              1036.2614
 Red. masses --      2.0381                 1.7568                 3.1805
 Frc consts  --      1.0417                 1.0336                 2.0122
 IR Inten    --     30.3176                18.0983                11.4023

                     22                     23                     24
                      A                      A                      A
 Frequencies --   1047.2847              1057.2111              1071.4547
 Red. masses --      3.2626                 1.5387                 2.1898
 Frc consts  --      2.1084                 1.0133                 1.4812
 IR Inten    --     47.4958                 0.1511                 9.0706

                     25                     26                     27
                      A                      A                      A
 Frequencies --   1084.9651              1130.1219              1198.4808
 Red. masses --      1.8480                 2.1494                 2.0014
 Frc consts  --      1.2817                 1.6174                 1.6937
 IR Inten    --      2.6543                 3.4365                11.9863

                     28                     29                     30
                      A                      A                      A
 Frequencies --   1237.0573              1252.4432              1276.8405
 Red. masses --      1.3738                 1.3622                 1.2538
 Frc consts  --      1.2387                 1.2589                 1.2043
 IR Inten    --      2.6957                 1.0362                 1.7844

                     31                     32                     33
                      A                      A                      A
 Frequencies --   1310.2568              1325.1541              1344.4718
 Red. masses --      1.8962                 1.7914                 1.4750
 Frc consts  --      1.9180                 1.8535                 1.5709
 IR Inten    --      6.6539                23.4264                 7.8542

                     34                     35                     36
                      A                      A                      A
 Frequencies --   1380.2999              1402.2326              1414.2704
 Red. masses --      1.3089                 1.3268                 1.2757
 Frc consts  --      1.4693                 1.5371                 1.5033
 IR Inten    --      6.6734                 8.1948                 0.8619

                     37                     38                     39
                      A                      A                      A
 Frequencies --   1478.6330              1484.0236              1486.6334
 Red. masses --      1.0453                 1.0481                 1.0602
 Frc consts  --      1.3465                 1.3600                 1.3806
 IR Inten    --      6.1169                 3.6782                 6.8750

                     40                     41                     42
                      A                      A                      A
 Frequencies --   1498.9699              1695.0996              3017.6213
 Red. masses --      1.0468                 7.0579                 1.0385
 Frc consts  --      1.3858                11.9486                 5.5716
 IR Inten    --      3.0902                 9.2294                22.4811

                     43                     44                     45
                      A                      A                      A
 Frequencies --   3030.1037              3038.2434              3063.3299
 Red. masses --      1.0799                 1.0409                 1.0984
 Frc consts  --      5.8418                 5.6609                 6.0729
 IR Inten    --     34.2551                25.0521                17.4108

                     46                     47                     48
                      A                      A                      A
 Frequencies --   3108.7600              3113.6742              3130.3439
 Red. masses --      1.0993                 1.0986                 1.1024
 Frc consts  --      6.2597                 6.2756                 6.3644
 IR Inten    --     16.9995                15.8600                17.0008

                     49                     50                     51
                      A                      A                      A
 Frequencies --   3135.3348              3154.5303              3228.7598
 Red. masses --      1.0903                 1.0933                 1.0978
 Frc consts  --      6.3147                 6.4099                 6.7427
 IR Inten    --     29.1221                28.9164                 5.4215

 - Thermochemistry -
 -------------------
 Temperature   298.150 Kelvin.  Pressure   1.00000 Atm.
 Atom     1 has atomic number  6 and mass  12.00000

 Molecular mass:   126.06808 amu.
 Principal axes and moments of inertia in atomic units:
                           1         2         3
     Eigenvalues --   634.260281151.643791388.77214
           X            0.99987   0.00826  -0.01350
           Y           -0.00845   0.99986  -0.01410
           Z            0.01339   0.01421   0.99981
 This molecule is an asymmetric top.
 Rotational symmetry number  1.
 Warning -- assumption of classical behavior for rotation
           may cause significant error
 Rotational temperatures (Kelvin)      0.13656     0.07521     0.06237
 Rotational constants (GHZ):           2.84543     1.56710     1.29952
 Zero-point vibrational energy     419278.3 (Joules/Mol)
                                  100.20992 (Kcal/Mol)
 Warning -- explicit consideration of  10 degrees of freedom as
           vibrations may cause significant error
 Vibrational temperatures:    210.29   233.75   266.82   342.62   362.54
          (Kelvin)            480.36   602.85   696.05   817.95   847.56
                              966.77  1074.38  1153.95  1206.30  1229.72
                             1243.03  1267.53  1290.77  1340.09  1437.72
                             1490.95  1506.81  1521.09  1541.58  1561.02
                             1625.99  1724.34  1779.85  1801.98  1837.09
                             1885.16  1906.60  1934.39  1985.94  2017.50
                             2034.82  2127.42  2135.18  2138.93  2156.68
                             2438.87  4341.68  4359.64  4371.35  4407.44
                             4472.81  4479.88  4503.86  4511.04  4538.66
                             4645.46

 Zero-point correction=                           0.159695 (Hartree/Particle)
 Thermal correction to Energy=                    0.167612
 Thermal correction to Enthalpy=                  0.168556
 Thermal correction to Gibbs Free Energy=         0.127580
 Sum of electronic and zero-point Energies=           -423.029509
 Sum of electronic and thermal Energies=              -423.021592
 Sum of electronic and thermal Enthalpies=            -423.020648
 Sum of electronic and thermal Free Energies=         -423.061624

                     E (Thermal)             CV                S
                      KCal/Mol        Cal/Mol-Kelvin    Cal/Mol-Kelvin
 Total                  105.178             31.120             86.242
 Electronic               0.000              0.000              0.000
 Translational            0.889              2.981             40.409
 Rotational               0.889              2.981             28.408
 Vibrational            103.401             25.159             17.426
 Vibration     1          0.617              1.907              2.722
 Vibration     2          0.623              1.888              2.521
 Vibration     3          0.632              1.860              2.273
 Vibration     4          0.656              1.782              1.817
 Vibration     5          0.664              1.759              1.717
 Vibration     6          0.715              1.608              1.241
 Vibration     7          0.782              1.429              0.895
 Vibration     8          0.840              1.286              0.700
 Vibration     9          0.925              1.099              0.507
 Vibration    10          0.946              1.055              0.469

 Optimization completed.
    -- Stationary point found.
 Normal termination of Gaussian 09 at Tue Jan 28 03:55:55 2020.
