 Gaussian 09, Revision D.01,
 Gaussian 09:  ES64L-G09RevD.01 24-Apr-2013

 -----------------------------
 # b3lyp 6-31G(2df,p) opt Freq
 -----------------------------

 -----
 titel
 -----
 Symbolic Z-matrix:
 Charge =  0 Multiplicity = 1

 SCF Done:  E(RB3LYP) =  -423.232992054     A.U. after   14 cycles
 SCF Done:  E(RB3LYP) =  -423.232992028     A.U. after    7 cycles
 SCF Done:  E(RB3LYP) =  -423.232992165     A.U. after    8 cycles
 Optimization completed.
    -- Stationary point found.
 Normal termination of Gaussian 09 at Tue Jan 28 01:19:03 2020.

 ----------------------------------------------------------------------
 #N Geom=AllCheck Guess=TCheck SCRF=Check GenChk RB3LYP/6-31G(2df,p) Fr
 eq
 ----------------------------------------------------------------------

 Structure from the checkpoint file:  "/scratch/puck/g09_e1e8b8de-7d67-4dcb-a17b-46002cc0b557/Gau-38770.chk"
 -----
 titel
 -----
 Charge =  0 Multiplicity = 1

                         Standard orientation:
 ---------------------------------------------------------------------
 Center     Atomic      Atomic             Coordinates (Angstroms)
 Number     Number       Type             X           Y           Z
 ---------------------------------------------------------------------
      1          6           0        2.028286    1.482373   -0.591545
      2          6           0        1.302316    0.664088    0.489901
      3          6           0       -0.183927    1.029390    0.665469
      4          6           0       -0.966908    0.030075   -0.236525
      5          6           0       -0.162001   -1.274730   -0.100583
      6          6           0        1.289474   -0.822620    0.092975
      7          8           0        2.264105   -1.509237   -0.065010
      8          6           0       -2.399686   -0.121226    0.213296
      9          8           0       -3.371449    0.164840   -0.434499
     10          1           0        3.033349    1.083585   -0.751018
     11          1           0        1.495088    1.447251   -1.547760
     12          1           0        2.109764    2.530843   -0.290613
     13          1           0        1.859298    0.760496    1.427670
     14          1           0       -0.488856    0.885840    1.709702
     15          1           0       -0.404979    2.066766    0.403192
     16          1           0       -0.974921    0.375612   -1.274177
     17          1           0       -0.460111   -1.817074    0.809562
     18          1           0       -0.258827   -1.969395   -0.936990
     19          1           0       -2.496382   -0.532854    1.248576
 ---------------------------------------------------------------------

 SCF Done:  E(RB3LYP) =  -423.232992165     A.U. after    1 cycles

 The electronic state is 1-A.
 Alpha  occ. eigenvalues --  -19.14714 -19.13996 -10.27809 -10.27653 -10.21238
 Alpha  occ. eigenvalues --  -10.20776 -10.20748 -10.20713 -10.19250  -1.05456
 Alpha  occ. eigenvalues --   -1.05111  -0.86168  -0.77723  -0.71666  -0.68366
 Alpha  occ. eigenvalues --   -0.61438  -0.58373  -0.53747  -0.49354  -0.48864
 Alpha  occ. eigenvalues --   -0.45637  -0.44518  -0.44141  -0.42591  -0.42289
 Alpha  occ. eigenvalues --   -0.40360  -0.39873  -0.38471  -0.36116  -0.35268
 Alpha  occ. eigenvalues --   -0.34931  -0.34207  -0.26330  -0.24576
 Alpha virt. eigenvalues --   -0.03078  -0.02630   0.07581   0.09036   0.10960
 Alpha virt. eigenvalues --    0.13052   0.13427   0.14090   0.15351   0.16158
 Alpha virt. eigenvalues --    0.16885   0.17211   0.18610   0.19750   0.22452

 Mulliken charges:
               1
     1  C   -0.396515
     2  C   -0.093003
     3  C   -0.253844
     4  C   -0.075281
     5  C   -0.347353
     6  C    0.402750
     7  O   -0.314361
     8  C    0.157857
     9  O   -0.245589
    10  H    0.143366
    11  H    0.122775
    12  H    0.122399
    13  H    0.104677
    14  H    0.106596
    15  H    0.119718
    16  H    0.102739
    17  H    0.132583
    18  H    0.141892
    19  H    0.068595
 Sum of Mulliken charges =   0.00000

 Dipole moment (field-independent basis, Debye):
    X=              0.5901    Y=              1.2474    Z=              1.2635  Tot=              1.8710
 Quadrupole moment (field-independent basis, Debye-Ang):
   XX=            -70.4764   YY=            -53.8151   ZZ=            -51.2246
   XY=              7.1878   XZ=             -2.6544   YZ=             -0.0457

  Exact polarizability:  93.202   0.082  73.032   0.356  -0.950  64.805
 Approx polarizability: 131.161  -8.673 106.494   5.283  -2.031 102.820

                      1                      2                      3
                      A                      A                      A
 Frequencies --     51.1836                78.8337                87.6730
 Red. masses --      3.2788                 4.5386                 3.8139
 Frc consts  --      0.0051                 0.0166                 0.0173
 IR Inten    --      4.5059                 6.5104                 5.3411

                      4                      5                      6
                      A                      A                      A
 Frequencies --    216.6595               238.7957               285.8287
 Red. masses --      1.2639                 1.9632                 2.3901
 Frc consts  --      0.0350                 0.0660                 0.1150
 IR Inten    --      0.3696                 2.3023                 0.4018

                      7                      8                      9
                      A                      A                      A
 Frequencies --    307.8771               360.0204               418.7482
 Red. masses --      3.1876                 2.1706                 4.3675
 Frc consts  --      0.1780                 0.1658                 0.4512
 IR Inten    --      2.2638                 2.3844                 0.2910

                     10                     11                     12
                      A                      A                      A
 Frequencies --    484.1532               543.3557               634.6020
 Red. masses --      3.2401                 2.7764                 3.7154
 Frc consts  --      0.4475                 0.4830                 0.8816
 IR Inten    --      6.8753                 4.6857                 3.5560

                     13                     14                     15
                      A                      A                      A
 Frequencies --    649.2906               755.0846               843.1352
 Red. masses --      3.3962                 2.8423                 1.8748
 Frc consts  --      0.8436                 0.9548                 0.7852
 IR Inten    --     12.5818                 3.2546                 3.4136

                     16                     17                     18
                      A                      A                      A
 Frequencies --    871.9005               897.8600               951.2805
 Red. masses --      2.5256                 1.9204                 2.3072
 Frc consts  --      1.1312                 0.9121                 1.2301
 IR Inten    --      9.3834                 1.9728                 6.0205

                     19                     20                     21
                      A                      A                      A
 Frequencies --    974.0005              1014.8787              1025.1193
 Red. masses --      1.6608                 1.5164                 1.8365
 Frc consts  --      0.9283                 0.9202                 1.1371
 IR Inten    --      0.9191                25.5783                16.2562

                     22                     23                     24
                      A                      A                      A
 Frequencies --   1066.4612              1095.3549              1122.1596
 Red. masses --      1.8929                 2.5811                 2.3320
 Frc consts  --      1.2685                 1.8246                 1.7302
 IR Inten    --     34.6526                 0.7069                13.6830

                     25                     26                     27
                      A                      A                      A
 Frequencies --   1162.7303              1186.9369              1231.0231
 Red. masses --      2.6437                 1.7204                 1.3796
 Frc consts  --      2.1058                 1.4280                 1.2318
 IR Inten    --     42.7610                 9.8311                 3.9740

                     28                     29                     30
                      A                      A                      A
 Frequencies --   1251.0239              1264.6917              1304.8034
 Red. masses --      1.4071                 1.5450                 1.5498
 Frc consts  --      1.2975                 1.4560                 1.5546
 IR Inten    --      0.6038                 1.4305                 8.7278

                     31                     32                     33
                      A                      A                      A
 Frequencies --   1322.6926              1333.8257              1351.2759
 Red. masses --      1.3278                 1.3505                 1.4080
 Frc consts  --      1.3687                 1.4156                 1.5147
 IR Inten    --      0.1584                 5.2612                 2.5543

                     34                     35                     36
                      A                      A                      A
 Frequencies --   1403.5213              1426.1467              1447.2348
 Red. masses --      1.2091                 1.1945                 1.0888
 Frc consts  --      1.4032                 1.4314                 1.3437
 IR Inten    --      4.0867                 2.5643                 9.9948

                     37                     38                     39
                      A                      A                      A
 Frequencies --   1490.5949              1497.8677              1499.1495
 Red. masses --      1.0690                 1.0677                 1.0488
 Frc consts  --      1.3994                 1.4114                 1.3888
 IR Inten    --      4.6326                 3.3810                 5.1044

                     40                     41                     42
                      A                      A                      A
 Frequencies --   1837.7272              1846.5763              2828.1445
 Red. masses --     10.5784                12.5084                 1.0808
 Frc consts  --     21.0490                25.1297                 5.0935
 IR Inten    --    315.1405               125.7841                98.0865

                     43                     44                     45
                      A                      A                      A
 Frequencies --   3010.0202              3030.1767              3037.1329
 Red. masses --      1.0693                 1.0671                 1.0366
 Frc consts  --      5.7079                 5.7726                 5.6339
 IR Inten    --      7.3991                21.1552                14.1195

                     46                     47                     48
                      A                      A                      A
 Frequencies --   3057.6914              3075.1352              3101.6734
 Red. masses --      1.0827                 1.0844                 1.0973
 Frc consts  --      5.9643                 6.0418                 6.2195
 IR Inten    --     13.5967                 8.6410                21.4086

                     49                     50                     51
                      A                      A                      A
 Frequencies --   3106.2168              3118.8125              3125.4657
 Red. masses --      1.1010                 1.0924                 1.1021
 Frc consts  --      6.2587                 6.2603                 6.3428
 IR Inten    --     24.8441                 7.4444                12.9942

 - Thermochemistry -
 -------------------
 Temperature   298.150 Kelvin.  Pressure   1.00000 Atm.
 Atom     1 has atomic number  6 and mass  12.00000

 Molecular mass:   126.06808 amu.
 Principal axes and moments of inertia in atomic units:
                           1         2         3
     Eigenvalues --   575.891741757.906252120.83708
           X            0.99912   0.03985  -0.01307
           Y           -0.04001   0.99912  -0.01233
           Z            0.01257   0.01284   0.99984
 This molecule is an asymmetric top.
 Rotational symmetry number  1.
 Warning -- assumption of classical behavior for rotation
           may cause significant error
 Rotational temperatures (Kelvin)      0.15040     0.04927     0.04084
 Rotational constants (GHZ):           3.13382     1.02664     0.85096
 Zero-point vibrational energy     414640.9 (Joules/Mol)
                                   99.10156 (Kcal/Mol)
 Warning -- explicit consideration of  11 degrees of freedom as
           vibrations may cause significant error
 Vibrational temperatures:     73.64   113.42   126.14   311.72   343.57
          (Kelvin)            411.24   442.97   517.99   602.48   696.59
                              781.77   913.05   934.18  1086.40  1213.08
                             1254.47  1291.82  1368.68  1401.37  1460.18
                             1474.92  1534.40  1575.97  1614.54  1672.91
                             1707.74  1771.17  1799.94  1819.61  1877.32
                             1903.06  1919.08  1944.18  2019.35  2051.90
                             2082.25  2144.63  2155.09  2156.94  2644.08
                             2656.81  4069.06  4330.74  4359.74  4369.75
                             4399.33  4424.43  4462.61  4469.15  4487.27
                             4496.84

 Zero-point correction=                           0.157928 (Hartree/Particle)
 Thermal correction to Energy=                    0.167022
 Thermal correction to Enthalpy=                  0.167966
 Thermal correction to Gibbs Free Energy=         0.123134
 Sum of electronic and zero-point Energies=           -423.075064
 Sum of electronic and thermal Energies=              -423.065970
 Sum of electronic and thermal Enthalpies=            -423.065026
 Sum of electronic and thermal Free Energies=         -423.109858

                     E (Thermal)             CV                S
                      KCal/Mol        Cal/Mol-Kelvin    Cal/Mol-Kelvin
 Total                  104.808             32.962             94.358
 Electronic               0.000              0.000              0.000
 Translational            0.889              2.981             40.409
 Rotational               0.889              2.981             29.153
 Vibrational            103.031             27.000             24.796
 Vibration     1          0.595              1.977              4.771
 Vibration     2          0.600              1.963              3.920
 Vibration     3          0.601              1.958              3.711
 Vibration     4          0.645              1.816              1.987
 Vibration     5          0.657              1.781              1.812
 Vibration     6          0.684              1.700              1.499
 Vibration     7          0.698              1.659              1.374
 Vibration     8          0.735              1.555              1.122
 Vibration     9          0.782              1.430              0.896
 Vibration    10          0.840              1.285              0.699
 Vibration    11          0.898              1.154              0.558

 Normal termination of Gaussian 09 at Tue Jan 28 03:10:13 2020.
