 Gaussian 09, Revision D.01,
 Gaussian 09:  ES64L-G09RevD.01 24-Apr-2013

 -----------------------------
 # b3lyp 6-31G(2df,p) opt Freq
 -----------------------------

 -----
 titel
 -----
 Symbolic Z-matrix:
 Charge =  0 Multiplicity = 1

 SCF Done:  E(RB3LYP) =  -423.187072770     A.U. after   14 cycles
 Optimization completed.
    -- Stationary point found.
 Normal termination of Gaussian 09 at Mon Jan 27 13:48:11 2020.

 ----------------------------------------------------------------------
 #N Geom=AllCheck Guess=TCheck SCRF=Check GenChk RB3LYP/6-31G(2df,p) Fr
 eq
 ----------------------------------------------------------------------

 Structure from the checkpoint file:  "/scratch/puck/g09_1d0c3d15-c300-4b8e-b95e-773bfa8dc0dd/Gau-49524.chk"
 -----
 titel
 -----
 Charge =  0 Multiplicity = 1

                         Standard orientation:
 ---------------------------------------------------------------------
 Center     Atomic      Atomic             Coordinates (Angstroms)
 Number     Number       Type             X           Y           Z
 ---------------------------------------------------------------------
      1          8           0       -2.938086   -0.992440    0.293189
      2          6           0       -2.829774    0.095481   -0.203301
      3          8           0       -1.712754    0.833119   -0.255598
      4          6           0       -0.548748    0.257006    0.357022
      5          6           0        0.253491   -0.781310   -0.465468
      6          6           0        1.519538   -0.005899   -0.069306
      7          6           0        2.681692   -0.566803    0.697662
      8          6           0        2.874755   -0.024708   -0.702637
      9          6           0        0.669405    1.201757    0.358156
     10          1           0       -3.644484    0.651915   -0.692889
     11          1           0       -0.818950   -0.117214    1.345601
     12          1           0        0.165930   -1.826111   -0.161620
     13          1           0        0.027001   -0.692811   -1.532959
     14          1           0        3.075712    0.011822    1.527419
     15          1           0        2.731435   -1.641752    0.840273
     16          1           0        3.399422    0.918593   -0.818000
     17          1           0        3.054313   -0.733856   -1.504664
     18          1           0        0.915193    1.700659    1.298661
     19          1           0        0.578992    1.950178   -0.435324
 ---------------------------------------------------------------------

 SCF Done:  E(RB3LYP) =  -423.187072770     A.U. after    1 cycles

 The electronic state is 1-A.
 Alpha  occ. eigenvalues --  -19.18778 -19.13211 -10.30668 -10.24573 -10.20165
 Alpha  occ. eigenvalues --  -10.18914 -10.18704 -10.18685 -10.18601  -1.10447
 Alpha  occ. eigenvalues --   -1.02005  -0.87948  -0.80784  -0.67937  -0.67093
 Alpha  occ. eigenvalues --   -0.60470  -0.56724  -0.53766  -0.52322  -0.49430
 Alpha  occ. eigenvalues --   -0.48206  -0.46981  -0.44792  -0.42368  -0.39859
 Alpha  occ. eigenvalues --   -0.39059  -0.37010  -0.36375  -0.34090  -0.32116
 Alpha  occ. eigenvalues --   -0.30357  -0.28422  -0.27623  -0.27343
 Alpha virt. eigenvalues --    0.00928   0.07960   0.09605   0.10625   0.10664
 Alpha virt. eigenvalues --    0.13176   0.14870   0.14879   0.15159   0.16926
 Alpha virt. eigenvalues --    0.18207   0.18631   0.19964   0.21741   0.23203

 Mulliken charges:
               1
     1  O   -0.306300
     2  C    0.175230
     3  O   -0.215618
     4  C    0.164928
     5  C   -0.322258
     6  C    0.370903
     7  C   -0.314837
     8  C   -0.329201
     9  C   -0.339296
    10  H    0.108426
    11  H    0.108729
    12  H    0.116747
    13  H    0.108192
    14  H    0.112570
    15  H    0.114771
    16  H    0.112928
    17  H    0.113977
    18  H    0.105962
    19  H    0.114147
 Sum of Mulliken charges =   0.00000

 Dipole moment (field-independent basis, Debye):
    X=              1.4799    Y=              1.2395    Z=             -0.3628  Tot=              1.9642
 Quadrupole moment (field-independent basis, Debye-Ang):
   XX=            -55.8896   YY=            -54.4767   ZZ=            -51.6410
   XY=             -4.5447   XZ=              2.4478   YZ=              1.3250

  Exact polarizability:  95.693   0.464  71.072   2.128  -1.920  65.108
 Approx polarizability: 114.383   3.880 112.028   1.629  -7.372  99.788

                      1                      2                      3
                      A                      A                      A
 Frequencies --     42.6387                60.9449               165.2306
 Red. masses --      5.0511                 3.7216                 4.1043
 Frc consts  --      0.0054                 0.0081                 0.0660
 IR Inten    --      1.2500                 0.4293                 3.0706

                      4                      5                      6
                      A                      A                      A
 Frequencies --    245.2196               274.8326               289.6537
 Red. masses --      3.3946                 2.2171                 2.4415
 Frc consts  --      0.1203                 0.0987                 0.1207
 IR Inten    --      7.1225                 2.5179                 2.7135

                      7                      8                      9
                      A                      A                      A
 Frequencies --    341.0641               406.1125               459.3425
 Red. masses --      2.6697                 2.3134                 3.0449
 Frc consts  --      0.1830                 0.2248                 0.3785
 IR Inten    --      6.5328                 2.0161                 6.0116

                     10                     11                     12
                      A                      A                      A
 Frequencies --    523.1021               699.7715               775.6412
 Red. masses --      2.7764                 3.1688                 1.0369
 Frc consts  --      0.4476                 0.9142                 0.3676
 IR Inten    --      2.3880                 1.7468                 0.1444

                     13                     14                     15
                      A                      A                      A
 Frequencies --    793.6698               832.1114               859.4834
 Red. masses --      2.8716                 1.6355                 2.8941
 Frc consts  --      1.0657                 0.6672                 1.2596
 IR Inten    --      4.6158                 1.4458                 4.0779

                     16                     17                     18
                      A                      A                      A
 Frequencies --    896.5543               918.4993               924.8384
 Red. masses --      1.7984                 3.2737                 1.2929
 Frc consts  --      0.8517                 1.6272                 0.6515
 IR Inten    --      0.0274                14.4675                 2.2308

                     19                     20                     21
                      A                      A                      A
 Frequencies --    978.3714              1036.3941              1045.7060
 Red. masses --      2.6733                 2.3283                 1.8716
 Frc consts  --      1.5077                 1.4735                 1.2058
 IR Inten    --      1.5782                15.5947                13.0499

                     22                     23                     24
                      A                      A                      A
 Frequencies --   1052.8860              1055.3359              1079.1961
 Red. masses --      1.6891                 1.7064                 1.4340
 Frc consts  --      1.1033                 1.1197                 0.9840
 IR Inten    --      7.4520                 0.2208                 0.1622

                     25                     26                     27
                      A                      A                      A
 Frequencies --   1084.1732              1128.3702              1188.1162
 Red. masses --      1.3452                 2.6866                 1.2912
 Frc consts  --      0.9316                 2.0153                 1.0739
 IR Inten    --      1.0972                10.0579                 0.1614

                     28                     29                     30
                      A                      A                      A
 Frequencies --   1206.0991              1219.8270              1222.4073
 Red. masses --      4.6901                 1.4527                 1.7001
 Frc consts  --      4.0198                 1.2736                 1.4967
 IR Inten    --    382.0685                11.9469                52.9153

                     31                     32                     33
                      A                      A                      A
 Frequencies --   1237.3465              1252.9959              1289.0239
 Red. masses --      1.6172                 1.5027                 1.7477
 Frc consts  --      1.4588                 1.3900                 1.7110
 IR Inten    --      0.4453                 9.9991                 1.4209

                     34                     35                     36
                      A                      A                      A
 Frequencies --   1379.0686              1396.1755              1409.0605
 Red. masses --      1.7921                 1.5592                 1.1665
 Frc consts  --      2.0081                 1.7907                 1.3646
 IR Inten    --      9.4657                 7.1969                 1.3453

                     37                     38                     39
                      A                      A                      A
 Frequencies --   1465.9211              1470.2274              1494.3853
 Red. masses --      1.0874                 1.0926                 1.1427
 Frc consts  --      1.3768                 1.3915                 1.5035
 IR Inten    --      1.4089                 2.4379                 5.6393

                     40                     41                     42
                      A                      A                      A
 Frequencies --   1507.0537              1818.5734              3025.8013
 Red. masses --      1.5659                 9.5256                 1.0903
 Frc consts  --      2.0955                18.5611                 5.8813
 IR Inten    --      0.0451               264.9020                75.2087

                     43                     44                     45
                      A                      A                      A
 Frequencies --   3051.2751              3056.2301              3096.7294
 Red. masses --      1.0585                 1.0607                 1.0919
 Frc consts  --      5.8064                 5.8373                 6.1692
 IR Inten    --     35.0446                10.2444                 1.2622

                     46                     47                     48
                      A                      A                      A
 Frequencies --   3112.8447              3120.9288              3121.8326
 Red. masses --      1.1043                 1.0504                 1.1028
 Frc consts  --      6.3042                 6.0279                 6.3323
 IR Inten    --     19.7610                24.1532                21.4613

                     49                     50                     51
                      A                      A                      A
 Frequencies --   3124.8668              3198.8016              3213.5310
 Red. masses --      1.0583                 1.1178                 1.1155
 Frc consts  --      6.0889                 6.7389                 6.7869
 IR Inten    --     11.2109                 0.0029                17.3598

 - Thermochemistry -
 -------------------
 Temperature   298.150 Kelvin.  Pressure   1.00000 Atm.
 Atom     1 has atomic number  8 and mass  15.99491

 Molecular mass:   126.06808 amu.
 Principal axes and moments of inertia in atomic units:
                           1         2         3
     Eigenvalues --   372.854532105.908442243.19073
           X            0.99997  -0.00718   0.00341
           Y            0.00708   0.99958   0.02797
           Z           -0.00361  -0.02795   0.99960
 This molecule is an asymmetric top.
 Rotational symmetry number  1.
 Rotational temperatures (Kelvin)      0.23230     0.04113     0.03861
 Rotational constants (GHZ):           4.84034     0.85699     0.80454
 Zero-point vibrational energy     416589.1 (Joules/Mol)
                                   99.56719 (Kcal/Mol)
 Warning -- explicit consideration of  10 degrees of freedom as
           vibrations may cause significant error
 Vibrational temperatures:     61.35    87.69   237.73   352.82   395.42
          (Kelvin)            416.75   490.71   584.30   660.89   752.63
                             1006.81  1115.97  1141.91  1197.22  1236.60
                             1289.94  1321.51  1330.63  1407.66  1491.14
                             1504.54  1514.87  1518.39  1552.72  1559.88
                             1623.47  1709.43  1735.31  1755.06  1758.77
                             1780.26  1802.78  1854.62  1984.17  2008.78
                             2027.32  2109.13  2115.33  2150.08  2168.31
                             2616.52  4353.45  4390.10  4397.23  4455.50
                             4478.68  4490.31  4491.62  4495.98  4602.36
                             4623.55

 Zero-point correction=                           0.158670 (Hartree/Particle)
 Thermal correction to Energy=                    0.167254
 Thermal correction to Enthalpy=                  0.168198
 Thermal correction to Gibbs Free Energy=         0.124393
 Sum of electronic and zero-point Energies=           -423.028402
 Sum of electronic and thermal Energies=              -423.019819
 Sum of electronic and thermal Enthalpies=            -423.018875
 Sum of electronic and thermal Free Energies=         -423.062680

                     E (Thermal)             CV                S
                      KCal/Mol        Cal/Mol-Kelvin    Cal/Mol-Kelvin
 Total                  104.953             31.892             92.195
 Electronic               0.000              0.000              0.000
 Translational            0.889              2.981             40.409
 Rotational               0.889              2.981             28.956
 Vibrational            103.176             25.930             22.830
 Vibration     1          0.595              1.980              5.133
 Vibration     2          0.597              1.973              4.426
 Vibration     3          0.624              1.885              2.489
 Vibration     4          0.660              1.771              1.765
 Vibration     5          0.677              1.720              1.566
 Vibration     6          0.686              1.693              1.476
 Vibration     7          0.721              1.593              1.207
 Vibration     8          0.771              1.457              0.940
 Vibration     9          0.817              1.340              0.768
 Vibration    10          0.878              1.199              0.603

 Optimization completed.
    -- Stationary point found.
 Normal termination of Gaussian 09 at Mon Jan 27 14:26:27 2020.
