 Gaussian 09, Revision D.01,
 Gaussian 09:  ES64L-G09RevD.01 24-Apr-2013

 -----------------------------
 # b3lyp 6-31G(2df,p) opt Freq
 -----------------------------

 -----
 titel
 -----
 Symbolic Z-matrix:
 Charge =  0 Multiplicity = 1

 SCF Done:  E(RB3LYP) =  -423.133178998     A.U. after   13 cycles
 Optimization completed.
    -- Stationary point found.
 Normal termination of Gaussian 09 at Tue Jan 28 01:53:00 2020.

 ----------------------------------------------------------------------
 #N Geom=AllCheck Guess=TCheck SCRF=Check GenChk RB3LYP/6-31G(2df,p) Fr
 eq
 ----------------------------------------------------------------------

 Structure from the checkpoint file:  "/scratch/puck/g09_57f47d6f-156e-452a-a33e-4142ff55dded/Gau-190726.chk"
 -----
 titel
 -----
 Charge =  0 Multiplicity = 1

                         Standard orientation:
 ---------------------------------------------------------------------
 Center     Atomic      Atomic             Coordinates (Angstroms)
 Number     Number       Type             X           Y           Z
 ---------------------------------------------------------------------
      1          6           0       -2.726281    1.066032   -0.262141
      2          6           0       -1.909489   -0.176739   -0.506196
      3          8           0       -1.612615   -0.990683    0.643816
      4          6           0       -0.538653   -0.356344   -0.020828
      5          6           0        0.650349   -1.069067   -0.712471
      6          6           0        1.553681    0.028179   -0.105555
      7          6           0        2.818289    0.599919   -0.656341
      8          8           0        1.407292   -0.090564    1.314045
      9          6           0        0.408297    0.655447    0.593635
     10          1           0       -3.777939    0.805107   -0.104699
     11          1           0       -2.373497    1.600106    0.623568
     12          1           0       -2.673475    1.739004   -1.124980
     13          1           0       -2.198134   -0.756847   -1.385546
     14          1           0        0.869465   -2.079737   -0.361770
     15          1           0        0.584557   -1.052629   -1.803736
     16          1           0        3.623148   -0.143172   -0.628687
     17          1           0        2.684158    0.910214   -1.697564
     18          1           0        3.133799    1.465134   -0.067562
     19          1           0        0.233352    1.678230    0.907476
 ---------------------------------------------------------------------

 SCF Done:  E(RB3LYP) =  -423.133178998     A.U. after    1 cycles

 The electronic state is 1-A.
 Alpha  occ. eigenvalues --  -19.14943 -19.14706 -10.24668 -10.24361 -10.23941
 Alpha  occ. eigenvalues --  -10.23534 -10.19127 -10.19015 -10.18672  -1.08249
 Alpha  occ. eigenvalues --   -1.06431  -0.79630  -0.74834  -0.74226  -0.66039
 Alpha  occ. eigenvalues --   -0.61947  -0.57607  -0.54626  -0.50940  -0.48260
 Alpha  occ. eigenvalues --   -0.45294  -0.44791  -0.42831  -0.42330  -0.41240
 Alpha  occ. eigenvalues --   -0.40242  -0.38493  -0.37158  -0.35704  -0.34364
 Alpha  occ. eigenvalues --   -0.29969  -0.28539  -0.27189  -0.24484
 Alpha virt. eigenvalues --    0.07799   0.09072   0.09953   0.10848   0.11817
 Alpha virt. eigenvalues --    0.13091   0.13952   0.14416   0.14956   0.15358
 Alpha virt. eigenvalues --    0.17011   0.18030   0.18266   0.19249   0.20378

 Mulliken charges:
               1
     1  C   -0.416950
     2  C   -0.030291
     3  O   -0.287864
     4  C    0.449243
     5  C   -0.398472
     6  C    0.418306
     7  C   -0.500631
     8  O   -0.281130
     9  C   -0.153853
    10  H    0.133076
    11  H    0.128394
    12  H    0.121397
    13  H    0.090209
    14  H    0.122087
    15  H    0.108872
    16  H    0.134485
    17  H    0.125201
    18  H    0.136195
    19  H    0.101728
 Sum of Mulliken charges =   0.00000

 Dipole moment (field-independent basis, Debye):
    X=              0.1751    Y=              1.7903    Z=             -2.9124  Tot=              3.4231
 Quadrupole moment (field-independent basis, Debye-Ang):
   XX=            -50.7156   YY=            -52.4026   ZZ=            -55.3456
   XY=             -2.0304   XZ=             -0.5054   YZ=              2.5764

  Exact polarizability:  95.172  -3.091  68.542  -0.120   3.639  65.966
 Approx polarizability: 120.809  -4.344 101.284   0.928   1.527 107.546

                      1                      2                      3
                      A                      A                      A
 Frequencies --     90.7250               157.3200               183.8829
 Red. masses --      3.2241                 2.4548                 1.1752
 Frc consts  --      0.0156                 0.0358                 0.0234
 IR Inten    --      0.1588                 0.3230                 0.0730

                      4                      5                      6
                      A                      A                      A
 Frequencies --    202.8264               203.0922               282.5246
 Red. masses --      1.5793                 1.5971                 2.5883
 Frc consts  --      0.0383                 0.0388                 0.1217
 IR Inten    --      0.4816                 0.3796                 0.4458

                      7                      8                      9
                      A                      A                      A
 Frequencies --    331.1855               422.4341               438.2529
 Red. masses --      3.1800                 2.3808                 3.1994
 Frc consts  --      0.2055                 0.2503                 0.3620
 IR Inten    --      1.9521                 2.0399                 1.0235

                     10                     11                     12
                      A                      A                      A
 Frequencies --    459.3744               511.9633               584.1821
 Red. masses --      3.2034                 3.7504                 4.9782
 Frc consts  --      0.3983                 0.5792                 1.0010
 IR Inten    --      5.7077                 2.0497                22.5352

                     13                     14                     15
                      A                      A                      A
 Frequencies --    683.2404               773.4989               782.0378
 Red. masses --      3.4730                 3.6732                 3.4616
 Frc consts  --      0.9552                 1.2948                 1.2473
 IR Inten    --      2.9053                13.9938                 2.7425

                     16                     17                     18
                      A                      A                      A
 Frequencies --    850.8557               895.4819               923.5457
 Red. masses --      2.8935                 2.4764                 2.5126
 Frc consts  --      1.2342                 1.1700                 1.2627
 IR Inten    --     25.8821                10.0358                10.6087

                     19                     20                     21
                      A                      A                      A
 Frequencies --    965.4989               980.1029               998.3916
 Red. masses --      1.4669                 1.7111                 1.8540
 Frc consts  --      0.8057                 0.9684                 1.0889
 IR Inten    --      1.1211                 8.2546                 1.9550

                     22                     23                     24
                      A                      A                      A
 Frequencies --   1021.4674              1048.0475              1100.6854
 Red. masses --      2.6294                 2.0066                 1.8626
 Frc consts  --      1.6164                 1.2986                 1.3295
 IR Inten    --     30.9390                 1.7160                17.8285

                     25                     26                     27
                      A                      A                      A
 Frequencies --   1112.0214              1131.1241              1160.5398
 Red. masses --      2.5181                 2.2828                 1.4073
 Frc consts  --      1.8346                 1.7209                 1.1167
 IR Inten    --     18.8509                 5.4025                 2.2613

                     28                     29                     30
                      A                      A                      A
 Frequencies --   1176.5820              1210.7246              1241.2177
 Red. masses --      1.5197                 1.5997                 1.5432
 Frc consts  --      1.2395                 1.3816                 1.4008
 IR Inten    --      9.9342                 6.9547                 2.4390

                     31                     32                     33
                      A                      A                      A
 Frequencies --   1251.0530              1360.4820              1403.1414
 Red. masses --      2.9150                 1.3513                 1.3302
 Frc consts  --      2.6881                 1.4737                 1.5430
 IR Inten    --     23.6802                13.8526                 3.9765

                     34                     35                     36
                      A                      A                      A
 Frequencies --   1406.7298              1447.8413              1466.0252
 Red. masses --      1.2706                 1.8076                 1.4947
 Frc consts  --      1.4814                 2.2325                 1.8927
 IR Inten    --      4.5406                13.5463                11.0794

                     37                     38                     39
                      A                      A                      A
 Frequencies --   1475.8413              1483.5601              1490.9152
 Red. masses --      1.1407                 1.1455                 1.0793
 Frc consts  --      1.4638                 1.4855                 1.4135
 IR Inten    --      3.6394                11.3843                 4.2089

                     40                     41                     42
                      A                      A                      A
 Frequencies --   1495.1910              1526.9287              3035.4474
 Red. masses --      1.1398                 3.0927                 1.0363
 Frc consts  --      1.5013                 4.2484                 5.6257
 IR Inten    --      3.5751                 9.6190                23.8576

                     43                     44                     45
                      A                      A                      A
 Frequencies --   3036.7931              3064.2748              3082.4814
 Red. masses --      1.0361                 1.0582                 1.0867
 Frc consts  --      5.6294                 5.8544                 6.0835
 IR Inten    --     16.7653                19.0093                22.9357

                     46                     47                     48
                      A                      A                      A
 Frequencies --   3097.4882              3100.5776              3122.7112
 Red. masses --      1.0999                 1.1006                 1.1012
 Frc consts  --      6.2176                 6.2340                 6.3270
 IR Inten    --     14.0789                17.3302                11.2482

                     49                     50                     51
                      A                      A                      A
 Frequencies --   3125.9257              3126.4785              3183.0304
 Red. masses --      1.1036                 1.1052                 1.0944
 Frc consts  --      6.3534                 6.3653                 6.5332
 IR Inten    --      9.5874                29.1311                13.4919

 - Thermochemistry -
 -------------------
 Temperature   298.150 Kelvin.  Pressure   1.00000 Atm.
 Atom     1 has atomic number  6 and mass  12.00000

 Molecular mass:   126.06808 amu.
 Principal axes and moments of inertia in atomic units:
                           1         2         3
     Eigenvalues --   489.938631674.130701707.32773
           X            0.99983  -0.01266  -0.01334
           Y            0.01585   0.96098   0.27617
           Z            0.00932  -0.27634   0.96101
 This molecule is an asymmetric top.
 Rotational symmetry number  1.
 Warning -- assumption of classical behavior for rotation
           may cause significant error
 Rotational temperatures (Kelvin)      0.17679     0.05174     0.05073
 Rotational constants (GHZ):           3.68361     1.07802     1.05706
 Zero-point vibrational energy     410951.6 (Joules/Mol)
                                   98.21979 (Kcal/Mol)
 Warning -- explicit consideration of  12 degrees of freedom as
           vibrations may cause significant error
 Vibrational temperatures:    130.53   226.35   264.57   291.82   292.20
          (Kelvin)            406.49   476.50   607.79   630.55   660.94
                              736.60   840.51   983.03  1112.89  1125.18
                             1224.19  1288.40  1328.77  1389.14  1410.15
                             1436.46  1469.66  1507.90  1583.64  1599.95
                             1627.43  1669.76  1692.84  1741.96  1785.83
                             1799.98  1957.43  2018.81  2023.97  2083.12
                             2109.28  2123.40  2134.51  2145.09  2151.24
                             2196.91  4367.33  4369.26  4408.80  4435.00
                             4456.59  4461.03  4492.88  4497.50  4498.30
                             4579.67

 Zero-point correction=                           0.156523 (Hartree/Particle)
 Thermal correction to Energy=                    0.165320
 Thermal correction to Enthalpy=                  0.166265
 Thermal correction to Gibbs Free Energy=         0.123296
 Sum of electronic and zero-point Energies=           -422.976656
 Sum of electronic and thermal Energies=              -422.967859
 Sum of electronic and thermal Enthalpies=            -422.966914
 Sum of electronic and thermal Free Energies=         -423.009883

                     E (Thermal)             CV                S
                      KCal/Mol        Cal/Mol-Kelvin    Cal/Mol-Kelvin
 Total                  103.740             33.457             90.434
 Electronic               0.000              0.000              0.000
 Translational            0.889              2.981             40.409
 Rotational               0.889              2.981             28.728
 Vibrational            101.963             27.495             21.297
 Vibration     1          0.602              1.956              3.644
 Vibration     2          0.621              1.894              2.582
 Vibration     3          0.631              1.862              2.289
 Vibration     4          0.639              1.836              2.107
 Vibration     5          0.639              1.836              2.105
 Vibration     6          0.682              1.706              1.518
 Vibration     7          0.714              1.613              1.254
 Vibration     8          0.785              1.421              0.884
 Vibration     9          0.798              1.387              0.832
 Vibration    10          0.817              1.340              0.768
 Vibration    11          0.867              1.223              0.629
 Vibration    12          0.941              1.066              0.478

 Normal termination of Gaussian 09 at Tue Jan 28 02:38:47 2020.
