 Gaussian 09, Revision D.01,
 Gaussian 09:  ES64L-G09RevD.01 24-Apr-2013

 -----------------------------
 # b3lyp 6-31G(2df,p) opt Freq
 -----------------------------

 -----
 titel
 -----
 Symbolic Z-matrix:
 Charge =  0 Multiplicity = 1

 SCF Done:  E(RB3LYP) =  -423.213987150     A.U. after   14 cycles
 Optimization completed.
    -- Stationary point found.
 Normal termination of Gaussian 09 at Mon Jan 27 17:13:05 2020.

 ----------------------------------------------------------------------
 #N Geom=AllCheck Guess=TCheck SCRF=Check GenChk RB3LYP/6-31G(2df,p) Fr
 eq
 ----------------------------------------------------------------------

 Structure from the checkpoint file:  "/scratch/puck/g09_d51f6056-59c2-4d93-b168-22f5fd48a30e/Gau-86355.chk"
 -----
 titel
 -----
 Charge =  0 Multiplicity = 1

                         Standard orientation:
 ---------------------------------------------------------------------
 Center     Atomic      Atomic             Coordinates (Angstroms)
 Number     Number       Type             X           Y           Z
 ---------------------------------------------------------------------
      1          6           0       -2.319294   -0.155154   -0.696697
      2          6           0       -1.065085    0.266841    0.023830
      3          6           0       -0.752558   -0.286305    1.389482
      4          6           0        0.114077   -0.696297    0.215160
      5          8           0        0.135700   -2.015966   -0.190736
      6          6           0        1.347987    0.091034   -0.033428
      7          8           0        2.382586   -0.417989   -0.407013
      8          6           0        1.026384    1.576220    0.092125
      9          6           0       -0.482855    1.661509   -0.242636
     10          1           0       -3.184648    0.424897   -0.355688
     11          1           0       -2.220315   -0.005066   -1.777406
     12          1           0       -2.529863   -1.214376   -0.525409
     13          1           0       -0.357943    0.352436    2.174551
     14          1           0       -1.392239   -1.089800    1.740062
     15          1           0        1.032712   -2.155170   -0.532833
     16          1           0        1.243649    1.907036    1.114726
     17          1           0        1.661336    2.160834   -0.575521
     18          1           0       -0.999384    2.435995    0.335028
     19          1           0       -0.611520    1.907772   -1.302524
 ---------------------------------------------------------------------

 SCF Done:  E(RB3LYP) =  -423.213987150     A.U. after    1 cycles

 The electronic state is 1-A.
 Alpha  occ. eigenvalues --  -19.14596 -19.13684 -10.26982 -10.24402 -10.21036
 Alpha  occ. eigenvalues --  -10.19933 -10.19863 -10.19583 -10.18417  -1.05685
 Alpha  occ. eigenvalues --   -1.02473  -0.88984  -0.77517  -0.73192  -0.66599
 Alpha  occ. eigenvalues --   -0.63468  -0.56732  -0.55429  -0.49302  -0.47480
 Alpha  occ. eigenvalues --   -0.46220  -0.45251  -0.42974  -0.42027  -0.41865
 Alpha  occ. eigenvalues --   -0.39108  -0.38687  -0.36610  -0.35896  -0.34570
 Alpha  occ. eigenvalues --   -0.34313  -0.30099  -0.25453  -0.23705
 Alpha virt. eigenvalues --   -0.01901   0.07882   0.09788   0.10716   0.11462
 Alpha virt. eigenvalues --    0.13418   0.13850   0.15687   0.16014   0.16866
 Alpha virt. eigenvalues --    0.18504   0.19679   0.20684   0.21857   0.22878

 Mulliken charges:
               1
     1  C   -0.478390
     2  C    0.255013
     3  C   -0.392200
     4  C    0.325164
     5  O   -0.479515
     6  C    0.346437
     7  O   -0.354259
     8  C   -0.347708
     9  C   -0.272635
    10  H    0.120039
    11  H    0.120509
    12  H    0.136507
    13  H    0.112162
    14  H    0.131332
    15  H    0.294892
    16  H    0.133068
    17  H    0.133383
    18  H    0.104894
    19  H    0.111305
 Sum of Mulliken charges =   0.00000

 Dipole moment (field-independent basis, Debye):
    X=             -1.7136    Y=              2.0269    Z=              0.5261  Tot=              2.7058
 Quadrupole moment (field-independent basis, Debye-Ang):
   XX=            -58.2305   YY=            -53.1799   ZZ=            -51.4220
   XY=              0.7203   XZ=              0.9276   YZ=              0.3042

  Exact polarizability:  86.209  -0.935  76.982  -2.866   0.491  66.023
 Approx polarizability: 128.029  -7.147 111.767  -9.546   2.996 102.411

                      1                      2                      3
                      A                      A                      A
 Frequencies --     98.5752               172.9417               185.2966
 Red. masses --      5.6451                 1.5827                 1.1843
 Frc consts  --      0.0323                 0.0279                 0.0240
 IR Inten    --      0.2299                 0.5813                 0.3291

                      4                      5                      6
                      A                      A                      A
 Frequencies --    203.8458               282.9105               323.5415
 Red. masses --      3.4973                 4.7530                 2.2674
 Frc consts  --      0.0856                 0.2241                 0.1398
 IR Inten    --      3.6709                21.4086                 3.8163

                      7                      8                      9
                      A                      A                      A
 Frequencies --    341.3531               399.4597               463.1148
 Red. masses --      1.4391                 1.9916                 2.8475
 Frc consts  --      0.0988                 0.1872                 0.3598
 IR Inten    --     30.4591                25.6354                 1.8535

                     10                     11                     12
                      A                      A                      A
 Frequencies --    487.0403               533.8445               564.3503
 Red. masses --      3.1837                 3.6073                 2.7355
 Frc consts  --      0.4449                 0.6057                 0.5133
 IR Inten    --      2.6315                 2.9045                 5.3841

                     13                     14                     15
                      A                      A                      A
 Frequencies --    664.3056               692.3525               703.3488
 Red. masses --      4.6447                 3.9848                 2.7695
 Frc consts  --      1.2077                 1.1254                 0.8072
 IR Inten    --      8.9644                 9.6520                 5.6439

                     16                     17                     18
                      A                      A                      A
 Frequencies --    824.9422               874.4133               887.0246
 Red. masses --      2.5103                 2.4574                 1.6047
 Frc consts  --      1.0065                 1.1070                 0.7439
 IR Inten    --      7.2014                 3.4739                 5.9393

                     19                     20                     21
                      A                      A                      A
 Frequencies --    937.0545               966.0057               998.7556
 Red. masses --      1.4403                 1.8097                 1.8117
 Frc consts  --      0.7451                 0.9950                 1.0648
 IR Inten    --      3.4961                 1.8222                 2.5801

                     22                     23                     24
                      A                      A                      A
 Frequencies --   1028.2462              1053.3838              1085.6075
 Red. masses --      2.1342                 1.3969                 2.3356
 Frc consts  --      1.3295                 0.9133                 1.6218
 IR Inten    --      5.0352                 9.6631                 1.3603

                     25                     26                     27
                      A                      A                      A
 Frequencies --   1090.8317              1105.8670              1188.2517
 Red. masses --      1.5847                 2.2808                 1.6172
 Frc consts  --      1.1110                 1.6434                 1.3454
 IR Inten    --     32.4886                66.1847                56.1882

                     28                     29                     30
                      A                      A                      A
 Frequencies --   1234.6635              1255.7137              1265.8726
 Red. masses --      1.4279                 2.4343                 1.4721
 Frc consts  --      1.2825                 2.2616                 1.3898
 IR Inten    --     17.4363                16.5480                17.8169

                     31                     32                     33
                      A                      A                      A
 Frequencies --   1308.9304              1353.4775              1379.8198
 Red. masses --      1.8281                 1.7856                 3.4535
 Frc consts  --      1.8454                 1.9272                 3.8739
 IR Inten    --     34.4197                 4.4750                60.4205

                     34                     35                     36
                      A                      A                      A
 Frequencies --   1416.9267              1439.7071              1463.1356
 Red. masses --      1.2563                 1.5784                 1.1265
 Frc consts  --      1.4861                 1.9276                 1.4208
 IR Inten    --      5.9278                27.0681                13.4676

                     37                     38                     39
                      A                      A                      A
 Frequencies --   1485.5944              1486.8205              1496.0532
 Red. masses --      1.1143                 1.2070                 1.0620
 Frc consts  --      1.4490                 1.5720                 1.4004
 IR Inten    --      3.0977                 6.9326                 2.2971

                     40                     41                     42
                      A                      A                      A
 Frequencies --   1508.8028              1807.6530              3027.1827
 Red. masses --      1.2615                12.1496                 1.0376
 Frc consts  --      1.6920                23.3907                 5.6025
 IR Inten    --      3.9816               276.3170                22.1451

                     43                     44                     45
                      A                      A                      A
 Frequencies --   3036.3282              3045.7084              3075.3448
 Red. masses --      1.0577                 1.0700                 1.1030
 Frc consts  --      5.7453                 5.8482                 6.1461
 IR Inten    --     51.6566                 4.8239                18.9216

                     46                     47                     48
                      A                      A                      A
 Frequencies --   3087.3108              3113.5540              3116.9342
 Red. masses --      1.1008                 1.0975                 1.0574
 Frc consts  --      6.1817                 6.2684                 6.0526
 IR Inten    --     24.9470                10.6258                12.8664

                     49                     50                     51
                      A                      A                      A
 Frequencies --   3122.2728              3209.7816              3706.1474
 Red. masses --      1.0955                 1.1153                 1.0649
 Frc consts  --      6.2924                 6.7699                 8.6183
 IR Inten    --     11.0398                 5.2803                58.8157

 - Thermochemistry -
 -------------------
 Temperature   298.150 Kelvin.  Pressure   1.00000 Atm.
 Atom     1 has atomic number  6 and mass  12.00000

 Molecular mass:   126.06808 amu.
 Principal axes and moments of inertia in atomic units:
                           1         2         3
     Eigenvalues --   760.063201044.077301456.70146
           X            0.99915   0.03725   0.01793
           Y           -0.03722   0.99931  -0.00176
           Z           -0.01798   0.00109   0.99984
 This molecule is an asymmetric top.
 Rotational symmetry number  1.
 Warning -- assumption of classical behavior for rotation
           may cause significant error
 Rotational temperatures (Kelvin)      0.11396     0.08296     0.05946
 Rotational constants (GHZ):           2.37446     1.72855     1.23892
 Zero-point vibrational energy     416302.8 (Joules/Mol)
                                   99.49877 (Kcal/Mol)
 Warning -- explicit consideration of  12 degrees of freedom as
           vibrations may cause significant error
 Vibrational temperatures:    141.83   248.82   266.60   293.29   407.04
          (Kelvin)            465.50   491.13   574.73   666.32   700.74
                              768.08   811.97   955.79   996.14  1011.96
                             1186.91  1258.08  1276.23  1348.21  1389.86
                             1436.98  1479.42  1515.58  1561.95  1569.46
                             1591.09  1709.63  1776.40  1806.69  1821.31
                             1883.26  1947.35  1985.25  2038.64  2071.41
                             2105.12  2137.44  2139.20  2152.48  2170.83
                             2600.81  4355.44  4368.59  4382.09  4424.73
                             4441.95  4479.70  4484.57  4492.25  4618.15
                             5332.31

 Zero-point correction=                           0.158561 (Hartree/Particle)
 Thermal correction to Energy=                    0.167191
 Thermal correction to Enthalpy=                  0.168136
 Thermal correction to Gibbs Free Energy=         0.125771
 Sum of electronic and zero-point Energies=           -423.055426
 Sum of electronic and thermal Energies=              -423.046796
 Sum of electronic and thermal Enthalpies=            -423.045852
 Sum of electronic and thermal Free Energies=         -423.088216

                     E (Thermal)             CV                S
                      KCal/Mol        Cal/Mol-Kelvin    Cal/Mol-Kelvin
 Total                  104.914             33.498             89.164
 Electronic               0.000              0.000              0.000
 Translational            0.889              2.981             40.409
 Rotational               0.889              2.981             28.538
 Vibrational            103.137             27.536             20.218
 Vibration     1          0.604              1.950              3.482
 Vibration     2          0.626              1.876              2.403
 Vibration     3          0.631              1.860              2.274
 Vibration     4          0.640              1.834              2.098
 Vibration     5          0.682              1.705              1.516
 Vibration     6          0.708              1.628              1.292
 Vibration     7          0.721              1.593              1.206
 Vibration     8          0.766              1.471              0.965
 Vibration     9          0.821              1.332              0.757
 Vibration    10          0.843              1.279              0.691
 Vibration    11          0.889              1.175              0.579
 Vibration    12          0.920              1.108              0.515

 Optimization completed.
    -- Stationary point found.
 Normal termination of Gaussian 09 at Mon Jan 27 17:58:30 2020.
