 Gaussian 09, Revision D.01,
 Gaussian 09:  ES64L-G09RevD.01 24-Apr-2013

 -----------------------------
 # b3lyp 6-31G(2df,p) opt Freq
 -----------------------------

 -----
 titel
 -----
 Symbolic Z-matrix:
 Charge =  0 Multiplicity = 1

 SCF Done:  E(RB3LYP) =  -423.181783266     A.U. after   13 cycles
 Optimization completed.
    -- Stationary point found.
 Normal termination of Gaussian 09 at Mon Jan 27 23:54:08 2020.

 ----------------------------------------------------------------------
 #N Geom=AllCheck Guess=TCheck SCRF=Check GenChk RB3LYP/6-31G(2df,p) Fr
 eq
 ----------------------------------------------------------------------

 Structure from the checkpoint file:  "/scratch/puck/g09_5e9e2c13-8527-4878-b712-6376c4f3252f/Gau-186350.chk"
 -----
 titel
 -----
 Charge =  0 Multiplicity = 1

                         Standard orientation:
 ---------------------------------------------------------------------
 Center     Atomic      Atomic             Coordinates (Angstroms)
 Number     Number       Type             X           Y           Z
 ---------------------------------------------------------------------
      1          8           0        2.536297   -0.365741   -0.185380
      2          6           0        1.483951    0.545326   -0.275854
      3          6           0        0.489185    0.631658    0.905727
      4          8           0        0.130495   -0.760084    1.055607
      5          6           0       -0.366253   -1.047972   -0.292176
      6          6           0       -1.881106   -0.858243   -0.235524
      7          6           0       -2.003237    0.653776    0.120254
      8          6           0       -0.575286    1.175464   -0.092905
      9          6           0        0.180557    0.187504   -1.046571
     10          1           0        2.209475   -1.082035    0.376508
     11          1           0        1.886138    1.513391   -0.581992
     12          1           0        0.713650    1.063895    1.880334
     13          1           0       -0.013252   -2.030570   -0.609447
     14          1           0       -2.334340   -1.082430   -1.207988
     15          1           0       -2.335655   -1.515377    0.509746
     16          1           0       -2.713669    1.170541   -0.530967
     17          1           0       -2.337641    0.805548    1.150510
     18          1           0       -0.468182    2.237074   -0.314421
     19          1           0        0.092273    0.201488   -2.131810
 ---------------------------------------------------------------------

 SCF Done:  E(RB3LYP) =  -423.181783266     A.U. after    1 cycles

 The electronic state is 1-A.
 Alpha  occ. eigenvalues --  -19.14326 -19.13118 -10.23293 -10.23222 -10.22990
 Alpha  occ. eigenvalues --  -10.19363 -10.18896 -10.18488 -10.18270  -1.05419
 Alpha  occ. eigenvalues --   -1.00870  -0.84337  -0.78165  -0.71699  -0.64626
 Alpha  occ. eigenvalues --   -0.60688  -0.56760  -0.54591  -0.52880  -0.51582
 Alpha  occ. eigenvalues --   -0.46921  -0.44744  -0.41408  -0.40297  -0.38025
 Alpha  occ. eigenvalues --   -0.36703  -0.36500  -0.35675  -0.35021  -0.33514
 Alpha  occ. eigenvalues --   -0.31704  -0.29351  -0.26855  -0.23729
 Alpha virt. eigenvalues --    0.07811   0.10238   0.11116   0.12356   0.13184
 Alpha virt. eigenvalues --    0.13871   0.14529   0.15442   0.16403   0.17059
 Alpha virt. eigenvalues --    0.17576   0.18406   0.19105   0.20926   0.22845

 Mulliken charges:
               1
     1  O   -0.455109
     2  C    0.179149
     3  C    0.025818
     4  O   -0.314654
     5  C    0.088063
     6  C   -0.211977
     7  C   -0.234342
     8  C   -0.033161
     9  C   -0.135742
    10  H    0.289428
    11  H    0.088085
    12  H    0.077722
    13  H    0.075110
    14  H    0.096144
    15  H    0.107981
    16  H    0.100948
    17  H    0.109376
    18  H    0.075406
    19  H    0.071753
 Sum of Mulliken charges =   0.00000

 Dipole moment (field-independent basis, Debye):
    X=             -1.7791    Y=              0.6982    Z=             -0.5324  Tot=              1.9840
 Quadrupole moment (field-independent basis, Debye-Ang):
   XX=            -58.2572   YY=            -50.0255   ZZ=            -53.1371
   XY=              0.4390   XZ=              2.0794   YZ=              1.0760

  Exact polarizability:  80.677   1.210  72.085   0.893   1.426  66.310
 Approx polarizability: 109.189   0.225 109.298   1.025   0.034 106.198

                      1                      2                      3
                      A                      A                      A
 Frequencies --    200.0741               225.7857               256.4269
 Red. masses --      3.2433                 2.2114                 4.4128
 Frc consts  --      0.0765                 0.0664                 0.1710
 IR Inten    --      1.4977                 2.2386                 2.7957

                      4                      5                      6
                      A                      A                      A
 Frequencies --    397.7147               465.3074               513.3133
 Red. masses --      3.0811                 3.3374                 1.1810
 Frc consts  --      0.2871                 0.4257                 0.1833
 IR Inten    --      7.9008                 0.2743                60.6218

                      7                      8                      9
                      A                      A                      A
 Frequencies --    563.8911               660.7304               731.1523
 Red. masses --      3.8366                 4.4790                 3.2494
 Frc consts  --      0.7188                 1.1521                 1.0234
 IR Inten    --     12.2914                 4.1708                 0.1867

                     10                     11                     12
                      A                      A                      A
 Frequencies --    745.7357               781.4975               805.9277
 Red. masses --      3.6399                 2.2398                 1.8907
 Frc consts  --      1.1927                 0.8059                 0.7235
 IR Inten    --      0.5088                 5.2274                11.9553

                     13                     14                     15
                      A                      A                      A
 Frequencies --    834.1508               847.4936               887.2487
 Red. masses --      3.1336                 2.3158                 2.5993
 Frc consts  --      1.2846                 0.9800                 1.2056
 IR Inten    --     10.4184                 5.9540                26.1732

                     16                     17                     18
                      A                      A                      A
 Frequencies --    906.4080               926.7589               963.8115
 Red. masses --      3.6702                 2.5166                 1.5254
 Frc consts  --      1.7766                 1.2735                 0.8349
 IR Inten    --      1.1448                 2.8113                 4.4391

                     19                     20                     21
                      A                      A                      A
 Frequencies --    978.8934               991.1923              1039.5074
 Red. masses --      2.1979                 3.0469                 2.0105
 Frc consts  --      1.2409                 1.7637                 1.2800
 IR Inten    --      3.1872                33.8872                15.9813

                     22                     23                     24
                      A                      A                      A
 Frequencies --   1040.8994              1062.8909              1099.1265
 Red. masses --      3.3606                 2.0371                 1.7082
 Frc consts  --      2.1453                 1.3559                 1.2159
 IR Inten    --     12.0299                16.8614                22.2446

                     25                     26                     27
                      A                      A                      A
 Frequencies --   1123.1994              1138.2878              1182.7166
 Red. masses --      1.1664                 2.1148                 1.5884
 Frc consts  --      0.8670                 1.6144                 1.3091
 IR Inten    --     20.2728               101.3532                 4.5879

                     28                     29                     30
                      A                      A                      A
 Frequencies --   1200.6958              1216.7422              1232.6060
 Red. masses --      1.6768                 1.3110                 1.5419
 Frc consts  --      1.4243                 1.1435                 1.3802
 IR Inten    --      6.0668                22.2213                 0.4594

                     31                     32                     33
                      A                      A                      A
 Frequencies --   1258.6685              1275.6326              1285.5586
 Red. masses --      1.3464                 1.3116                 1.7240
 Frc consts  --      1.2567                 1.2574                 1.6787
 IR Inten    --      2.7731                 1.0827                 6.3604

                     34                     35                     36
                      A                      A                      A
 Frequencies --   1295.2569              1310.0832              1335.9467
 Red. masses --      1.6681                 1.4350                 1.5718
 Frc consts  --      1.6489                 1.4511                 1.6528
 IR Inten    --      6.7321                 7.4980                 0.2349

                     37                     38                     39
                      A                      A                      A
 Frequencies --   1354.4704              1363.2475              1448.4438
 Red. masses --      1.4379                 1.6821                 1.2782
 Frc consts  --      1.5542                 1.8418                 1.5799
 IR Inten    --      7.6809                 4.6751                98.4483

                     40                     41                     42
                      A                      A                      A
 Frequencies --   1476.6715              1499.8577              3041.8584
 Red. masses --      1.0868                 1.0988                 1.0644
 Frc consts  --      1.3962                 1.4563                 5.8025
 IR Inten    --      1.1461                 1.4658                25.6419

                     43                     44                     45
                      A                      A                      A
 Frequencies --   3058.1085              3090.7330              3097.6529
 Red. masses --      1.0606                 1.1020                 1.0864
 Frc consts  --      5.8437                 6.2025                 6.1420
 IR Inten    --     39.7394                 6.5283                13.2380

                     46                     47                     48
                      A                      A                      A
 Frequencies --   3102.2282              3109.7909              3118.9730
 Red. masses --      1.0902                 1.1015                 1.0875
 Frc consts  --      6.1815                 6.2764                 6.2329
 IR Inten    --     42.8597                29.1667                21.0090

                     49                     50                     51
                      A                      A                      A
 Frequencies --   3128.6752              3135.8767              3750.2638
 Red. masses --      1.0891                 1.0937                 1.0645
 Frc consts  --      6.2811                 6.3370                 8.8207
 IR Inten    --     66.2408                14.7892                26.1854

 - Thermochemistry -
 -------------------
 Temperature   298.150 Kelvin.  Pressure   1.00000 Atm.
 Atom     1 has atomic number  8 and mass  15.99491

 Molecular mass:   126.06808 amu.
 Principal axes and moments of inertia in atomic units:
                           1         2         3
     Eigenvalues --   499.704991137.687381233.38753
           X            0.99995   0.00598   0.00745
           Y           -0.00643   0.99811   0.06110
           Z           -0.00707  -0.06114   0.99810
 This molecule is an asymmetric top.
 Rotational symmetry number  1.
 Warning -- assumption of classical behavior for rotation
           may cause significant error
 Rotational temperatures (Kelvin)      0.17333     0.07613     0.07022
 Rotational constants (GHZ):           3.61161     1.58632     1.46324
 Zero-point vibrational energy     428013.0 (Joules/Mol)
                                  102.29756 (Kcal/Mol)
 Warning -- explicit consideration of   7 degrees of freedom as
           vibrations may cause significant error
 Vibrational temperatures:    287.86   324.85   368.94   572.22   669.47
          (Kelvin)            738.54   811.31   950.64  1051.96  1072.95
                             1124.40  1159.55  1200.16  1219.35  1276.55
                             1304.12  1333.40  1386.71  1408.41  1426.10
                             1495.62  1497.62  1529.26  1581.40  1616.03
                             1637.74  1701.66  1727.53  1750.62  1773.44
                             1810.94  1835.35  1849.63  1863.58  1884.92
                             1922.13  1948.78  1961.41  2083.98  2124.60
                             2157.96  4376.55  4399.93  4446.87  4456.83
                             4463.41  4474.29  4487.50  4501.46  4511.82
                             5395.79

 Zero-point correction=                           0.163022 (Hartree/Particle)
 Thermal correction to Energy=                    0.169601
 Thermal correction to Enthalpy=                  0.170545
 Thermal correction to Gibbs Free Energy=         0.132422
 Sum of electronic and zero-point Energies=           -423.018762
 Sum of electronic and thermal Energies=              -423.012182
 Sum of electronic and thermal Enthalpies=            -423.011238
 Sum of electronic and thermal Free Energies=         -423.049361

                     E (Thermal)             CV                S
                      KCal/Mol        Cal/Mol-Kelvin    Cal/Mol-Kelvin
 Total                  106.426             28.057             80.237
 Electronic               0.000              0.000              0.000
 Translational            0.889              2.981             40.409
 Rotational               0.889              2.981             28.041
 Vibrational            104.649             22.095             11.788
 Vibration     1          0.638              1.840              2.132
 Vibration     2          0.650              1.802              1.912
 Vibration     3          0.666              1.752              1.686
 Vibration     4          0.764              1.475              0.971
 Vibration     5          0.823              1.327              0.751
 Vibration     6          0.868              1.221              0.626
 Vibration     7          0.920              1.109              0.516

 Optimization completed.
    -- Stationary point found.
 Normal termination of Gaussian 09 at Tue Jan 28 00:41:40 2020.
