 Gaussian 09, Revision D.01,
 Gaussian 09:  ES64L-G09RevD.01 24-Apr-2013

 -----------------------------
 # b3lyp 6-31G(2df,p) opt Freq
 -----------------------------

 -----
 titel
 -----
 Symbolic Z-matrix:
 Charge =  0 Multiplicity = 1

 SCF Done:  E(RB3LYP) =  -423.198857930     A.U. after   14 cycles
 Optimization completed.
    -- Stationary point found.
 Normal termination of Gaussian 09 at Tue Jan 28 00:05:40 2020.

 ----------------------------------------------------------------------
 #N Geom=AllCheck Guess=TCheck SCRF=Check GenChk RB3LYP/6-31G(2df,p) Fr
 eq
 ----------------------------------------------------------------------

 Structure from the checkpoint file:  "/scratch/puck/g09_cb9c917c-6a5d-4859-bf46-ae2b1f969335/Gau-71690.chk"
 -----
 titel
 -----
 Charge =  0 Multiplicity = 1

                         Standard orientation:
 ---------------------------------------------------------------------
 Center     Atomic      Atomic             Coordinates (Angstroms)
 Number     Number       Type             X           Y           Z
 ---------------------------------------------------------------------
      1          8           0        2.128364   -1.143134   -0.107966
      2          6           0        0.723056   -1.028172   -0.019584
      3          6           0        0.259262    0.008931   -1.081611
      4          6           0       -1.275496   -0.049841   -1.288209
      5          6           0       -1.988910   -0.522732    0.001403
      6          6           0       -1.267848   -0.075732    1.296390
      7          6           0        0.266488   -0.013545    1.080107
      8          6           0        0.521866    1.061442    0.008798
      9          8           0        0.816044    2.220201    0.021764
     10          1           0        2.451162   -1.542592    0.706440
     11          1           0        0.233713   -2.008883   -0.027862
     12          1           0        0.820393    0.062883   -2.015496
     13          1           0       -1.622568    0.944942   -1.588848
     14          1           0       -1.515915   -0.728220   -2.113578
     15          1           0       -3.028340   -0.181801    0.008506
     16          1           0       -2.033066   -1.616441   -0.009793
     17          1           0       -1.613513    0.912620    1.619413
     18          1           0       -1.504423   -0.770322    2.109635
     19          1           0        0.826790    0.029167    2.017428
 ---------------------------------------------------------------------

 SCF Done:  E(RB3LYP) =  -423.198857930     A.U. after    1 cycles

 The electronic state is 1-A.
 Alpha  occ. eigenvalues --  -19.14686 -19.13052 -10.26052 -10.24230 -10.19832
 Alpha  occ. eigenvalues --  -10.19682 -10.19471 -10.19348 -10.19278  -1.04197
 Alpha  occ. eigenvalues --   -1.02941  -0.86972  -0.76346  -0.74486  -0.63471
 Alpha  occ. eigenvalues --   -0.61169  -0.59570  -0.52777  -0.50866  -0.46867
 Alpha  occ. eigenvalues --   -0.45987  -0.45139  -0.43901  -0.40044  -0.39736
 Alpha  occ. eigenvalues --   -0.39207  -0.38667  -0.36799  -0.34887  -0.33631
 Alpha  occ. eigenvalues --   -0.32434  -0.30332  -0.27315  -0.23048
 Alpha virt. eigenvalues --   -0.00749   0.06842   0.08144   0.10818   0.12579
 Alpha virt. eigenvalues --    0.12925   0.15001   0.15723   0.15894   0.16673
 Alpha virt. eigenvalues --    0.17247   0.18261   0.19972   0.21326   0.22405

 Mulliken charges:
               1
     1  O   -0.446114
     2  C    0.125032
     3  C   -0.140061
     4  C   -0.232300
     5  C   -0.204366
     6  C   -0.229012
     7  C   -0.182409
     8  C    0.441497
     9  O   -0.326537
    10  H    0.284310
    11  H    0.067914
    12  H    0.095750
    13  H    0.120854
    14  H    0.106945
    15  H    0.104299
    16  H    0.111045
    17  H    0.121252
    18  H    0.103722
    19  H    0.078177
 Sum of Mulliken charges =   0.00000

 Dipole moment (field-independent basis, Debye):
    X=             -1.7860    Y=             -3.0773    Z=              1.1056  Tot=              3.7259
 Quadrupole moment (field-independent basis, Debye-Ang):
   XX=            -53.1293   YY=            -58.6144   ZZ=            -50.1802
   XY=             -3.6551   XZ=              3.3871   YZ=             -2.2562

  Exact polarizability:  76.903   1.460  72.881   1.252  -0.869  73.604
 Approx polarizability: 106.334   4.233 117.211   0.931  -1.109 106.730

                      1                      2                      3
                      A                      A                      A
 Frequencies --    126.1267               202.4300               212.7240
 Red. masses --      7.0308                 2.7369                 2.3921
 Frc consts  --      0.0659                 0.0661                 0.0638
 IR Inten    --      2.2890                 1.3057                 1.6857

                      4                      5                      6
                      A                      A                      A
 Frequencies --    230.8004               301.1768               321.4179
 Red. masses --      2.0011                 1.6414                 1.9942
 Frc consts  --      0.0628                 0.0877                 0.1214
 IR Inten    --      1.1052                50.3758                54.0478

                      7                      8                      9
                      A                      A                      A
 Frequencies --    439.8445               454.7735               482.8790
 Red. masses --      4.5946                 3.6039                 4.4664
 Frc consts  --      0.5237                 0.4391                 0.6136
 IR Inten    --      6.8880                 5.2447                 2.1794

                     10                     11                     12
                      A                      A                      A
 Frequencies --    533.9940               672.3245               752.5913
 Red. masses --      4.1599                 2.0834                 3.1003
 Frc consts  --      0.6989                 0.5549                 1.0346
 IR Inten    --      1.8893                 0.5515                 2.9654

                     13                     14                     15
                      A                      A                      A
 Frequencies --    800.6594               827.5767               875.7379
 Red. masses --      3.4259                 1.9978                 2.6593
 Frc consts  --      1.2940                 0.8061                 1.2016
 IR Inten    --      2.1396                 6.2535                 4.9090

                     16                     17                     18
                      A                      A                      A
 Frequencies --    896.9165               906.9254               923.6275
 Red. masses --      2.1356                 2.5442                 1.9213
 Frc consts  --      1.0122                 1.2330                 0.9657
 IR Inten    --      4.8518                 5.3436                 3.9343

                     19                     20                     21
                      A                      A                      A
 Frequencies --   1002.4145              1019.8887              1050.3223
 Red. masses --      2.6962                 2.0638                 1.7661
 Frc consts  --      1.5962                 1.2648                 1.1479
 IR Inten    --     22.6502                25.6168                28.2697

                     22                     23                     24
                      A                      A                      A
 Frequencies --   1075.1738              1077.7176              1113.0244
 Red. masses --      2.3690                 2.7425                 1.3768
 Frc consts  --      1.6135                 1.8768                 1.0049
 IR Inten    --      5.3242                 0.6206                 7.9170

                     25                     26                     27
                      A                      A                      A
 Frequencies --   1133.1794              1141.1957              1168.1897
 Red. masses --      1.9595                 1.8425                 1.2537
 Frc consts  --      1.4825                 1.4137                 1.0080
 IR Inten    --     24.6857                11.6665                15.9299

                     28                     29                     30
                      A                      A                      A
 Frequencies --   1215.6033              1245.0807              1250.7313
 Red. masses --      1.5686                 1.3916                 1.6579
 Frc consts  --      1.3657                 1.2710                 1.5281
 IR Inten    --      7.8857                 2.7452                20.5290

                     31                     32                     33
                      A                      A                      A
 Frequencies --   1283.7616              1299.4711              1316.8017
 Red. masses --      1.3283                 1.3875                 1.3324
 Frc consts  --      1.2898                 1.3804                 1.3612
 IR Inten    --     13.7365                 7.7241                35.2288

                     34                     35                     36
                      A                      A                      A
 Frequencies --   1353.9426              1367.0930              1371.9573
 Red. masses --      1.3764                 1.4336                 1.3046
 Frc consts  --      1.4866                 1.5786                 1.4468
 IR Inten    --      5.9463                 1.3691                 1.2737

                     37                     38                     39
                      A                      A                      A
 Frequencies --   1413.6525              1494.1021              1494.9939
 Red. masses --      1.4425                 1.0709                 1.0833
 Frc consts  --      1.6984                 1.4085                 1.4266
 IR Inten    --      5.8689                 2.5305                 2.0544

                     40                     41                     42
                      A                      A                      A
 Frequencies --   1512.6055              1898.8888              3032.7010
 Red. masses --      1.0919                12.1153                 1.0813
 Frc consts  --      1.4719                25.7386                 5.8595
 IR Inten    --      1.0773               269.2311                25.6881

                     43                     44                     45
                      A                      A                      A
 Frequencies --   3035.6156              3038.1441              3050.1252
 Red. masses --      1.0614                 1.0599                 1.0725
 Frc consts  --      5.7624                 5.7642                 5.8787
 IR Inten    --     28.4114                32.5273                33.3113

                     46                     47                     48
                      A                      A                      A
 Frequencies --   3069.9465              3074.6495              3085.2026
 Red. masses --      1.0946                 1.1041                 1.0885
 Frc consts  --      6.0783                 6.1497                 6.1043
 IR Inten    --     34.9715                 4.1829                26.4219

                     49                     50                     51
                      A                      A                      A
 Frequencies --   3094.7514              3111.1146              3811.9047
 Red. masses --      1.1042                 1.0885                 1.0662
 Frc consts  --      6.2309                 6.2077                 9.1278
 IR Inten    --     50.2317                14.7776                23.4748

 - Thermochemistry -
 -------------------
 Temperature   298.150 Kelvin.  Pressure   1.00000 Atm.
 Atom     1 has atomic number  8 and mass  15.99491

 Molecular mass:   126.06808 amu.
 Principal axes and moments of inertia in atomic units:
                           1         2         3
     Eigenvalues --   829.595461078.955531257.64373
           X            0.99984  -0.01100   0.01415
           Y            0.01134   0.99964  -0.02448
           Z           -0.01387   0.02464   0.99960
 This molecule is an asymmetric top.
 Rotational symmetry number  1.
 Warning -- assumption of classical behavior for rotation
           may cause significant error
 Rotational temperatures (Kelvin)      0.10440     0.08028     0.06887
 Rotational constants (GHZ):           2.17545     1.67267     1.43502
 Zero-point vibrational energy     422679.4 (Joules/Mol)
                                  101.02279 (Kcal/Mol)
 Warning -- explicit consideration of  10 degrees of freedom as
           vibrations may cause significant error
 Vibrational temperatures:    181.47   291.25   306.06   332.07   433.33
          (Kelvin)            462.45   632.84   654.32   694.75   768.30
                              967.32  1082.81  1151.97  1190.70  1259.99
                             1290.46  1304.86  1328.89  1442.25  1467.39
                             1511.18  1546.93  1550.59  1601.39  1630.39
                             1641.92  1680.76  1748.98  1791.39  1799.52
                             1847.04  1869.65  1894.58  1948.02  1966.94
                             1973.94  2033.93  2149.68  2150.96  2176.30
                             2732.07  4363.37  4367.57  4371.21  4388.44
                             4416.96  4423.73  4438.91  4452.65  4476.19
                             5484.47

 Zero-point correction=                           0.160990 (Hartree/Particle)
 Thermal correction to Energy=                    0.168852
 Thermal correction to Enthalpy=                  0.169796
 Thermal correction to Gibbs Free Energy=         0.128943
 Sum of electronic and zero-point Energies=           -423.037868
 Sum of electronic and thermal Energies=              -423.030006
 Sum of electronic and thermal Enthalpies=            -423.029062
 Sum of electronic and thermal Free Energies=         -423.069915

                     E (Thermal)             CV                S
                      KCal/Mol        Cal/Mol-Kelvin    Cal/Mol-Kelvin
 Total                  105.956             31.055             85.983
 Electronic               0.000              0.000              0.000
 Translational            0.889              2.981             40.409
 Rotational               0.889              2.981             28.511
 Vibrational            104.179             25.094             17.063
 Vibration     1          0.611              1.927              3.004
 Vibration     2          0.639              1.836              2.111
 Vibration     3          0.644              1.822              2.020
 Vibration     4          0.653              1.794              1.873
 Vibration     5          0.693              1.671              1.410
 Vibration     6          0.707              1.633              1.303
 Vibration     7          0.800              1.383              0.827
 Vibration     8          0.813              1.350              0.781
 Vibration     9          0.839              1.288              0.702
 Vibration    10          0.889              1.175              0.578

 Normal termination of Gaussian 09 at Tue Jan 28 00:51:00 2020.
