 Gaussian 09, Revision D.01,
 Gaussian 09:  ES64L-G09RevD.01 24-Apr-2013

 -----------------------------
 # b3lyp 6-31G(2df,p) opt Freq
 -----------------------------

 -----
 titel
 -----
 Symbolic Z-matrix:
 Charge =  0 Multiplicity = 1

 SCF Done:  E(RB3LYP) =  -423.158482533     A.U. after   13 cycles
 Optimization completed.
    -- Stationary point found.
 Normal termination of Gaussian 09 at Mon Jan 27 23:05:34 2020.

 ----------------------------------------------------------------------
 #N Geom=AllCheck Guess=TCheck SCRF=Check GenChk RB3LYP/6-31G(2df,p) Fr
 eq
 ----------------------------------------------------------------------

 Structure from the checkpoint file:  "/scratch/puck/g09_28b3cd6b-8850-4094-9490-8863df55148a/Gau-48998.chk"
 -----
 titel
 -----
 Charge =  0 Multiplicity = 1

                         Standard orientation:
 ---------------------------------------------------------------------
 Center     Atomic      Atomic             Coordinates (Angstroms)
 Number     Number       Type             X           Y           Z
 ---------------------------------------------------------------------
      1          6           0        2.307734   -1.087646   -0.535123
      2          6           0        1.344815   -0.283963    0.347514
      3          6           0        0.984758    1.053987   -0.308424
      4          8           0        0.116315    1.902138    0.440469
      5          6           0       -0.460873    1.101332   -0.590557
      6          6           0       -1.090289   -0.198623   -0.095150
      7          6           0       -2.335220   -0.731323   -0.745945
      8          8           0       -0.967140   -0.355746    1.322740
      9          6           0        0.000556   -1.002590    0.493373
     10          1           0        2.529030   -2.061567   -0.088143
     11          1           0        1.881659   -1.264678   -1.529099
     12          1           0        3.255102   -0.556287   -0.667332
     13          1           0        1.794275   -0.113938    1.332503
     14          1           0        1.731326    1.569867   -0.910753
     15          1           0       -0.905154    1.639208   -1.424044
     16          1           0       -2.578934   -1.721735   -0.354218
     17          1           0       -3.186626   -0.068925   -0.554953
     18          1           0       -2.206089   -0.808315   -1.831144
     19          1           0       -0.016881   -2.091802    0.527384
 ---------------------------------------------------------------------

 SCF Done:  E(RB3LYP) =  -423.158482533     A.U. after    1 cycles

 The electronic state is 1-A.
 Alpha  occ. eigenvalues --  -19.14987 -19.14614 -10.24187 -10.23626 -10.23582
 Alpha  occ. eigenvalues --  -10.23257 -10.19787 -10.18845 -10.18809  -1.08781
 Alpha  occ. eigenvalues --   -1.05538  -0.80214  -0.75960  -0.69318  -0.65817
 Alpha  occ. eigenvalues --   -0.64028  -0.57783  -0.56549  -0.51509  -0.46553
 Alpha  occ. eigenvalues --   -0.46160  -0.45100  -0.43256  -0.41985  -0.40378
 Alpha  occ. eigenvalues --   -0.39562  -0.37421  -0.37181  -0.36476  -0.35102
 Alpha  occ. eigenvalues --   -0.31517  -0.27551  -0.26054  -0.25591
 Alpha virt. eigenvalues --    0.06712   0.08666   0.10084   0.11115   0.11669
 Alpha virt. eigenvalues --    0.13264   0.14097   0.14796   0.14959   0.16196
 Alpha virt. eigenvalues --    0.17888   0.18073   0.18482   0.21129   0.22304

 Mulliken charges:
               1
     1  C   -0.409015
     2  C   -0.063792
     3  C    0.037636
     4  O   -0.240941
     5  C   -0.046172
     6  C    0.401528
     7  C   -0.501820
     8  O   -0.283069
     9  C   -0.030031
    10  H    0.123323
    11  H    0.119983
    12  H    0.123139
    13  H    0.103981
    14  H    0.092480
    15  H    0.093559
    16  H    0.133183
    17  H    0.134780
    18  H    0.122969
    19  H    0.088280
 Sum of Mulliken charges =   0.00000

 Dipole moment (field-independent basis, Debye):
    X=              0.8426    Y=             -1.6529    Z=             -2.7155  Tot=              3.2887
 Quadrupole moment (field-independent basis, Debye-Ang):
   XX=            -49.2066   YY=            -54.6150   ZZ=            -55.2863
   XY=             -0.1589   XZ=              2.9000   YZ=             -2.6493

  Exact polarizability:  86.587  -1.803  71.651   3.384  -3.111  63.486
 Approx polarizability: 116.558  -4.865 104.728   3.457  -1.451 103.410

                      1                      2                      3
                      A                      A                      A
 Frequencies --    120.8473               186.5415               197.6458
 Red. masses --      2.6952                 1.0520                 1.6564
 Frc consts  --      0.0232                 0.0216                 0.0381
 IR Inten    --      0.8162                 0.0625                 1.2318

                      4                      5                      6
                      A                      A                      A
 Frequencies --    226.4083               282.7518               311.1117
 Red. masses --      1.4366                 3.0535                 2.7612
 Frc consts  --      0.0434                 0.1438                 0.1575
 IR Inten    --      0.6631                 0.3152                 0.6028

                      7                      8                      9
                      A                      A                      A
 Frequencies --    334.3479               398.0366               516.0900
 Red. masses --      4.9086                 4.2976                 4.7477
 Frc consts  --      0.3233                 0.4012                 0.7450
 IR Inten    --      0.3876                 3.3446                 9.4742

                     10                     11                     12
                      A                      A                      A
 Frequencies --    557.7835               591.2187               688.2210
 Red. masses --      4.9071                 4.3449                 3.5915
 Frc consts  --      0.8995                 0.8948                 1.0023
 IR Inten    --     18.2376                 2.0723                 1.6203

                     13                     14                     15
                      A                      A                      A
 Frequencies --    757.1010               841.7490               857.5926
 Red. masses --      5.0228                 2.0343                 2.5819
 Frc consts  --      1.6963                 0.8493                 1.1188
 IR Inten    --      8.1396                 4.1434                18.9919

                     16                     17                     18
                      A                      A                      A
 Frequencies --    871.8086               886.4062               915.7261
 Red. masses --      3.5461                 3.1867                 2.6676
 Frc consts  --      1.5880                 1.4752                 1.3180
 IR Inten    --      2.1302                16.0371                22.6882

                     19                     20                     21
                      A                      A                      A
 Frequencies --    944.6969              1004.9518              1023.0775
 Red. masses --      1.9719                 1.3603                 1.4421
 Frc consts  --      1.0368                 0.8094                 0.8893
 IR Inten    --      1.2614                 0.0378                 7.0014

                     22                     23                     24
                      A                      A                      A
 Frequencies --   1030.1779              1071.3067              1097.9428
 Red. masses --      2.4800                 1.4980                 2.7387
 Frc consts  --      1.5507                 1.0130                 1.9451
 IR Inten    --      8.4377                 5.4835                 1.1101

                     25                     26                     27
                      A                      A                      A
 Frequencies --   1111.9145              1135.5894              1146.4985
 Red. masses --      1.8675                 1.9398                 1.6739
 Frc consts  --      1.3604                 1.4739                 1.2964
 IR Inten    --     10.6962                 1.5756                 0.7478

                     28                     29                     30
                      A                      A                      A
 Frequencies --   1224.1969              1260.4716              1285.2680
 Red. masses --      1.8031                 1.5200                 1.2673
 Frc consts  --      1.5921                 1.4229                 1.2335
 IR Inten    --     10.9758                 4.0412                 3.9492

                     31                     32                     33
                      A                      A                      A
 Frequencies --   1293.4808              1315.3727              1334.8008
 Red. masses --      1.7365                 1.5241                 1.8736
 Frc consts  --      1.7118                 1.5537                 1.9668
 IR Inten    --      3.9846                 2.2409                 3.9578

                     34                     35                     36
                      A                      A                      A
 Frequencies --   1405.4523              1410.8489              1425.6363
 Red. masses --      1.4163                 1.2672                 2.3304
 Frc consts  --      1.6483                 1.4861                 2.7905
 IR Inten    --      0.2606                 3.5020                17.9059

                     37                     38                     39
                      A                      A                      A
 Frequencies --   1455.7127              1484.3797              1494.9210
 Red. masses --      2.8646                 1.1201                 1.1076
 Frc consts  --      3.5765                 1.4541                 1.4584
 IR Inten    --      9.3795                 6.1657                 1.9224

                     40                     41                     42
                      A                      A                      A
 Frequencies --   1498.3363              1500.4469              3033.1811
 Red. masses --      1.0508                 1.0525                 1.0361
 Frc consts  --      1.3899                 1.3961                 5.6163
 IR Inten    --      5.5383                 3.6070                20.9121

                     43                     44                     45
                      A                      A                      A
 Frequencies --   3034.2154              3050.5444              3095.7474
 Red. masses --      1.0365                 1.0831                 1.1006
 Frc consts  --      5.6222                 5.9387                 6.2148
 IR Inten    --     17.5095                11.3430                16.3988

                     46                     47                     48
                      A                      A                      A
 Frequencies --   3101.3301              3108.4374              3112.4930
 Red. masses --      1.1003                 1.0979                 1.0939
 Frc consts  --      6.2355                 6.2504                 6.2440
 IR Inten    --     28.2965                 1.1221                46.9886

                     49                     50                     51
                      A                      A                      A
 Frequencies --   3120.3844              3124.4797              3150.4745
 Red. masses --      1.0891                 1.1004                 1.0929
 Frc consts  --      6.2480                 6.3292                 6.3914
 IR Inten    --     29.3282                14.0667                24.1772

 - Thermochemistry -
 -------------------
 Temperature   298.150 Kelvin.  Pressure   1.00000 Atm.
 Atom     1 has atomic number  6 and mass  12.00000

 Molecular mass:   126.06808 amu.
 Principal axes and moments of inertia in atomic units:
                           1         2         3
     Eigenvalues --   726.308021095.068361376.51899
           X            0.99964  -0.01906   0.01877
           Y            0.01911   0.99981  -0.00256
           Z           -0.01872   0.00291   0.99982
 This molecule is an asymmetric top.
 Rotational symmetry number  1.
 Warning -- assumption of classical behavior for rotation
           may cause significant error
 Rotational temperatures (Kelvin)      0.11925     0.07909     0.06292
 Rotational constants (GHZ):           2.48482     1.64806     1.31109
 Zero-point vibrational energy     415272.6 (Joules/Mol)
                                   99.25253 (Kcal/Mol)
 Warning -- explicit consideration of  11 degrees of freedom as
           vibrations may cause significant error
 Vibrational temperatures:    173.87   268.39   284.37   325.75   406.82
          (Kelvin)            447.62   481.05   572.69   742.54   802.52
                              850.63   990.20  1089.30  1211.09  1233.88
                             1254.34  1275.34  1317.52  1359.21  1445.90
                             1471.98  1482.19  1541.37  1579.69  1599.80
                             1633.86  1649.55  1761.34  1813.54  1849.21
                             1861.03  1892.53  1920.48  2022.13  2029.89
                             2051.17  2094.44  2135.69  2150.86  2155.77
                             2158.81  4364.07  4365.55  4389.05  4454.08
                             4462.12  4472.34  4478.18  4489.53  4495.42
                             4532.82

 Zero-point correction=                           0.158169 (Hartree/Particle)
 Thermal correction to Energy=                    0.166359
 Thermal correction to Enthalpy=                  0.167303
 Thermal correction to Gibbs Free Energy=         0.125823
 Sum of electronic and zero-point Energies=           -423.000314
 Sum of electronic and thermal Energies=              -422.992124
 Sum of electronic and thermal Enthalpies=            -422.991179
 Sum of electronic and thermal Free Energies=         -423.032660

                     E (Thermal)             CV                S
                      KCal/Mol        Cal/Mol-Kelvin    Cal/Mol-Kelvin
 Total                  104.392             31.978             87.303
 Electronic               0.000              0.000              0.000
 Translational            0.889              2.981             40.409
 Rotational               0.889              2.981             28.484
 Vibrational            102.614             26.016             18.410
 Vibration     1          0.609              1.932              3.087
 Vibration     2          0.632              1.858              2.262
 Vibration     3          0.637              1.843              2.155
 Vibration     4          0.650              1.801              1.907
 Vibration     5          0.682              1.706              1.517
 Vibration     6          0.700              1.653              1.356
 Vibration     7          0.716              1.607              1.239
 Vibration     8          0.764              1.474              0.970
 Vibration     9          0.871              1.214              0.619
 Vibration    10          0.913              1.123              0.528
 Vibration    11          0.949              1.050              0.465

 Optimization completed.
    -- Stationary point found.
 Normal termination of Gaussian 09 at Mon Jan 27 23:54:49 2020.
