 Gaussian 09, Revision D.01,
 Gaussian 09:  ES64L-G09RevD.01 24-Apr-2013

 -----------------------------
 # b3lyp 6-31G(2df,p) opt Freq
 -----------------------------

 -----
 titel
 -----
 Symbolic Z-matrix:
 Charge =  0 Multiplicity = 1

 SCF Done:  E(RB3LYP) =  -423.111305681     A.U. after   13 cycles
 Optimization completed.
    -- Stationary point found.
 Normal termination of Gaussian 09 at Tue Jan 28 12:48:15 2020.

 ----------------------------------------------------------------------
 #N Geom=AllCheck Guess=TCheck SCRF=Check GenChk RB3LYP/6-31G(2df,p) Fr
 eq
 ----------------------------------------------------------------------

 Structure from the checkpoint file:  "/scratch/puck/g09_043e4a7c-9eb0-498d-8bd8-77ecb3e7c32a/Gau-10924.chk"
 -----
 titel
 -----
 Charge =  0 Multiplicity = 1

                         Standard orientation:
 ---------------------------------------------------------------------
 Center     Atomic      Atomic             Coordinates (Angstroms)
 Number     Number       Type             X           Y           Z
 ---------------------------------------------------------------------
      1          6           0       -2.912923    0.163581    0.246796
      2          8           0       -1.779860    0.071225   -0.586942
      3          6           0       -0.726433   -0.680354   -0.024106
      4          6           0        0.082461    0.088211    1.022688
      5          6           0        1.562398   -0.379729    0.869781
      6          6           0        1.587361   -1.440992   -0.230554
      7          6           0        0.511628   -0.580169   -0.943378
      8          6           0        0.988942    0.656299   -0.042708
      9          8           0        1.440659    1.914923   -0.322450
     10          1           0       -2.699055    0.697636    1.184601
     11          1           0       -3.677559    0.716461   -0.304590
     12          1           0       -3.310865   -0.831132    0.501830
     13          1           0       -1.078596   -1.692499    0.232747
     14          1           0       -0.247977    0.546142    1.946075
     15          1           0        2.256666   -0.230122    1.687001
     16          1           0        2.539492   -1.435639   -0.767597
     17          1           0        1.313627   -2.471696    0.022427
     18          1           0        0.372782   -0.596825   -2.021850
     19          1           0        0.684493    2.447407   -0.596621
 ---------------------------------------------------------------------

 SCF Done:  E(RB3LYP) =  -423.111305681     A.U. after    1 cycles

 The electronic state is 1-A.
 Alpha  occ. eigenvalues --  -19.15430 -19.13929 -10.23632 -10.23021 -10.22371
 Alpha  occ. eigenvalues --  -10.18980 -10.18684 -10.18353 -10.18345  -1.04180
 Alpha  occ. eigenvalues --   -1.03167  -0.91689  -0.72759  -0.71391  -0.65679
 Alpha  occ. eigenvalues --   -0.61967  -0.56117  -0.54303  -0.51724  -0.48990
 Alpha  occ. eigenvalues --   -0.46506  -0.45903  -0.42997  -0.42486  -0.40908
 Alpha  occ. eigenvalues --   -0.39749  -0.35853  -0.34441  -0.33326  -0.31867
 Alpha  occ. eigenvalues --   -0.29545  -0.26548  -0.24196  -0.23410
 Alpha virt. eigenvalues --    0.08085   0.09417   0.10710   0.11209   0.12864
 Alpha virt. eigenvalues --    0.13781   0.14147   0.15450   0.15827   0.16501
 Alpha virt. eigenvalues --    0.18224   0.18921   0.20186   0.21548   0.22082

 Mulliken charges:
               1
     1  C   -0.239926
     2  O   -0.259367
     3  C    0.156928
     4  C   -0.192229
     5  C   -0.122929
     6  C   -0.240897
     7  C   -0.173324
     8  C    0.390105
     9  O   -0.454448
    10  H    0.104983
    11  H    0.125267
    12  H    0.105054
    13  H    0.054866
    14  H    0.087431
    15  H    0.091207
    16  H    0.105812
    17  H    0.089477
    18  H    0.078490
    19  H    0.293499
 Sum of Mulliken charges =   0.00000

 Dipole moment (field-independent basis, Debye):
    X=             -1.1918    Y=             -0.1283    Z=              0.7401  Tot=              1.4088
 Quadrupole moment (field-independent basis, Debye-Ang):
   XX=            -53.0232   YY=            -51.3866   ZZ=            -52.6376
   XY=             -3.2831   XZ=             -1.3617   YZ=             -0.1447

  Exact polarizability:  86.268  -3.893  73.466  -0.422   0.668  67.052
 Approx polarizability: 113.529  -2.614 109.344  -0.407  -2.151 105.039

                      1                      2                      3
                      A                      A                      A
 Frequencies --     88.3870               135.0159               191.9328
 Red. masses --      3.0390                 2.2440                 1.5666
 Frc consts  --      0.0140                 0.0241                 0.0340
 IR Inten    --      0.4678                 2.8368                 1.1281

                      4                      5                      6
                      A                      A                      A
 Frequencies --    235.1184               290.0890               370.6206
 Red. masses --      2.4178                 2.1441                 2.7873
 Frc consts  --      0.0787                 0.1063                 0.2256
 IR Inten    --      5.5752                13.6903                 2.5086

                      7                      8                      9
                      A                      A                      A
 Frequencies --    388.5462               407.1638               468.2382
 Red. masses --      1.4667                 3.8959                 2.3752
 Frc consts  --      0.1305                 0.3805                 0.3068
 IR Inten    --     84.2392                 3.1853                 2.3078

                     10                     11                     12
                      A                      A                      A
 Frequencies --    520.5360               624.0862               725.4821
 Red. masses --      3.9016                 3.4746                 3.7325
 Frc consts  --      0.6229                 0.7973                 1.1575
 IR Inten    --      7.5513                15.0707                 0.8841

                     13                     14                     15
                      A                      A                      A
 Frequencies --    790.7435               855.1796               869.0507
 Red. masses --      3.9635                 1.8956                 2.3209
 Frc consts  --      1.4601                 0.8168                 1.0327
 IR Inten    --      4.4862                 2.4087                11.4596

                     16                     17                     18
                      A                      A                      A
 Frequencies --    901.1426               929.0646               956.5315
 Red. masses --      2.0103                 2.1557                 1.5805
 Frc consts  --      0.9619                 1.0963                 0.8520
 IR Inten    --     13.3346                 7.1268                 2.5661

                     19                     20                     21
                      A                      A                      A
 Frequencies --    978.5437               996.2586              1008.8485
 Red. masses --      1.7484                 2.3736                 2.0066
 Frc consts  --      0.9864                 1.3880                 1.2033
 IR Inten    --      3.4441                18.9473                 3.9503

                     22                     23                     24
                      A                      A                      A
 Frequencies --   1022.3015              1068.1774              1099.9372
 Red. masses --      2.3389                 1.8309                 2.1750
 Frc consts  --      1.4402                 1.2308                 1.5504
 IR Inten    --      6.0221                 5.6007                20.5510

                     25                     26                     27
                      A                      A                      A
 Frequencies --   1116.5009              1140.8146              1158.9172
 Red. masses --      1.7167                 1.7298                 3.4322
 Frc consts  --      1.2609                 1.3264                 2.7160
 IR Inten    --     26.5859                31.6145                90.8344

                     28                     29                     30
                      A                      A                      A
 Frequencies --   1183.0708              1203.7212              1218.5668
 Red. masses --      1.3129                 1.7966                 1.7130
 Frc consts  --      1.0827                 1.5337                 1.4986
 IR Inten    --      3.7669                 2.4624                10.4801

                     31                     32                     33
                      A                      A                      A
 Frequencies --   1229.6815              1253.2948              1284.3889
 Red. masses --      2.0394                 1.4937                 1.5867
 Frc consts  --      1.8169                 1.3823                 1.5422
 IR Inten    --     58.0229                 4.2723                50.2885

                     34                     35                     36
                      A                      A                      A
 Frequencies --   1297.8218              1318.8965              1380.3425
 Red. masses --      1.7911                 1.5236                 1.4041
 Frc consts  --      1.7774                 1.5615                 1.5763
 IR Inten    --     17.7824               120.7929                34.3700

                     37                     38                     39
                      A                      A                      A
 Frequencies --   1480.9542              1486.7569              1487.9230
 Red. masses --      1.1552                 1.6085                 1.1317
 Frc consts  --      1.4927                 2.0948                 1.4762
 IR Inten    --      0.3810                25.3528                14.4329

                     40                     41                     42
                      A                      A                      A
 Frequencies --   1509.2112              1509.8465              2967.9837
 Red. masses --      1.7187                 1.0802                 1.0750
 Frc consts  --      2.3065                 1.4509                 5.5794
 IR Inten    --     28.6869                10.0370                42.7277

                     43                     44                     45
                      A                      A                      A
 Frequencies --   2978.6811              3023.9685              3035.7653
 Red. masses --      1.0446                 1.1021                 1.0605
 Frc consts  --      5.4605                 5.9377                 5.7586
 IR Inten    --     86.6815                50.6977                66.3788

                     46                     47                     48
                      A                      A                      A
 Frequencies --   3099.2884              3111.7126              3149.3076
 Red. masses --      1.1040                 1.0965                 1.0915
 Frc consts  --      6.2479                 6.2555                 6.3781
 IR Inten    --     25.3207                31.1179                20.9252

                     49                     50                     51
                      A                      A                      A
 Frequencies --   3194.1578              3203.8338              3781.2414
 Red. masses --      1.0918                 1.0944                 1.0658
 Frc consts  --      6.5631                 6.6185                 8.9786
 IR Inten    --      7.8861                16.1214                24.6588

 - Thermochemistry -
 -------------------
 Temperature   298.150 Kelvin.  Pressure   1.00000 Atm.
 Atom     1 has atomic number  6 and mass  12.00000

 Molecular mass:   126.06808 amu.
 Principal axes and moments of inertia in atomic units:
                           1         2         3
     Eigenvalues --   622.305741314.902491549.06525
           X            0.99944  -0.02999  -0.01499
           Y            0.03028   0.99935   0.01975
           Z            0.01439  -0.02019   0.99969
 This molecule is an asymmetric top.
 Rotational symmetry number  1.
 Warning -- assumption of classical behavior for rotation
           may cause significant error
 Rotational temperatures (Kelvin)      0.13918     0.06587     0.05591
 Rotational constants (GHZ):           2.90009     1.37253     1.16505
 Zero-point vibrational energy     417063.9 (Joules/Mol)
                                   99.68067 (Kcal/Mol)
 Warning -- explicit consideration of  10 degrees of freedom as
           vibrations may cause significant error
 Vibrational temperatures:    127.17   194.26   276.15   338.28   417.37
          (Kelvin)            533.24   559.03   585.82   673.69   748.93
                              897.92  1043.81  1137.70  1230.41  1250.37
                             1296.54  1336.72  1376.23  1407.90  1433.39
                             1451.51  1470.86  1536.87  1582.56  1606.39
                             1641.38  1667.42  1702.17  1731.88  1753.24
                             1769.24  1803.21  1847.95  1867.27  1897.60
                             1986.00  2130.76  2139.11  2140.79  2171.42
                             2172.33  4270.26  4285.65  4350.81  4367.78
                             4459.18  4477.05  4531.15  4595.67  4609.60
                             5440.36

 Zero-point correction=                           0.158851 (Hartree/Particle)
 Thermal correction to Energy=                    0.167056
 Thermal correction to Enthalpy=                  0.168000
 Thermal correction to Gibbs Free Energy=         0.126130
 Sum of electronic and zero-point Energies=           -422.952454
 Sum of electronic and thermal Energies=              -422.944250
 Sum of electronic and thermal Enthalpies=            -422.943306
 Sum of electronic and thermal Free Energies=         -422.985175

                     E (Thermal)             CV                S
                      KCal/Mol        Cal/Mol-Kelvin    Cal/Mol-Kelvin
 Total                  104.829             31.847             88.122
 Electronic               0.000              0.000              0.000
 Translational            0.889              2.981             40.409
 Rotational               0.889              2.981             28.629
 Vibrational            103.052             25.886             19.084
 Vibration     1          0.601              1.957              3.695
 Vibration     2          0.613              1.918              2.873
 Vibration     3          0.634              1.851              2.209
 Vibration     4          0.655              1.787              1.840
 Vibration     5          0.686              1.692              1.473
 Vibration     6          0.743              1.533              1.077
 Vibration     7          0.757              1.495              1.006
 Vibration     8          0.772              1.455              0.937
 Vibration     9          0.825              1.321              0.743
 Vibration    10          0.876              1.205              0.609

 Normal termination of Gaussian 09 at Tue Jan 28 14:50:39 2020.
