 Gaussian 09, Revision D.01,
 Gaussian 09:  ES64L-G09RevD.01 24-Apr-2013

 -----------------------------
 # b3lyp 6-31G(2df,p) opt Freq
 -----------------------------

 -----
 titel
 -----
 Symbolic Z-matrix:
 Charge =  0 Multiplicity = 1

 SCF Done:  E(RB3LYP) =  -423.118118500     A.U. after   14 cycles
 Optimization completed.
    -- Stationary point found.
 Normal termination of Gaussian 09 at Tue Jan 28 09:00:05 2020.

 ----------------------------------------------------------------------
 #N Geom=AllCheck Guess=TCheck SCRF=Check GenChk RB3LYP/6-31G(2df,p) Fr
 eq
 ----------------------------------------------------------------------

 Structure from the checkpoint file:  "/scratch/puck/g09_cba388e8-682d-4ecd-a009-e4b84f4eb372/Gau-93664.chk"
 -----
 titel
 -----
 Charge =  0 Multiplicity = 1

                         Standard orientation:
 ---------------------------------------------------------------------
 Center     Atomic      Atomic             Coordinates (Angstroms)
 Number     Number       Type             X           Y           Z
 ---------------------------------------------------------------------
      1          8           0        0.211286    2.336253    0.093397
      2          6           0        0.213191    1.220332   -0.787086
      3          6           0        0.338375   -0.035076    0.064234
      4          6           0       -0.860823   -0.206767    1.012898
      5          6           0       -2.109480   -0.463416    0.303351
      6          6           0       -3.120075   -0.681453   -0.310885
      7          6           0        1.735152   -0.186123    0.715197
      8          8           0        2.088330   -1.252599   -0.189968
      9          6           0        0.758525   -1.282612   -0.746396
     10          1           0        0.057666    3.132352   -0.422921
     11          1           0       -0.713029    1.171704   -1.378814
     12          1           0        1.062803    1.266921   -1.485856
     13          1           0       -0.659373   -1.034849    1.703380
     14          1           0       -0.957746    0.700466    1.620051
     15          1           0       -4.022513   -0.874293   -0.836102
     16          1           0        2.401436    0.678365    0.624897
     17          1           0        1.723515   -0.521837    1.761031
     18          1           0        0.764017   -1.177110   -1.838470
     19          1           0        0.217106   -2.200271   -0.482500
 ---------------------------------------------------------------------

 SCF Done:  E(RB3LYP) =  -423.118118500     A.U. after    1 cycles

 The electronic state is 1-A.
 Alpha  occ. eigenvalues --  -19.14426 -19.13023 -10.23281 -10.22862 -10.22658
 Alpha  occ. eigenvalues --  -10.20834 -10.20485 -10.18434 -10.17339  -1.03706
 Alpha  occ. eigenvalues --   -1.02351  -0.81718  -0.74889  -0.69508  -0.68978
 Alpha  occ. eigenvalues --   -0.65332  -0.54655  -0.52917  -0.51965  -0.49452
 Alpha  occ. eigenvalues --   -0.48611  -0.46222  -0.43566  -0.42662  -0.41465
 Alpha  occ. eigenvalues --   -0.39986  -0.38456  -0.34402  -0.32015  -0.30219
 Alpha  occ. eigenvalues --   -0.27865  -0.26649  -0.26391  -0.24681
 Alpha virt. eigenvalues --    0.04783   0.05254   0.06572   0.09216   0.10142
 Alpha virt. eigenvalues --    0.12508   0.13290   0.14248   0.15072   0.15980
 Alpha virt. eigenvalues --    0.16429   0.18148   0.18273   0.19055   0.21017

 Mulliken charges:
               1
     1  O   -0.427913
     2  C   -0.143457
     3  C    0.293056
     4  C   -0.428157
     5  C    0.304754
     6  C   -0.456519
     7  C   -0.119850
     8  O   -0.275166
     9  C   -0.125156
    10  H    0.292790
    11  H    0.105358
    12  H    0.094180
    13  H    0.127991
    14  H    0.151937
    15  H    0.196622
    16  H    0.111519
    17  H    0.094157
    18  H    0.100658
    19  H    0.103195
 Sum of Mulliken charges =   0.00000

 Dipole moment (field-independent basis, Debye):
    X=             -1.2064    Y=              1.4717    Z=             -0.8708  Tot=              2.0927
 Quadrupole moment (field-independent basis, Debye-Ang):
   XX=            -56.6722   YY=            -50.8758   ZZ=            -50.3953
   XY=              3.4349   XZ=              2.8743   YZ=             -3.2921

  Exact polarizability:  89.507   5.344  70.192   9.555   1.995  69.328
 Approx polarizability: 127.927   8.080  98.299  20.658   5.987 107.763

                      1                      2                      3
                      A                      A                      A
 Frequencies --     55.9637                61.4996               118.1922
 Red. masses --      4.0337                 4.1381                 4.5610
 Frc consts  --      0.0074                 0.0092                 0.0375
 IR Inten    --      4.5322                 0.2449                 0.6625

                      4                      5                      6
                      A                      A                      A
 Frequencies --    145.7756               222.4212               233.5103
 Red. masses --      2.8509                 2.8847                 1.1501
 Frc consts  --      0.0357                 0.0841                 0.0369
 IR Inten    --      4.7747                17.3176                82.2055

                      7                      8                      9
                      A                      A                      A
 Frequencies --    302.9279               348.0847               354.5572
 Red. masses --      3.2775                 2.7798                 2.2304
 Frc consts  --      0.1772                 0.1984                 0.1652
 IR Inten    --      1.3146                 2.5198                 4.6471

                     10                     11                     12
                      A                      A                      A
 Frequencies --    376.9678               435.2274               544.5647
 Red. masses --      2.1612                 5.9343                 3.7205
 Frc consts  --      0.1809                 0.6623                 0.6501
 IR Inten    --      0.1880                 5.5859                 8.1469

                     13                     14                     15
                      A                      A                      A
 Frequencies --    619.5358               641.0575               722.9617
 Red. masses --      1.2094                 1.2512                 3.3261
 Frc consts  --      0.2735                 0.3029                 1.0243
 IR Inten    --     43.7917                37.6312                15.1443

                     16                     17                     18
                      A                      A                      A
 Frequencies --    851.8719               884.1447               922.0200
 Red. masses --      3.6405                 2.1596                 1.6641
 Frc consts  --      1.5566                 0.9946                 0.8335
 IR Inten    --     10.4164                 8.1501                 1.1060

                     19                     20                     21
                      A                      A                      A
 Frequencies --    940.9540               963.8765               994.2303
 Red. masses --      2.7865                 1.7480                 2.2313
 Frc consts  --      1.4536                 0.9568                 1.2995
 IR Inten    --     10.4616                 6.6264                 3.2446

                     22                     23                     24
                      A                      A                      A
 Frequencies --   1016.2996              1034.6596              1072.1287
 Red. masses --      2.4272                11.0674                 6.4996
 Frc consts  --      1.4770                 6.9805                 4.4018
 IR Inten    --      7.8062                63.0295                82.0748

                     25                     26                     27
                      A                      A                      A
 Frequencies --   1104.6103              1152.7119              1155.4509
 Red. masses --      2.6141                 1.3236                 1.0822
 Frc consts  --      1.8792                 1.0362                 0.8512
 IR Inten    --      0.7347                 4.3086                 0.1986

                     28                     29                     30
                      A                      A                      A
 Frequencies --   1171.6448              1214.1337              1256.3946
 Red. masses --      1.5051                 1.4532                 1.2329
 Frc consts  --      1.2174                 1.2621                 1.1466
 IR Inten    --      8.7531                19.5880                29.2487

                     31                     32                     33
                      A                      A                      A
 Frequencies --   1294.8865              1307.2225              1321.5455
 Red. masses --      1.3328                 1.2831                 1.8589
 Frc consts  --      1.3167                 1.2919                 1.9128
 IR Inten    --     16.1614                 0.3487                 6.1108

                     34                     35                     36
                      A                      A                      A
 Frequencies --   1342.3002              1386.5638              1453.7522
 Red. masses --      1.5489                 1.6315                 1.4424
 Frc consts  --      1.6442                 1.8481                 1.7961
 IR Inten    --      3.4545                 1.5710                 2.6088

                     37                     38                     39
                      A                      A                      A
 Frequencies --   1468.0490              1511.4411              1520.2556
 Red. masses --      1.1190                 1.0782                 1.0781
 Frc consts  --      1.4209                 1.4512                 1.4681
 IR Inten    --      9.3857                 1.9113                 7.3478

                     40                     41                     42
                      A                      A                      A
 Frequencies --   1537.6758              2234.2037              2977.0720
 Red. masses --      1.1085                 5.9377                 1.0567
 Frc consts  --      1.5442                17.4629                 5.5181
 IR Inten    --      1.5452                 1.9034                37.5311

                     43                     44                     45
                      A                      A                      A
 Frequencies --   3002.7415              3013.1024              3017.2825
 Red. masses --      1.0566                 1.0609                 1.1048
 Frc consts  --      5.6128                 5.6749                 5.9258
 IR Inten    --    104.5189                 9.9013                39.2145

                     46                     47                     48
                      A                      A                      A
 Frequencies --   3030.8134              3052.2819              3067.5144
 Red. masses --      1.0608                 1.1101                 1.1039
 Frc consts  --      5.7411                 6.0932                 6.1201
 IR Inten    --     14.9291                41.3919                40.1787

                     49                     50                     51
                      A                      A                      A
 Frequencies --   3073.1237              3505.5972              3838.7269
 Red. masses --      1.0997                 1.1617                 1.0665
 Frc consts  --      6.1192                 8.4114                 9.2596
 IR Inten    --      9.0396                65.8815                30.6886

 - Thermochemistry -
 -------------------
 Temperature   298.150 Kelvin.  Pressure   1.00000 Atm.
 Atom     1 has atomic number  8 and mass  15.99491

 Molecular mass:   126.06808 amu.
 Principal axes and moments of inertia in atomic units:
                           1         2         3
     Eigenvalues --   837.650521345.246391802.32074
           X            0.99962   0.02519   0.01117
           Y           -0.02502   0.99957  -0.01513
           Z           -0.01154   0.01485   0.99982
 This molecule is an asymmetric top.
 Rotational symmetry number  1.
 Warning -- assumption of classical behavior for rotation
           may cause significant error
 Rotational temperatures (Kelvin)      0.10340     0.06439     0.04806
 Rotational constants (GHZ):           2.15453     1.34157     1.00134
 Zero-point vibrational energy     411961.2 (Joules/Mol)
                                   98.46108 (Kcal/Mol)
 Warning -- explicit consideration of  13 degrees of freedom as
           vibrations may cause significant error
 Vibrational temperatures:     80.52    88.48   170.05   209.74   320.01
          (Kelvin)            335.97   435.85   500.82   510.13   542.37
                              626.19   783.51   891.37   922.34  1040.18
                             1225.65  1272.09  1326.58  1353.82  1386.80
                             1430.47  1462.23  1488.64  1542.55  1589.29
                             1658.49  1662.43  1685.73  1746.87  1807.67
                             1863.05  1880.80  1901.41  1931.27  1994.95
                             2091.62  2112.19  2174.62  2187.31  2212.37
                             3214.52  4283.34  4320.27  4335.18  4341.19
                             4360.66  4391.55  4413.46  4421.53  5043.77
                             5523.06

 Zero-point correction=                           0.156908 (Hartree/Particle)
 Thermal correction to Energy=                    0.166672
 Thermal correction to Enthalpy=                  0.167616
 Thermal correction to Gibbs Free Energy=         0.121587
 Sum of electronic and zero-point Energies=           -422.961211
 Sum of electronic and thermal Energies=              -422.951446
 Sum of electronic and thermal Enthalpies=            -422.950502
 Sum of electronic and thermal Free Energies=         -422.996531

                     E (Thermal)             CV                S
                      KCal/Mol        Cal/Mol-Kelvin    Cal/Mol-Kelvin
 Total                  104.588             35.161             96.876
 Electronic               0.000              0.000              0.000
 Translational            0.889              2.981             40.409
 Rotational               0.889              2.981             29.098
 Vibrational            102.811             29.200             27.370
 Vibration     1          0.596              1.975              4.595
 Vibration     2          0.597              1.973              4.408
 Vibration     3          0.608              1.934              3.130
 Vibration     4          0.617              1.907              2.727
 Vibration     5          0.648              1.807              1.939
 Vibration     6          0.654              1.790              1.852
 Vibration     7          0.694              1.668              1.401
 Vibration     8          0.726              1.579              1.175
 Vibration     9          0.730              1.566              1.146
 Vibration    10          0.748              1.519              1.051
 Vibration    11          0.796              1.393              0.842
 Vibration    12          0.900              1.152              0.556
 Vibration    13          0.979              0.991              0.417

 Optimization completed.
    -- Stationary point found.
 Normal termination of Gaussian 09 at Tue Jan 28 09:42:21 2020.
