 Gaussian 09, Revision D.01,
 Gaussian 09:  ES64L-G09RevD.01 24-Apr-2013

 -----------------------------
 # b3lyp 6-31G(2df,p) opt Freq
 -----------------------------

 -----
 titel
 -----
 Symbolic Z-matrix:
 Charge =  0 Multiplicity = 1

 SCF Done:  E(RB3LYP) =  -423.162300126     A.U. after   14 cycles
 Optimization completed.
    -- Stationary point found.
 Normal termination of Gaussian 09 at Mon Jan 27 14:01:10 2020.

 ----------------------------------------------------------------------
 #N Geom=AllCheck Guess=TCheck SCRF=Check GenChk RB3LYP/6-31G(2df,p) Fr
 eq
 ----------------------------------------------------------------------

 Structure from the checkpoint file:  "/scratch/puck/g09_a564a526-4095-44db-8225-c8cfb50a721c/Gau-160117.chk"
 -----
 titel
 -----
 Charge =  0 Multiplicity = 1

                         Standard orientation:
 ---------------------------------------------------------------------
 Center     Atomic      Atomic             Coordinates (Angstroms)
 Number     Number       Type             X           Y           Z
 ---------------------------------------------------------------------
      1          6           0        3.106973   -1.041366   -0.068065
      2          6           0        2.123027    0.030375   -0.032718
      3          6           0        1.305594    0.915282   -0.009994
      4          6           0        0.293816    1.972535   -0.010839
      5          8           0       -1.020221    1.540605    0.319550
      6          6           0       -1.564604    0.586795   -0.571944
      7          6           0       -1.374827   -0.877443   -0.150492
      8          6           0       -1.235450   -1.149930    1.331764
      9          8           0       -1.409514   -1.750893   -0.985390
     10          1           0        2.630848   -1.996811   -0.313249
     11          1           0        3.872488   -0.848332   -0.827295
     12          1           0        3.612686   -1.155403    0.896681
     13          1           0        0.539264    2.736820    0.733933
     14          1           0        0.286484    2.466795   -0.995818
     15          1           0       -2.648809    0.765259   -0.593119
     16          1           0       -1.189619    0.705308   -1.596022
     17          1           0       -1.258997   -2.225964    1.508527
     18          1           0       -0.295424   -0.728062    1.697958
     19          1           0       -2.038219   -0.654788    1.888846
 ---------------------------------------------------------------------

 SCF Done:  E(RB3LYP) =  -423.162300126     A.U. after    1 cycles

 The electronic state is 1-A.
 Alpha  occ. eigenvalues --  -19.15509 -19.12357 -10.26474 -10.25869 -10.23526
 Alpha  occ. eigenvalues --  -10.21030 -10.18885 -10.17906 -10.17767  -1.04809
 Alpha  occ. eigenvalues --   -1.03196  -0.79144  -0.76484  -0.73607  -0.70033
 Alpha  occ. eigenvalues --   -0.65745  -0.53922  -0.51799  -0.49801  -0.48312
 Alpha  occ. eigenvalues --   -0.46226  -0.44350  -0.43620  -0.43287  -0.43056
 Alpha  occ. eigenvalues --   -0.41566  -0.39708  -0.38043  -0.34947  -0.33260
 Alpha  occ. eigenvalues --   -0.29657  -0.26731  -0.25843  -0.23187
 Alpha virt. eigenvalues --   -0.00908   0.03120   0.05041   0.09599   0.10715
 Alpha virt. eigenvalues --    0.12819   0.13581   0.14877   0.15626   0.16137
 Alpha virt. eigenvalues --    0.16756   0.18113   0.19380   0.19895   0.20340

 Mulliken charges:
               1
     1  C   -0.500529
     2  C    0.054089
     3  C    0.067748
     4  C   -0.224391
     5  O   -0.227474
     6  C   -0.174718
     7  C    0.370453
     8  C   -0.473100
     9  O   -0.300609
    10  H    0.163428
    11  H    0.154081
    12  H    0.150827
    13  H    0.139103
    14  H    0.123157
    15  H    0.130793
    16  H    0.122393
    17  H    0.132445
    18  H    0.155110
    19  H    0.137193
 Sum of Mulliken charges =   0.00000

 Dipole moment (field-independent basis, Debye):
    X=              1.4937    Y=              1.1636    Z=              0.8774  Tot=              2.0869
 Quadrupole moment (field-independent basis, Debye-Ang):
   XX=            -47.6565   YY=            -54.7293   ZZ=            -54.1035
   XY=             -4.1346   XZ=             -1.4617   YZ=             -4.8376

  Exact polarizability:  86.371 -11.389  85.061   0.679   0.099  66.034
 Approx polarizability: 118.729 -24.193 129.427  -0.292   8.482  99.996

                      1                      2                      3
                      A                      A                      A
 Frequencies --     30.8484                34.5315                53.8346
 Red. masses --      2.1862                 1.4089                 2.5736
 Frc consts  --      0.0012                 0.0010                 0.0044
 IR Inten    --      1.5431                 0.9985                 1.3393

                      4                      5                      6
                      A                      A                      A
 Frequencies --     84.3414               117.7203               138.6389
 Red. masses --      2.9854                 1.1775                 4.0291
 Frc consts  --      0.0125                 0.0096                 0.0456
 IR Inten    --      2.5848                 0.0110                 3.3411

                      7                      8                      9
                      A                      A                      A
 Frequencies --    204.1261               249.3839               316.3163
 Red. masses --      2.8566                 3.8009                 3.3316
 Frc consts  --      0.0701                 0.1393                 0.1964
 IR Inten    --      5.5109                 8.3311                 9.3280

                     10                     11                     12
                      A                      A                      A
 Frequencies --    380.1762               387.7911               429.0129
 Red. masses --      3.8835                 2.5362                 2.6367
 Frc consts  --      0.3307                 0.2247                 0.2859
 IR Inten    --      0.0344                 1.6519                 3.7279

                     13                     14                     15
                      A                      A                      A
 Frequencies --    493.1976               531.6481               558.5470
 Red. masses --      4.7575                 2.8496                 5.4552
 Frc consts  --      0.6818                 0.4745                 1.0027
 IR Inten    --     15.8024                 4.0406                 3.3989

                     16                     17                     18
                      A                      A                      A
 Frequencies --    763.0644               771.4844               859.5069
 Red. masses --      3.4836                 4.1522                 1.5562
 Frc consts  --      1.1951                 1.4561                 0.6774
 IR Inten    --      3.6119                10.7162                 0.4414

                     19                     20                     21
                      A                      A                      A
 Frequencies --    948.7730              1003.4470              1020.6957
 Red. masses --      3.2266                 1.8816                 1.7857
 Frc consts  --      1.7113                 1.1163                 1.0961
 IR Inten    --     26.0474                 2.1731                17.6105

                     22                     23                     24
                      A                      A                      A
 Frequencies --   1050.9870              1056.1219              1101.3389
 Red. masses --      1.4184                 1.4068                 2.1720
 Frc consts  --      0.9231                 0.9245                 1.5522
 IR Inten    --      0.6751                 0.8312                 9.6772

                     25                     26                     27
                      A                      A                      A
 Frequencies --   1119.0420              1160.5220              1237.2284
 Red. masses --      4.9684                 4.7909                 3.3870
 Frc consts  --      3.6657                 3.8016                 3.0547
 IR Inten    --    132.5980                25.4337                46.3250

                     28                     29                     30
                      A                      A                      A
 Frequencies --   1265.1213              1312.2263              1360.6353
 Red. masses --      1.1359                 1.1654                 1.3025
 Frc consts  --      1.0712                 1.1823                 1.4207
 IR Inten    --     31.8768                 4.2963                10.9248

                     31                     32                     33
                      A                      A                      A
 Frequencies --   1378.7528              1394.4543              1413.7403
 Red. masses --      1.3150                 1.2966                 1.2335
 Frc consts  --      1.4728                 1.4855                 1.4526
 IR Inten    --     36.8521                30.7892                 0.6402

                     34                     35                     36
                      A                      A                      A
 Frequencies --   1456.3302              1458.7460              1471.2575
 Red. masses --      1.0656                 1.0657                 1.0513
 Frc consts  --      1.3316                 1.3361                 1.3407
 IR Inten    --      7.7812                 9.9016                 6.0140

                     37                     38                     39
                      A                      A                      A
 Frequencies --   1475.7533              1477.3856              1479.0106
 Red. masses --      1.0397                 1.0398                 1.0839
 Frc consts  --      1.3341                 1.3371                 1.3970
 IR Inten    --      5.2739                 5.9519                 4.3905

                     40                     41                     42
                      A                      A                      A
 Frequencies --   1816.3891              2364.2892              2975.5893
 Red. masses --     10.9377                11.8239                 1.0702
 Frc consts  --     21.2614                38.9414                 5.5829
 IR Inten    --    134.1140                22.2793                45.7222

                     43                     44                     45
                      A                      A                      A
 Frequencies --   3011.5142              3031.0392              3046.1165
 Red. masses --      1.0575                 1.0347                 1.0363
 Frc consts  --      5.6508                 5.6005                 5.6653
 IR Inten    --     25.9397                20.5232                 2.4784

                     46                     47                     48
                      A                      A                      A
 Frequencies --   3064.8475              3070.1236              3093.7041
 Red. masses --      1.1041                 1.0901                 1.1005
 Frc consts  --      6.1104                 6.0539                 6.2058
 IR Inten    --     14.9833                17.3350                 7.9221

                     49                     50                     51
                      A                      A                      A
 Frequencies --   3095.8058              3114.0259              3155.0841
 Red. masses --      1.1002                 1.0960                 1.1043
 Frc consts  --      6.2123                 6.2617                 6.4768
 IR Inten    --      6.2088                 4.2411                 8.8971

 - Thermochemistry -
 -------------------
 Temperature   298.150 Kelvin.  Pressure   1.00000 Atm.
 Atom     1 has atomic number  6 and mass  12.00000

 Molecular mass:   126.06808 amu.
 Principal axes and moments of inertia in atomic units:
                           1         2         3
     Eigenvalues --   963.306981492.140592047.36386
           X            0.99804  -0.06187  -0.00967
           Y            0.06134   0.99698  -0.04765
           Z            0.01258   0.04696   0.99882
 This molecule is an asymmetric top.
 Rotational symmetry number  1.
 Warning -- assumption of classical behavior for rotation
           may cause significant error
 Rotational temperatures (Kelvin)      0.08991     0.05805     0.04231
 Rotational constants (GHZ):           1.87349     1.20950     0.88150
 Zero-point vibrational energy     406038.1 (Joules/Mol)
                                   97.04543 (Kcal/Mol)
 Warning -- explicit consideration of  15 degrees of freedom as
           vibrations may cause significant error
 Vibrational temperatures:     44.38    49.68    77.46   121.35   169.37
          (Kelvin)            199.47   293.69   358.81   455.11   546.99
                              557.94   617.25   709.60   764.92   803.62
                             1097.88  1109.99  1236.64  1365.07  1443.73
                             1468.55  1512.13  1519.52  1584.58  1610.05
                             1669.73  1780.09  1820.23  1888.00  1957.65
                             1983.72  2006.31  2034.05  2095.33  2098.81
                             2116.81  2123.28  2125.63  2127.96  2613.38
                             3401.68  4281.20  4332.89  4360.98  4382.68
                             4409.63  4417.22  4451.14  4454.17  4480.38
                             4539.46

 Zero-point correction=                           0.154652 (Hartree/Particle)
 Thermal correction to Energy=                    0.165760
 Thermal correction to Enthalpy=                  0.166705
 Thermal correction to Gibbs Free Energy=         0.115879
 Sum of electronic and zero-point Energies=           -423.007648
 Sum of electronic and thermal Energies=              -422.996540
 Sum of electronic and thermal Enthalpies=            -422.995595
 Sum of electronic and thermal Free Energies=         -423.046422

                     E (Thermal)             CV                S
                      KCal/Mol        Cal/Mol-Kelvin    Cal/Mol-Kelvin
 Total                  104.016             36.952            106.972
 Electronic               0.000              0.000              0.000
 Translational            0.889              2.981             40.409
 Rotational               0.889              2.981             29.466
 Vibrational            102.239             30.990             37.098
 Vibration     1          0.594              1.984              5.774
 Vibration     2          0.594              1.983              5.550
 Vibration     3          0.596              1.976              4.671
 Vibration     4          0.601              1.960              3.787
 Vibration     5          0.608              1.935              3.137
 Vibration     6          0.614              1.915              2.823
 Vibration     7          0.640              1.834              2.096
 Vibration     8          0.662              1.764              1.735
 Vibration     9          0.703              1.642              1.329
 Vibration    10          0.750              1.512              1.038
 Vibration    11          0.756              1.496              1.009
 Vibration    12          0.790              1.407              0.862
 Vibration    13          0.849              1.265              0.675
 Vibration    14          0.887              1.180              0.584
 Vibration    15          0.914              1.121              0.527

 Normal termination of Gaussian 09 at Mon Jan 27 14:39:46 2020.
