 Gaussian 09, Revision D.01,
 Gaussian 09:  ES64L-G09RevD.01 24-Apr-2013

 -----------------------------
 # b3lyp 6-31G(2df,p) opt Freq
 -----------------------------

 -----
 titel
 -----
 Symbolic Z-matrix:
 Charge =  0 Multiplicity = 1

 SCF Done:  E(RB3LYP) =  -423.153225657     A.U. after   14 cycles
 Optimization completed.
    -- Stationary point found.
 Normal termination of Gaussian 09 at Mon Jan 27 13:54:56 2020.

 ----------------------------------------------------------------------
 #N Geom=AllCheck Guess=TCheck SCRF=Check GenChk RB3LYP/6-31G(2df,p) Fr
 eq
 ----------------------------------------------------------------------

 Structure from the checkpoint file:  "/scratch/puck/g09_37605a50-35ed-471a-b357-a2360d13c329/Gau-137694.chk"
 -----
 titel
 -----
 Charge =  0 Multiplicity = 1

                         Standard orientation:
 ---------------------------------------------------------------------
 Center     Atomic      Atomic             Coordinates (Angstroms)
 Number     Number       Type             X           Y           Z
 ---------------------------------------------------------------------
      1          8           0       -2.973792   -0.719576   -0.057033
      2          6           0       -2.089556   -0.023279    0.369463
      3          6           0       -1.189277    0.853668   -0.479635
      4          6           0        0.288001    0.617924   -0.194928
      5          6           0        1.252610    1.767848   -0.372434
      6          6           0        0.922658    1.268136    1.011641
      7          6           0        0.765190   -0.748396   -0.604476
      8          6           0        0.893377   -1.870229    0.337556
      9          8           0        2.044978   -1.161219   -0.133817
     10          1           0       -1.870844    0.022839    1.461654
     11          1           0       -1.434259    0.681033   -1.533280
     12          1           0       -1.435932    1.898601   -0.246189
     13          1           0        2.237491    1.533616   -0.760250
     14          1           0        0.853130    2.724683   -0.690854
     15          1           0        1.693284    0.709484    1.529678
     16          1           0        0.297369    1.885242    1.647686
     17          1           0        0.579502   -0.994341   -1.652612
     18          1           0        0.655138   -1.715368    1.388378
     19          1           0        0.797618   -2.893463   -0.020529
 ---------------------------------------------------------------------

 SCF Done:  E(RB3LYP) =  -423.153225657     A.U. after    1 cycles

 The electronic state is 1-A.
 Alpha  occ. eigenvalues --  -19.15998 -19.14319 -10.27500 -10.24673 -10.23939
 Alpha  occ. eigenvalues --  -10.21587 -10.20359 -10.19509 -10.19424  -1.07965
 Alpha  occ. eigenvalues --   -1.04995  -0.87853  -0.76095  -0.68953  -0.65494
 Alpha  occ. eigenvalues --   -0.61300  -0.58616  -0.55732  -0.52183  -0.49941
 Alpha  occ. eigenvalues --   -0.48515  -0.46218  -0.44323  -0.43527  -0.40679
 Alpha  occ. eigenvalues --   -0.39775  -0.38415  -0.37418  -0.35495  -0.34104
 Alpha  occ. eigenvalues --   -0.30643  -0.28760  -0.27479  -0.25024
 Alpha virt. eigenvalues --   -0.02605   0.08488   0.09240   0.09387   0.10225
 Alpha virt. eigenvalues --    0.10716   0.12330   0.13904   0.14613   0.15622
 Alpha virt. eigenvalues --    0.17268   0.18241   0.18471   0.20487   0.22610

 Mulliken charges:
               1
     1  O   -0.240289
     2  C    0.169415
     3  C   -0.363249
     4  C    0.309311
     5  C   -0.313488
     6  C   -0.308839
     7  C    0.012292
     8  C   -0.178226
     9  O   -0.236906
    10  H    0.075425
    11  H    0.121654
    12  H    0.120714
    13  H    0.132891
    14  H    0.113211
    15  H    0.135517
    16  H    0.110452
    17  H    0.098796
    18  H    0.116872
    19  H    0.124448
 Sum of Mulliken charges =   0.00000

 Dipole moment (field-independent basis, Debye):
    X=              0.5513    Y=              1.4573    Z=              0.4579  Tot=              1.6240
 Quadrupole moment (field-independent basis, Debye-Ang):
   XX=            -66.9027   YY=            -50.4564   ZZ=            -50.9327
   XY=             -3.3560   XZ=             -1.0686   YZ=             -0.5921

  Exact polarizability:  76.066   5.263  80.227   1.546  -1.659  69.677
 Approx polarizability: 111.891  11.013 113.101   4.751  -1.415 108.163

                      1                      2                      3
                      A                      A                      A
 Frequencies --     48.5141                77.5782               102.7953
 Red. masses --      7.2162                 3.3129                 2.9899
 Frc consts  --      0.0100                 0.0117                 0.0186
 IR Inten    --      5.5189                 6.2404                 1.4106

                      4                      5                      6
                      A                      A                      A
 Frequencies --    186.4815               236.6198               248.7986
 Red. masses --      2.8697                 3.7078                 2.1671
 Frc consts  --      0.0588                 0.1223                 0.0790
 IR Inten    --      0.5865                 3.4013                 0.6667

                      7                      8                      9
                      A                      A                      A
 Frequencies --    300.3462               372.4227               440.2933
 Red. masses --      2.9657                 2.4686                 3.7681
 Frc consts  --      0.1576                 0.2017                 0.4304
 IR Inten    --      0.6866                 4.5199                 6.0882

                     10                     11                     12
                      A                      A                      A
 Frequencies --    519.3875               547.2971               679.2137
 Red. masses --      2.9648                 3.1600                 2.3488
 Frc consts  --      0.4712                 0.5577                 0.6384
 IR Inten    --      8.4633                11.2911                 2.3471

                     13                     14                     15
                      A                      A                      A
 Frequencies --    785.8465               812.3831               849.9021
 Red. masses --      1.1709                 1.3857                 3.0109
 Frc consts  --      0.4260                 0.5388                 1.2814
 IR Inten    --      3.5110                 2.4014                 5.2593

                     16                     17                     18
                      A                      A                      A
 Frequencies --    882.0067               915.3379               932.4109
 Red. masses --      3.3222                 3.9623                 1.3736
 Frc consts  --      1.5227                 1.9560                 0.7036
 IR Inten    --     17.3733                 8.4599                 2.2616

                     19                     20                     21
                      A                      A                      A
 Frequencies --    958.8586               979.0136              1038.4659
 Red. masses --      2.4081                 1.9855                 1.5984
 Frc consts  --      1.3045                 1.1212                 1.0156
 IR Inten    --     16.7509                11.4336                 0.7691

                     22                     23                     24
                      A                      A                      A
 Frequencies --   1056.8602              1067.5559              1086.3010
 Red. masses --      1.6708                 1.5317                 2.1403
 Frc consts  --      1.0995                 1.0285                 1.4881
 IR Inten    --     11.1113                 6.5472                 9.5577

                     25                     26                     27
                      A                      A                      A
 Frequencies --   1099.8492              1103.6178              1156.8360
 Red. masses --      1.7399                 1.2305                 1.3890
 Frc consts  --      1.2401                 0.8830                 1.0952
 IR Inten    --     12.3136                 2.6316                 0.6980

                     28                     29                     30
                      A                      A                      A
 Frequencies --   1174.4077              1193.0968              1198.8927
 Red. masses --      1.3642                 1.3299                 1.3320
 Frc consts  --      1.1086                 1.1153                 1.1280
 IR Inten    --      0.9899                 6.9795                 3.4212

                     31                     32                     33
                      A                      A                      A
 Frequencies --   1270.0087              1288.3294              1312.5839
 Red. masses --      1.6159                 2.0278                 1.8850
 Frc consts  --      1.5356                 1.9830                 1.9135
 IR Inten    --      3.0512                 6.4979                 1.8620

                     34                     35                     36
                      A                      A                      A
 Frequencies --   1364.3879              1425.0556              1435.5668
 Red. masses --      1.8743                 1.1948                 1.9307
 Frc consts  --      2.0557                 1.4296                 2.3443
 IR Inten    --      1.1097                 5.2839                 7.0040

                     37                     38                     39
                      A                      A                      A
 Frequencies --   1453.8331              1460.7719              1496.5297
 Red. masses --      1.1401                 1.0972                 1.3712
 Frc consts  --      1.4197                 1.3795                 1.8094
 IR Inten    --      9.0000                 4.2263                 3.5503

                     40                     41                     42
                      A                      A                      A
 Frequencies --   1525.1718              1834.9629              2863.6671
 Red. masses --      1.3426                10.1619                 1.0819
 Frc consts  --      1.8401                20.1595                 5.2272
 IR Inten    --      3.4749               166.8521                85.2996

                     43                     44                     45
                      A                      A                      A
 Frequencies --   3019.2179              3080.6903              3083.9478
 Red. masses --      1.0616                 1.0934                 1.0883
 Frc consts  --      5.7016                 6.1138                 6.0986
 IR Inten    --      9.9105                 0.6051                42.0855

                     46                     47                     48
                      A                      A                      A
 Frequencies --   3091.8506              3134.8760              3138.7949
 Red. masses --      1.0543                 1.0516                 1.0574
 Frc consts  --      5.9382                 6.0889                 6.1380
 IR Inten    --     19.0374                13.2169                 8.5030

                     49                     50                     51
                      A                      A                      A
 Frequencies --   3181.2401              3219.6867              3232.8365
 Red. masses --      1.1199                 1.1176                 1.1157
 Frc consts  --      6.6779                 6.8257                 6.8699
 IR Inten    --     20.9815                 0.5878                 8.0385

 - Thermochemistry -
 -------------------
 Temperature   298.150 Kelvin.  Pressure   1.00000 Atm.
 Atom     1 has atomic number  8 and mass  15.99491

 Molecular mass:   126.06808 amu.
 Principal axes and moments of inertia in atomic units:
                           1         2         3
     Eigenvalues --   783.215111365.811871861.12830
           X            1.00000  -0.00098   0.00186
           Y            0.00099   0.99997  -0.00700
           Z           -0.00185   0.00701   0.99997
 This molecule is an asymmetric top.
 Rotational symmetry number  1.
 Warning -- assumption of classical behavior for rotation
           may cause significant error
 Rotational temperatures (Kelvin)      0.11059     0.06342     0.04654
 Rotational constants (GHZ):           2.30427     1.32137     0.96970
 Zero-point vibrational energy     412504.7 (Joules/Mol)
                                   98.59099 (Kcal/Mol)
 Warning -- explicit consideration of  11 degrees of freedom as
           vibrations may cause significant error
 Vibrational temperatures:     69.80   111.62   147.90   268.30   340.44
          (Kelvin)            357.97   432.13   535.83   633.48   747.28
                              787.44   977.24  1130.66  1168.84  1222.82
                             1269.01  1316.97  1341.53  1379.58  1408.58
                             1494.12  1520.58  1535.97  1562.94  1582.44
                             1587.86  1664.43  1689.71  1716.60  1724.94
                             1827.26  1853.62  1888.51  1963.05  2050.33
                             2065.46  2091.74  2101.72  2153.17  2194.38
                             2640.10  4120.17  4343.98  4432.42  4437.11
                             4448.48  4510.38  4516.02  4577.09  4632.41
                             4651.32

 Zero-point correction=                           0.157115 (Hartree/Particle)
 Thermal correction to Energy=                    0.166200
 Thermal correction to Enthalpy=                  0.167144
 Thermal correction to Gibbs Free Energy=         0.122321
 Sum of electronic and zero-point Energies=           -422.996111
 Sum of electronic and thermal Energies=              -422.987025
 Sum of electronic and thermal Enthalpies=            -422.986081
 Sum of electronic and thermal Free Energies=         -423.030904

                     E (Thermal)             CV                S
                      KCal/Mol        Cal/Mol-Kelvin    Cal/Mol-Kelvin
 Total                  104.292             33.026             94.338
 Electronic               0.000              0.000              0.000
 Translational            0.889              2.981             40.409
 Rotational               0.889              2.981             29.078
 Vibrational            102.515             27.065             24.852
 Vibration     1          0.595              1.978              4.877
 Vibration     2          0.599              1.964              3.951
 Vibration     3          0.605              1.947              3.401
 Vibration     4          0.632              1.858              2.263
 Vibration     5          0.656              1.785              1.828
 Vibration     6          0.662              1.765              1.739
 Vibration     7          0.693              1.673              1.415
 Vibration     8          0.744              1.529              1.070
 Vibration     9          0.800              1.382              0.826
 Vibration    10          0.874              1.207              0.611
 Vibration    11          0.903              1.146              0.550

 Optimization completed.
    -- Stationary point found.
 Normal termination of Gaussian 09 at Mon Jan 27 14:51:45 2020.
