 Gaussian 09, Revision D.01,
 Gaussian 09:  ES64L-G09RevD.01 24-Apr-2013

 -----------------------------
 # b3lyp 6-31G(2df,p) opt Freq
 -----------------------------

 -----
 titel
 -----
 Symbolic Z-matrix:
 Charge =  0 Multiplicity = 1

 SCF Done:  E(RB3LYP) =  -423.202949085     A.U. after   14 cycles
 Optimization completed.
    -- Stationary point found.
 Normal termination of Gaussian 09 at Tue Jan 28 00:05:54 2020.

 ----------------------------------------------------------------------
 #N Geom=AllCheck Guess=TCheck SCRF=Check GenChk RB3LYP/6-31G(2df,p) Fr
 eq
 ----------------------------------------------------------------------

 Structure from the checkpoint file:  "/scratch/puck/g09_2e79b700-095a-4a63-bac9-40e915db82eb/Gau-21132.chk"
 -----
 titel
 -----
 Charge =  0 Multiplicity = 1

                         Standard orientation:
 ---------------------------------------------------------------------
 Center     Atomic      Atomic             Coordinates (Angstroms)
 Number     Number       Type             X           Y           Z
 ---------------------------------------------------------------------
      1          6           0       -2.350751   -1.224583   -0.046376
      2          6           0       -1.002431   -0.574781   -0.334493
      3          6           0        0.195779   -0.812529    0.646188
      4          6           0        1.488599   -1.297679   -0.007607
      5          8           0        1.948174   -0.189235   -0.773994
      6          6           0        1.735633    0.971678    0.016635
      7          6           0        0.411293    0.738367    0.778475
      8          6           0       -0.875793    0.927650   -0.036704
      9          8           0       -1.575149    1.874032   -0.261532
     10          1           0       -2.660233   -1.052352    0.989892
     11          1           0       -3.122620   -0.805254   -0.698190
     12          1           0       -2.312042   -2.305751   -0.212791
     13          1           0       -0.694285   -0.767833   -1.370587
     14          1           0       -0.071783   -1.345427    1.559419
     15          1           0        2.231218   -1.579787    0.757051
     16          1           0        1.355574   -2.140385   -0.692012
     17          1           0        2.554262    1.105306    0.741120
     18          1           0        1.715467    1.837083   -0.650644
     19          1           0        0.406259    1.207282    1.764245
 ---------------------------------------------------------------------

 SCF Done:  E(RB3LYP) =  -423.202949085     A.U. after    1 cycles

 The electronic state is 1-A.
 Alpha  occ. eigenvalues --  -19.14753 -19.13628 -10.26515 -10.23957 -10.23479
 Alpha  occ. eigenvalues --  -10.20096 -10.19803 -10.19672 -10.18660  -1.04808
 Alpha  occ. eigenvalues --   -1.04194  -0.85284  -0.75615  -0.73650  -0.66354
 Alpha  occ. eigenvalues --   -0.61345  -0.58539  -0.52001  -0.50601  -0.49757
 Alpha  occ. eigenvalues --   -0.46311  -0.44922  -0.43652  -0.41889  -0.41144
 Alpha  occ. eigenvalues --   -0.39538  -0.38338  -0.37462  -0.34026  -0.33992
 Alpha  occ. eigenvalues --   -0.32463  -0.31527  -0.26917  -0.23513
 Alpha virt. eigenvalues --   -0.02240   0.08470   0.10685   0.11506   0.11653
 Alpha virt. eigenvalues --    0.13224   0.13772   0.14291   0.15425   0.16013
 Alpha virt. eigenvalues --    0.16947   0.17192   0.19077   0.19393   0.22185

 Mulliken charges:
               1
     1  C   -0.413151
     2  C   -0.101789
     3  C   -0.055161
     4  C   -0.104674
     5  O   -0.245188
     6  C   -0.100714
     7  C   -0.177626
     8  C    0.405363
     9  O   -0.307280
    10  H    0.119926
    11  H    0.138529
    12  H    0.119887
    13  H    0.111615
    14  H    0.079586
    15  H    0.091608
    16  H    0.113642
    17  H    0.098405
    18  H    0.127981
    19  H    0.099040
 Sum of Mulliken charges =   0.00000

 Dipole moment (field-independent basis, Debye):
    X=              0.8176    Y=             -2.1729    Z=              1.6144  Tot=              2.8278
 Quadrupole moment (field-independent basis, Debye-Ang):
   XX=            -57.0212   YY=            -55.0221   ZZ=            -52.4419
   XY=              5.5504   XZ=              2.1000   YZ=              0.9832

  Exact polarizability:  83.491   0.833  79.766   4.220   0.489  62.969
 Approx polarizability: 111.044  -5.565 118.537   5.112  -0.656 100.227

                      1                      2                      3
                      A                      A                      A
 Frequencies --     55.5354               162.0630               195.0091
 Red. masses --      3.9850                 5.1027                 1.1736
 Frc consts  --      0.0072                 0.0790                 0.0263
 IR Inten    --      3.0751                 1.7005                 0.4724

                      4                      5                      6
                      A                      A                      A
 Frequencies --    210.0510               238.4020               296.1600
 Red. masses --      2.3521                 2.5294                 2.7335
 Frc consts  --      0.0611                 0.0847                 0.1413
 IR Inten    --      2.6466                 5.0312                 3.5321

                      7                      8                      9
                      A                      A                      A
 Frequencies --    352.3066               435.6988               575.4148
 Red. masses --      2.5050                 3.7621                 4.1018
 Frc consts  --      0.1832                 0.4208                 0.8002
 IR Inten    --      0.4865                 2.8413                 0.8139

                     10                     11                     12
                      A                      A                      A
 Frequencies --    693.3027               725.5001               744.8050
 Red. masses --      4.5723                 3.9880                 3.1288
 Frc consts  --      1.2949                 1.2368                 1.0226
 IR Inten    --      6.1739                 2.7366                 0.9978

                     13                     14                     15
                      A                      A                      A
 Frequencies --    764.3268               847.2101               852.7310
 Red. masses --      3.5501                 2.3808                 2.2423
 Frc consts  --      1.2219                 1.0068                 0.9607
 IR Inten    --      0.1698                 2.6067                 8.2935

                     16                     17                     18
                      A                      A                      A
 Frequencies --    923.1014               938.7331               972.7621
 Red. masses --      2.5223                 3.3240                 1.4212
 Frc consts  --      1.2663                 1.7258                 0.7924
 IR Inten    --      5.3489                26.0697                 6.2273

                     19                     20                     21
                      A                      A                      A
 Frequencies --    999.7212              1006.5245              1038.9110
 Red. masses --      2.0105                 1.3264                 1.9972
 Frc consts  --      1.1839                 0.7917                 1.2700
 IR Inten    --      4.1093                 5.2814                26.2837

                     22                     23                     24
                      A                      A                      A
 Frequencies --   1099.7812              1114.6730              1125.0244
 Red. masses --      5.4898                 2.1553                 2.1593
 Frc consts  --      3.9122                 1.5778                 1.6102
 IR Inten    --     73.9958                26.4738                 4.5968

                     25                     26                     27
                      A                      A                      A
 Frequencies --   1135.6586              1172.2688              1200.5002
 Red. masses --      2.4967                 1.8462                 1.1646
 Frc consts  --      1.8972                 1.4948                 0.9889
 IR Inten    --      6.4807                23.1625                 6.7978

                     28                     29                     30
                      A                      A                      A
 Frequencies --   1229.9797              1241.0476              1261.7790
 Red. masses --      1.5729                 1.4348                 1.5327
 Frc consts  --      1.4020                 1.3020                 1.4377
 IR Inten    --      1.1167                 2.9145                18.5226

                     31                     32                     33
                      A                      A                      A
 Frequencies --   1282.0769              1285.1774              1346.3453
 Red. masses --      1.3180                 1.4692                 1.7571
 Frc consts  --      1.2765                 1.4297                 1.8765
 IR Inten    --      0.2944                 1.5780                 1.9677

                     34                     35                     36
                      A                      A                      A
 Frequencies --   1350.6931              1398.1555              1407.4734
 Red. masses --      1.3185                 1.3442                 1.2148
 Frc consts  --      1.4172                 1.5482                 1.4179
 IR Inten    --      4.1278                 8.2744                 2.5733

                     37                     38                     39
                      A                      A                      A
 Frequencies --   1494.8957              1495.6469              1503.6467
 Red. masses --      1.0456                 1.0487                 1.0825
 Frc consts  --      1.3767                 1.3821                 1.4420
 IR Inten    --      7.1304                 2.4022                 0.1204

                     40                     41                     42
                      A                      A                      A
 Frequencies --   1517.0923              1882.5293              2968.7291
 Red. masses --      1.1008                12.5783                 1.0705
 Frc consts  --      1.4927                26.2636                 5.5587
 IR Inten    --      0.7607               251.4000                58.6275

                     43                     44                     45
                      A                      A                      A
 Frequencies --   2980.5242              3029.0621              3035.2735
 Red. masses --      1.0711                 1.0822                 1.0349
 Frc consts  --      5.6062                 5.8503                 5.6177
 IR Inten    --     86.3322                 4.1963                24.8396

                     46                     47                     48
                      A                      A                      A
 Frequencies --   3087.7012              3096.9899              3099.2073
 Red. masses --      1.0924                 1.0891                 1.0917
 Frc consts  --      6.1361                 6.1545                 6.1782
 IR Inten    --     27.3128                19.9983                 8.1378

                     49                     50                     51
                      A                      A                      A
 Frequencies --   3102.3907              3110.5582              3114.5199
 Red. masses --      1.1016                 1.0896                 1.1001
 Frc consts  --      6.2472                 6.2116                 6.2873
 IR Inten    --     19.4729                15.2653                22.6925

 - Thermochemistry -
 -------------------
 Temperature   298.150 Kelvin.  Pressure   1.00000 Atm.
 Atom     1 has atomic number  6 and mass  12.00000

 Molecular mass:   126.06808 amu.
 Principal axes and moments of inertia in atomic units:
                           1         2         3
     Eigenvalues --   685.438451174.459221607.70425
           X            0.99655   0.08213   0.01235
           Y           -0.08224   0.99658   0.00846
           Z           -0.01161  -0.00945   0.99989
 This molecule is an asymmetric top.
 Rotational symmetry number  1.
 Warning -- assumption of classical behavior for rotation
           may cause significant error
 Rotational temperatures (Kelvin)      0.12636     0.07375     0.05387
 Rotational constants (GHZ):           2.63297     1.53666     1.12256
 Zero-point vibrational energy     419875.3 (Joules/Mol)
                                  100.35261 (Kcal/Mol)
 Warning -- explicit consideration of   9 degrees of freedom as
           vibrations may cause significant error
 Vibrational temperatures:     79.90   233.17   280.57   302.22   343.01
          (Kelvin)            426.11   506.89   626.87   827.89   997.51
                             1043.83  1071.61  1099.69  1218.94  1226.89
                             1328.14  1350.63  1399.59  1438.37  1448.16
                             1494.76  1582.34  1603.76  1618.66  1633.96
                             1686.63  1727.25  1769.66  1785.59  1815.42
                             1844.62  1849.08  1937.09  1943.34  2011.63
                             2025.04  2150.82  2151.90  2163.41  2182.75
                             2708.54  4271.33  4288.30  4358.14  4367.08
                             4442.51  4455.87  4459.06  4463.64  4475.39
                             4481.09

 Zero-point correction=                           0.159922 (Hartree/Particle)
 Thermal correction to Energy=                    0.168074
 Thermal correction to Enthalpy=                  0.169018
 Thermal correction to Gibbs Free Energy=         0.126820
 Sum of electronic and zero-point Energies=           -423.043027
 Sum of electronic and thermal Energies=              -423.034875
 Sum of electronic and thermal Enthalpies=            -423.033931
 Sum of electronic and thermal Free Energies=         -423.076129

                     E (Thermal)             CV                S
                      KCal/Mol        Cal/Mol-Kelvin    Cal/Mol-Kelvin
 Total                  105.468             30.754             88.814
 Electronic               0.000              0.000              0.000
 Translational            0.889              2.981             40.409
 Rotational               0.889              2.981             28.650
 Vibrational            103.691             24.793             19.755
 Vibration     1          0.596              1.975              4.610
 Vibration     2          0.622              1.889              2.526
 Vibration     3          0.636              1.847              2.180
 Vibration     4          0.642              1.825              2.043
 Vibration     5          0.656              1.782              1.815
 Vibration     6          0.690              1.681              1.439
 Vibration     7          0.729              1.571              1.156
 Vibration     8          0.796              1.392              0.840
 Vibration     9          0.932              1.084              0.494

 Optimization completed.
    -- Stationary point found.
 Normal termination of Gaussian 09 at Tue Jan 28 00:55:20 2020.
