 Gaussian 09, Revision D.01,
 Gaussian 09:  ES64L-G09RevD.01 24-Apr-2013

 -----------------------------
 # b3lyp 6-31G(2df,p) opt Freq
 -----------------------------

 -----
 titel
 -----
 Symbolic Z-matrix:
 Charge =  0 Multiplicity = 1

 SCF Done:  E(RB3LYP) =  -423.168582233     A.U. after   14 cycles
 Optimization completed.
    -- Stationary point found.
 Normal termination of Gaussian 09 at Tue Jan 28 00:02:14 2020.

 ----------------------------------------------------------------------
 #N Geom=AllCheck Guess=TCheck SCRF=Check GenChk RB3LYP/6-31G(2df,p) Fr
 eq
 ----------------------------------------------------------------------

 Structure from the checkpoint file:  "/scratch/puck/g09_011e5e83-b11e-4196-8ca2-de2215cb7b0e/Gau-56469.chk"
 -----
 titel
 -----
 Charge =  0 Multiplicity = 1

                         Standard orientation:
 ---------------------------------------------------------------------
 Center     Atomic      Atomic             Coordinates (Angstroms)
 Number     Number       Type             X           Y           Z
 ---------------------------------------------------------------------
      1          6           0        3.021190   -0.670338   -0.284451
      2          6           0        1.602410   -0.288286    0.020119
      3          6           0        0.615085   -1.164363    0.217014
      4          6           0       -0.746615   -0.704970    0.577697
      5          6           0       -1.736360   -0.244664   -0.470519
      6          8           0       -3.073288   -0.550836   -0.216854
      7          6           0       -1.021220    0.767325    0.391186
      8          8           0       -0.033683    1.536799   -0.228784
      9          6           0        1.301879    1.193558    0.121532
     10          1           0        3.714558   -0.242935    0.451945
     11          1           0        3.152404   -1.755692   -0.278702
     12          1           0        3.336686   -0.290414   -1.264932
     13          1           0        0.794940   -2.233760    0.135539
     14          1           0       -1.210816   -1.172455    1.441986
     15          1           0       -1.410442   -0.292732   -1.509499
     16          1           0       -3.613027    0.169376   -0.561123
     17          1           0       -1.603043    1.291244    1.148435
     18          1           0        1.936009    1.757091   -0.571723
     19          1           0        1.540284    1.553001    1.137706
 ---------------------------------------------------------------------

 SCF Done:  E(RB3LYP) =  -423.168582233     A.U. after    1 cycles

 The electronic state is 1-A.
 Alpha  occ. eigenvalues --  -19.14344 -19.14161 -10.23088 -10.23026 -10.22750
 Alpha  occ. eigenvalues --  -10.18913 -10.18800 -10.18436 -10.17878  -1.04073
 Alpha  occ. eigenvalues --   -1.02467  -0.84386  -0.80471  -0.70064  -0.67909
 Alpha  occ. eigenvalues --   -0.60248  -0.59229  -0.53218  -0.50687  -0.50049
 Alpha  occ. eigenvalues --   -0.47040  -0.44091  -0.43860  -0.41238  -0.39950
 Alpha  occ. eigenvalues --   -0.39454  -0.38676  -0.36204  -0.35251  -0.31447
 Alpha  occ. eigenvalues --   -0.30579  -0.26366  -0.24224  -0.22454
 Alpha virt. eigenvalues --    0.01835   0.08279   0.09808   0.10786   0.12566
 Alpha virt. eigenvalues --    0.13570   0.14848   0.15365   0.16807   0.17189
 Alpha virt. eigenvalues --    0.17444   0.17972   0.19828   0.22629   0.23830

 Mulliken charges:
               1
     1  C   -0.480767
     2  C    0.293304
     3  C   -0.186922
     4  C   -0.118596
     5  C    0.049841
     6  O   -0.422068
     7  C    0.025446
     8  O   -0.257122
     9  C   -0.156695
    10  H    0.125702
    11  H    0.124707
    12  H    0.126550
    13  H    0.085971
    14  H    0.105468
    15  H    0.094777
    16  H    0.288945
    17  H    0.089297
    18  H    0.110708
    19  H    0.101455
 Sum of Mulliken charges =   0.00000

 Dipole moment (field-independent basis, Debye):
    X=              0.8541    Y=              0.3320    Z=              0.0961  Tot=              0.9213
 Quadrupole moment (field-independent basis, Debye-Ang):
   XX=            -48.2684   YY=            -55.0709   ZZ=            -52.3506
   XY=             -3.7381   XZ=              1.0972   YZ=              0.4942

  Exact polarizability: 104.265   3.829  73.428  -2.573  -0.226  59.027
 Approx polarizability: 137.591  13.565 114.809  -3.527  -3.708  91.498

                      1                      2                      3
                      A                      A                      A
 Frequencies --    108.4555               145.8408               189.8543
 Red. masses --      3.3610                 2.3108                 1.1515
 Frc consts  --      0.0233                 0.0290                 0.0245
 IR Inten    --      1.5305                 0.2667                 0.7684

                      4                      5                      6
                      A                      A                      A
 Frequencies --    236.8865               302.4659               306.2633
 Red. masses --      2.8076                 2.3025                 1.6764
 Frc consts  --      0.0928                 0.1241                 0.0926
 IR Inten    --     16.0048                 6.8146                65.7823

                      7                      8                      9
                      A                      A                      A
 Frequencies --    345.6179               353.8375               413.7283
 Red. masses --      2.6834                 2.3222                 4.7092
 Frc consts  --      0.1889                 0.1713                 0.4749
 IR Inten    --      1.9034                38.5463                 7.4246

                     10                     11                     12
                      A                      A                      A
 Frequencies --    443.8548               528.2799               540.2370
 Red. masses --      2.8406                 3.8069                 4.8710
 Frc consts  --      0.3297                 0.6260                 0.8376
 IR Inten    --      0.7623                 2.6757                 4.6255

                     13                     14                     15
                      A                      A                      A
 Frequencies --    744.1123               835.4476               848.1160
 Red. masses --      4.3744                 1.6591                 2.5228
 Frc consts  --      1.4271                 0.6823                 1.0692
 IR Inten    --      3.0811                 9.0380                 0.5911

                     16                     17                     18
                      A                      A                      A
 Frequencies --    890.4456               905.8072               939.6332
 Red. masses --      2.3793                 2.9009                 2.3140
 Frc consts  --      1.1115                 1.4023                 1.2037
 IR Inten    --     19.4337                 9.6138                 2.1389

                     19                     20                     21
                      A                      A                      A
 Frequencies --    966.9852              1004.9650              1034.2324
 Red. masses --      2.3269                 1.6027                 1.8192
 Frc consts  --      1.2820                 0.9537                 1.1465
 IR Inten    --      1.7127                17.9130                 2.6909

                     22                     23                     24
                      A                      A                      A
 Frequencies --   1061.9639              1081.5729              1089.1482
 Red. masses --      1.3224                 1.6680                 1.5524
 Frc consts  --      0.8787                 1.1497                 1.0850
 IR Inten    --      7.2354                 2.8499                 2.0624

                     25                     26                     27
                      A                      A                      A
 Frequencies --   1105.0573              1140.4308              1174.2947
 Red. masses --      1.8035                 3.0368                 2.8352
 Frc consts  --      1.2976                 2.3270                 2.3035
 IR Inten    --      8.9548               185.6391                14.5123

                     28                     29                     30
                      A                      A                      A
 Frequencies --   1198.0126              1216.1404              1272.4259
 Red. masses --      2.5681                 2.0951                 1.1238
 Frc consts  --      2.1716                 1.8257                 1.0720
 IR Inten    --      6.5000                16.2087                 5.5830

                     31                     32                     33
                      A                      A                      A
 Frequencies --   1282.1497              1315.3837              1339.5495
 Red. masses --      1.2111                 1.2231                 1.4183
 Frc consts  --      1.1730                 1.2468                 1.4995
 IR Inten    --     41.9043                 1.5838                 3.8283

                     34                     35                     36
                      A                      A                      A
 Frequencies --   1366.1231              1400.3493              1412.1793
 Red. masses --      1.9355                 1.5416                 1.2559
 Frc consts  --      2.1282                 1.7811                 1.4756
 IR Inten    --     15.3255                 1.3448                 1.0287

                     37                     38                     39
                      A                      A                      A
 Frequencies --   1458.7972              1477.7546              1489.3034
 Red. masses --      2.3762                 1.0495                 1.0712
 Frc consts  --      2.9794                 1.3503                 1.3999
 IR Inten    --     15.2406                 5.6590                 2.8906

                     40                     41                     42
                      A                      A                      A
 Frequencies --   1493.4563              1736.0086              2955.0119
 Red. masses --      1.1004                 7.1976                 1.0715
 Frc consts  --      1.4460                12.7802                 5.5125
 IR Inten    --      5.7990                 0.2686                56.6235

                     43                     44                     45
                      A                      A                      A
 Frequencies --   3012.5799              3057.4078              3061.8258
 Red. masses --      1.0385                 1.0981                 1.0895
 Frc consts  --      5.5531                 6.0477                 6.0177
 IR Inten    --     35.2971                16.1492                39.7774

                     46                     47                     48
                      A                      A                      A
 Frequencies --   3107.1980              3110.9177              3111.3340
 Red. masses --      1.0901                 1.0919                 1.0931
 Frc consts  --      6.2011                 6.2259                 6.2345
 IR Inten    --      7.0358                41.4383                22.0252

                     49                     50                     51
                      A                      A                      A
 Frequencies --   3145.3126              3153.8315              3796.1260
 Red. masses --      1.0866                 1.0906                 1.0660
 Frc consts  --      6.3336                 6.3915                 9.0512
 IR Inten    --     18.8862                17.7344                22.3904

 - Thermochemistry -
 -------------------
 Temperature   298.150 Kelvin.  Pressure   1.00000 Atm.
 Atom     1 has atomic number  6 and mass  12.00000

 Molecular mass:   126.06808 amu.
 Principal axes and moments of inertia in atomic units:
                           1         2         3
     Eigenvalues --   480.121031621.120981948.66822
           X            0.99990  -0.01323  -0.00519
           Y            0.01331   0.99980   0.01476
           Z            0.00499  -0.01483   0.99988
 This molecule is an asymmetric top.
 Rotational symmetry number  1.
 Warning -- assumption of classical behavior for rotation
           may cause significant error
 Rotational temperatures (Kelvin)      0.18040     0.05343     0.04445
 Rotational constants (GHZ):           3.75893     1.11327     0.92614
 Zero-point vibrational energy     416938.7 (Joules/Mol)
                                   99.65075 (Kcal/Mol)
 Warning -- explicit consideration of  12 degrees of freedom as
           vibrations may cause significant error
 Vibrational temperatures:    156.04   209.83   273.16   340.83   435.18
          (Kelvin)            440.64   497.27   509.09   595.26   638.61
                              760.08   777.28  1070.61  1202.02  1220.25
                             1281.15  1303.25  1351.92  1391.27  1445.92
                             1488.03  1527.93  1556.14  1567.04  1589.93
                             1640.82  1689.55  1723.67  1749.75  1830.73
                             1844.73  1892.54  1927.31  1965.54  2014.79
                             2031.81  2098.88  2126.16  2142.77  2148.75
                             2497.73  4251.60  4334.43  4398.92  4405.28
                             4470.56  4475.91  4476.51  4525.40  4537.65
                             5461.77

 Zero-point correction=                           0.158804 (Hartree/Particle)
 Thermal correction to Energy=                    0.167371
 Thermal correction to Enthalpy=                  0.168315
 Thermal correction to Gibbs Free Energy=         0.125907
 Sum of electronic and zero-point Energies=           -423.009779
 Sum of electronic and thermal Energies=              -423.001211
 Sum of electronic and thermal Enthalpies=            -423.000267
 Sum of electronic and thermal Free Energies=         -423.042675

                     E (Thermal)             CV                S
                      KCal/Mol        Cal/Mol-Kelvin    Cal/Mol-Kelvin
 Total                  105.027             32.909             89.255
 Electronic               0.000              0.000              0.000
 Translational            0.889              2.981             40.409
 Rotational               0.889              2.981             28.807
 Vibrational            103.249             26.947             20.038
 Vibration     1          0.606              1.942              3.296
 Vibration     2          0.617              1.907              2.726
 Vibration     3          0.633              1.854              2.229
 Vibration     4          0.656              1.784              1.826
 Vibration     5          0.694              1.669              1.403
 Vibration     6          0.697              1.662              1.382
 Vibration     7          0.724              1.584              1.186
 Vibration     8          0.730              1.567              1.149
 Vibration     9          0.777              1.440              0.914
 Vibration    10          0.803              1.374              0.815
 Vibration    11          0.883              1.187              0.591
 Vibration    12          0.895              1.161              0.565

 Normal termination of Gaussian 09 at Tue Jan 28 01:19:38 2020.
