 Gaussian 09, Revision D.01,
 Gaussian 09:  ES64L-G09RevD.01 24-Apr-2013

 -----------------------------
 # b3lyp 6-31G(2df,p) opt Freq
 -----------------------------

 -----
 titel
 -----
 Symbolic Z-matrix:
 Charge =  0 Multiplicity = 1

 SCF Done:  E(RB3LYP) =  -423.099906412     A.U. after   12 cycles
 Optimization completed.
    -- Stationary point found.
 Normal termination of Gaussian 09 at Tue Jan 28 14:01:44 2020.

 ----------------------------------------------------------------------
 #N Geom=AllCheck Guess=TCheck SCRF=Check GenChk RB3LYP/6-31G(2df,p) Fr
 eq
 ----------------------------------------------------------------------

 Structure from the checkpoint file:  "/scratch/puck/g09_fcf21e97-1de5-489e-a1e9-1c640639d880/Gau-28486.chk"
 -----
 titel
 -----
 Charge =  0 Multiplicity = 1

                         Standard orientation:
 ---------------------------------------------------------------------
 Center     Atomic      Atomic             Coordinates (Angstroms)
 Number     Number       Type             X           Y           Z
 ---------------------------------------------------------------------
      1          6           0       -3.337916   -0.021738    0.308362
      2          8           0       -2.234970   -0.620366   -0.348692
      3          6           0       -1.015359   -0.277343    0.221090
      4          6           0       -0.351016    0.969719   -0.301943
      5          8           0        0.849125    1.245525    0.428106
      6          6           0        1.406256   -0.005290   -0.030403
      7          6           0        2.378450   -0.783517    0.788325
      8          6           0        2.817829   -0.091117   -0.499010
      9          6           0        0.139587   -0.392939   -0.746815
     10          1           0       -3.280928    1.075275    0.282406
     11          1           0       -4.238445   -0.348761   -0.216046
     12          1           0       -3.400157   -0.341039    1.358990
     13          1           0       -0.887018   -0.545976    1.272998
     14          1           0       -0.845232    1.777595   -0.827789
     15          1           0        2.700433   -0.338623    1.723509
     16          1           0        2.301304   -1.865618    0.800528
     17          1           0        3.421901    0.804511   -0.403177
     18          1           0        3.038036   -0.701681   -1.368744
     19          1           0        0.049879   -0.903597   -1.695615
 ---------------------------------------------------------------------

 SCF Done:  E(RB3LYP) =  -423.099906412     A.U. after    1 cycles

 The electronic state is 1-A.
 Alpha  occ. eigenvalues --  -19.15126 -19.14081 -10.24560 -10.23680 -10.23655
 Alpha  occ. eigenvalues --  -10.22821 -10.19499 -10.18570 -10.18487  -1.06107
 Alpha  occ. eigenvalues --   -1.03984  -0.84922  -0.82733  -0.69383  -0.63781
 Alpha  occ. eigenvalues --   -0.60978  -0.58756  -0.53019  -0.52169  -0.51431
 Alpha  occ. eigenvalues --   -0.47363  -0.46574  -0.44955  -0.42422  -0.42120
 Alpha  occ. eigenvalues --   -0.38407  -0.37024  -0.35324  -0.34172  -0.31924
 Alpha  occ. eigenvalues --   -0.29326  -0.27856  -0.25677  -0.21755
 Alpha virt. eigenvalues --    0.07216   0.09013   0.10870   0.11224   0.12385
 Alpha virt. eigenvalues --    0.13527   0.14524   0.14927   0.15349   0.16312
 Alpha virt. eigenvalues --    0.17894   0.18122   0.19057   0.20785   0.22512

 Mulliken charges:
               1
     1  C   -0.235605
     2  O   -0.246680
     3  C    0.074728
     4  C    0.043296
     5  O   -0.315266
     6  C    0.472680
     7  C   -0.335505
     8  C   -0.345121
     9  C   -0.272028
    10  H    0.111779
    11  H    0.129476
    12  H    0.111920
    13  H    0.092294
    14  H    0.110723
    15  H    0.126936
    16  H    0.119555
    17  H    0.127263
    18  H    0.117283
    19  H    0.112272
 Sum of Mulliken charges =   0.00000

 Dipole moment (field-independent basis, Debye):
    X=             -0.5588    Y=             -0.4034    Z=             -0.1481  Tot=              0.7049
 Quadrupole moment (field-independent basis, Debye-Ang):
   XX=            -48.3460   YY=            -54.5192   ZZ=            -52.2971
   XY=             -3.5687   XZ=             -2.2357   YZ=             -1.4417

  Exact polarizability:  99.508  -2.971  66.157  -1.405  -1.692  66.020
 Approx polarizability: 118.706  -2.675 104.575  -1.136   0.644 100.364

                      1                      2                      3
                      A                      A                      A
 Frequencies --     80.8582               133.9944               157.1222
 Red. masses --      3.0837                 2.3816                 1.8479
 Frc consts  --      0.0119                 0.0252                 0.0269
 IR Inten    --      2.1609                 1.5345                 1.3308

                      4                      5                      6
                      A                      A                      A
 Frequencies --    187.8030               246.9766               291.2258
 Red. masses --      1.8538                 2.1785                 2.8988
 Frc consts  --      0.0385                 0.0783                 0.1449
 IR Inten    --      0.1443                 1.5559                 2.0194

                      7                      8                      9
                      A                      A                      A
 Frequencies --    333.7253               409.8728               497.5675
 Red. masses --      3.2446                 3.8177                 4.3538
 Frc consts  --      0.2129                 0.3779                 0.6351
 IR Inten    --      9.6107                 2.1284                 0.1200

                     10                     11                     12
                      A                      A                      A
 Frequencies --    508.2130               593.7104               754.3573
 Red. masses --      3.5532                 4.1668                 1.0510
 Frc consts  --      0.5407                 0.8654                 0.3524
 IR Inten    --      1.9596                 4.3869                 3.1013

                     13                     14                     15
                      A                      A                      A
 Frequencies --    800.8447               856.9575               872.6689
 Red. masses --      1.3207                 2.5907                 1.4732
 Frc consts  --      0.4990                 1.1210                 0.6610
 IR Inten    --     13.5697                21.1173                 9.8110

                     16                     17                     18
                      A                      A                      A
 Frequencies --    897.4677               917.5758               951.6159
 Red. masses --      1.9426                 3.8967                 3.1119
 Frc consts  --      0.9219                 1.9330                 1.6603
 IR Inten    --      0.9372                 8.7013                12.3810

                     19                     20                     21
                      A                      A                      A
 Frequencies --    969.3930               983.6186              1019.6969
 Red. masses --      2.9602                 2.3923                 3.8912
 Frc consts  --      1.6390                 1.3637                 2.3838
 IR Inten    --     23.4208                 7.0877                35.9383

                     22                     23                     24
                      A                      A                      A
 Frequencies --   1040.8198              1047.2034              1053.1717
 Red. masses --      2.2925                 1.4877                 2.4120
 Frc consts  --      1.4632                 0.9612                 1.5763
 IR Inten    --     44.6593                16.2952                30.5258

                     25                     26                     27
                      A                      A                      A
 Frequencies --   1068.8630              1099.1427              1155.6231
 Red. masses --      1.5028                 1.4483                 1.7543
 Frc consts  --      1.0115                 1.0309                 1.3804
 IR Inten    --      0.2480                 7.5922                53.9826

                     28                     29                     30
                      A                      A                      A
 Frequencies --   1169.9631              1182.4790              1184.4646
 Red. masses --      2.6218                 1.2933                 1.5663
 Frc consts  --      2.1145                 1.0655                 1.2947
 IR Inten    --    107.9742                 3.3274                12.4910

                     31                     32                     33
                      A                      A                      A
 Frequencies --   1186.7187              1234.8581              1257.9535
 Red. masses --      1.3467                 2.2848                 2.2533
 Frc consts  --      1.1174                 2.0528                 2.1008
 IR Inten    --      2.6427                26.9744                21.6668

                     34                     35                     36
                      A                      A                      A
 Frequencies --   1288.7524              1396.0453              1408.3648
 Red. masses --      1.4512                 1.9968                 2.2148
 Frc consts  --      1.4201                 2.2928                 2.5883
 IR Inten    --     12.9051                 4.7901                43.5733

                     37                     38                     39
                      A                      A                      A
 Frequencies --   1447.6189              1482.7108              1485.2778
 Red. masses --      1.0910                 1.1794                 1.0664
 Frc consts  --      1.3470                 1.5276                 1.3861
 IR Inten    --      1.5996                 1.0227                 4.8222

                     40                     41                     42
                      A                      A                      A
 Frequencies --   1505.2722              1507.5778              2989.9772
 Red. masses --      1.9828                 1.0617                 1.0357
 Frc consts  --      2.6470                 1.4217                 5.4551
 IR Inten    --     27.0645                 6.5231                56.8291

                     43                     44                     45
                      A                      A                      A
 Frequencies --   3042.9908              3067.6412              3122.8606
 Red. masses --      1.1031                 1.0874                 1.0983
 Frc consts  --      6.0184                 6.0290                 6.3107
 IR Inten    --     48.3817                25.9128                29.2130

                     46                     47                     48
                      A                      A                      A
 Frequencies --   3129.3516              3133.0530              3186.3859
 Red. masses --      1.0519                 1.0567                 1.0918
 Frc consts  --      6.0690                 6.1113                 6.5312
 IR Inten    --     11.9901                 5.0765                17.8691

                     49                     50                     51
                      A                      A                      A
 Frequencies --   3212.7031              3213.9723              3227.8016
 Red. masses --      1.0974                 1.1174                 1.1153
 Frc consts  --      6.6737                 6.8007                 6.8464
 IR Inten    --      4.3903                 0.7243                 8.2250

 - Thermochemistry -
 -------------------
 Temperature   298.150 Kelvin.  Pressure   1.00000 Atm.
 Atom     1 has atomic number  6 and mass  12.00000

 Molecular mass:   126.06808 amu.
 Principal axes and moments of inertia in atomic units:
                           1         2         3
     Eigenvalues --   359.180791927.215002018.33325
           X            0.99985  -0.01545  -0.00777
           Y            0.01476   0.99650  -0.08222
           Z            0.00902   0.08209   0.99658
 This molecule is an asymmetric top.
 Rotational symmetry number  1.
 Rotational temperatures (Kelvin)      0.24114     0.04494     0.04291
 Rotational constants (GHZ):           5.02460     0.93645     0.89417
 Zero-point vibrational energy     412681.0 (Joules/Mol)
                                   98.63314 (Kcal/Mol)
 Warning -- explicit consideration of  11 degrees of freedom as
           vibrations may cause significant error
 Vibrational temperatures:    116.34   192.79   226.06   270.21   355.34
          (Kelvin)            419.01   480.16   589.71   715.89   731.20
                              854.22  1085.35  1152.24  1232.97  1255.57
                             1291.25  1320.19  1369.16  1394.74  1415.21
                             1467.11  1497.51  1506.69  1515.28  1537.85
                             1581.42  1662.68  1683.31  1701.32  1704.18
                             1707.42  1776.68  1809.91  1854.22  2008.60
                             2026.32  2082.80  2133.29  2136.98  2165.75
                             2169.07  4301.90  4378.18  4413.65  4493.09
                             4502.43  4507.76  4584.49  4622.36  4624.18
                             4644.08

 Zero-point correction=                           0.157182 (Hartree/Particle)
 Thermal correction to Energy=                    0.165755
 Thermal correction to Enthalpy=                  0.166699
 Thermal correction to Gibbs Free Energy=         0.123880
 Sum of electronic and zero-point Energies=           -422.942725
 Sum of electronic and thermal Energies=              -422.934152
 Sum of electronic and thermal Enthalpies=            -422.933208
 Sum of electronic and thermal Free Energies=         -422.976026

                     E (Thermal)             CV                S
                      KCal/Mol        Cal/Mol-Kelvin    Cal/Mol-Kelvin
 Total                  104.013             32.490             90.119
 Electronic               0.000              0.000              0.000
 Translational            0.889              2.981             40.409
 Rotational               0.889              2.981             28.726
 Vibrational            102.235             26.528             20.984
 Vibration     1          0.600              1.962              3.870
 Vibration     2          0.613              1.919              2.888
 Vibration     3          0.621              1.895              2.584
 Vibration     4          0.632              1.857              2.249
 Vibration     5          0.661              1.768              1.752
 Vibration     6          0.687              1.690              1.467
 Vibration     7          0.715              1.608              1.242
 Vibration     8          0.774              1.449              0.927
 Vibration     9          0.853              1.255              0.664
 Vibration    10          0.863              1.232              0.638
 Vibration    11          0.951              1.045              0.461

 Optimization completed.
    -- Stationary point found.
 Normal termination of Gaussian 09 at Tue Jan 28 14:43:15 2020.
