 Gaussian 09, Revision D.01,
 Gaussian 09:  ES64L-G09RevD.01 24-Apr-2013

 -----------------------------
 # b3lyp 6-31G(2df,p) opt Freq
 -----------------------------

 -----
 titel
 -----
 Symbolic Z-matrix:
 Charge =  0 Multiplicity = 1

 SCF Done:  E(RB3LYP) =  -423.191490578     A.U. after   14 cycles
 Optimization completed.
    -- Stationary point found.
 Normal termination of Gaussian 09 at Tue Jan 28 11:47:01 2020.

 ----------------------------------------------------------------------
 #N Geom=AllCheck Guess=TCheck SCRF=Check GenChk RB3LYP/6-31G(2df,p) Fr
 eq
 ----------------------------------------------------------------------

 Structure from the checkpoint file:  "/scratch/puck/g09_3ddad9f0-078f-4694-8205-0aae678b5141/Gau-89579.chk"
 -----
 titel
 -----
 Charge =  0 Multiplicity = 1

                         Standard orientation:
 ---------------------------------------------------------------------
 Center     Atomic      Atomic             Coordinates (Angstroms)
 Number     Number       Type             X           Y           Z
 ---------------------------------------------------------------------
      1          6           0        2.394117   -0.932250   -0.269813
      2          8           0        1.079979   -1.447467   -0.288057
      3          6           0        0.122962   -0.607566    0.326354
      4          6           0       -1.165770   -1.423852    0.587139
      5          6           0       -2.277059   -0.543261    0.082931
      6          6           0       -1.827367    0.537763   -0.549965
      7          6           0       -0.312956    0.597359   -0.560227
      8          6           0        0.208671    1.949880   -0.109635
      9          8           0        1.001295    2.128996    0.779439
     10          1           0        2.739045   -0.737294    0.756066
     11          1           0        3.038820   -1.686218   -0.728158
     12          1           0        2.486455    0.003876   -0.839961
     13          1           0        0.530811   -0.211326    1.265660
     14          1           0       -1.110223   -2.363667    0.023574
     15          1           0       -1.280678   -1.695819    1.641988
     16          1           0       -3.324255   -0.798170    0.203353
     17          1           0       -2.441381    1.296818   -1.022419
     18          1           0        0.061503    0.459593   -1.588922
     19          1           0       -0.205879    2.811543   -0.682929
 ---------------------------------------------------------------------

 SCF Done:  E(RB3LYP) =  -423.191490578     A.U. after    1 cycles

 The electronic state is 1-A.
 Alpha  occ. eigenvalues --  -19.14578 -19.13930 -10.27554 -10.23339 -10.22071
 Alpha  occ. eigenvalues --  -10.20056 -10.19267 -10.19072 -10.18611  -1.05252
 Alpha  occ. eigenvalues --   -1.03160  -0.84912  -0.74142  -0.72458  -0.66468
 Alpha  occ. eigenvalues --   -0.61492  -0.55532  -0.54837  -0.50670  -0.50471
 Alpha  occ. eigenvalues --   -0.45918  -0.44475  -0.43769  -0.42965  -0.41294
 Alpha  occ. eigenvalues --   -0.40165  -0.37706  -0.36227  -0.35376  -0.35148
 Alpha  occ. eigenvalues --   -0.31030  -0.27585  -0.25105  -0.24102
 Alpha virt. eigenvalues --   -0.02680   0.01921   0.09616   0.10294   0.11501
 Alpha virt. eigenvalues --    0.12236   0.14341   0.15282   0.15724   0.16966
 Alpha virt. eigenvalues --    0.17187   0.17769   0.18736   0.20031   0.21084

 Mulliken charges:
               1
     1  C   -0.238343
     2  O   -0.247315
     3  C    0.116738
     4  C   -0.298092
     5  C   -0.068262
     6  C   -0.091607
     7  C   -0.147218
     8  C    0.148569
     9  O   -0.244056
    10  H    0.116115
    11  H    0.123474
    12  H    0.105215
    13  H    0.094400
    14  H    0.126993
    15  H    0.111470
    16  H    0.101525
    17  H    0.100289
    18  H    0.111851
    19  H    0.078255
 Sum of Mulliken charges =   0.00000

 Dipole moment (field-independent basis, Debye):
    X=             -1.2728    Y=             -0.1503    Z=             -1.1330  Tot=              1.7106
 Quadrupole moment (field-independent basis, Debye-Ang):
   XX=            -49.9837   YY=            -56.6094   ZZ=            -53.4689
   XY=             -2.4120   XZ=             -1.7416   YZ=             -5.1887

  Exact polarizability:  86.651   2.985  82.603   1.178  -8.227  63.153
 Approx polarizability: 116.219   9.087 121.675   4.354 -12.130 105.268

                      1                      2                      3
                      A                      A                      A
 Frequencies --     37.8857                75.3700                95.5663
 Red. masses --      3.8709                 3.0274                 2.3816
 Frc consts  --      0.0033                 0.0101                 0.0128
 IR Inten    --      2.6928                 3.9463                 2.6500

                      4                      5                      6
                      A                      A                      A
 Frequencies --    187.9839               189.7436               245.6866
 Red. masses --      1.8882                 1.9571                 2.4603
 Frc consts  --      0.0393                 0.0415                 0.0875
 IR Inten    --      2.6897                 3.3452                 1.8101

                      7                      8                      9
                      A                      A                      A
 Frequencies --    291.9295               410.2103               418.5349
 Red. masses --      3.0490                 2.5377                 3.3085
 Frc consts  --      0.1531                 0.2516                 0.3415
 IR Inten    --      4.6721                 3.4325                 2.1899

                     10                     11                     12
                      A                      A                      A
 Frequencies --    475.0717               602.4309               663.2923
 Red. masses --      4.3449                 2.9668                 4.6114
 Frc consts  --      0.5778                 0.6344                 1.1953
 IR Inten    --      0.9006                 2.1827                25.0060

                     13                     14                     15
                      A                      A                      A
 Frequencies --    734.3987               770.0781               816.6966
 Red. masses --      1.3206                 3.9539                 2.5851
 Frc consts  --      0.4196                 1.3815                 1.0159
 IR Inten    --     28.7245                16.5447                 2.8338

                     16                     17                     18
                      A                      A                      A
 Frequencies --    909.6789               965.3176               974.3437
 Red. masses --      1.7065                 2.1651                 1.2900
 Frc consts  --      0.8320                 1.1887                 0.7216
 IR Inten    --      4.9334                 7.3001                 0.3030

                     19                     20                     21
                      A                      A                      A
 Frequencies --    993.2327              1022.7020              1053.7037
 Red. masses --      2.8967                 2.7588                 2.2884
 Frc consts  --      1.6837                 1.7001                 1.4970
 IR Inten    --     33.0496                 4.9437                 1.5024

                     22                     23                     24
                      A                      A                      A
 Frequencies --   1055.1115              1093.8151              1129.3690
 Red. masses --      2.2855                 2.2480                 1.1751
 Frc consts  --      1.4991                 1.5846                 0.8831
 IR Inten    --      1.6935                15.7053                 5.6586

                     25                     26                     27
                      A                      A                      A
 Frequencies --   1152.9705              1178.4131              1183.6457
 Red. masses --      3.7763                 1.2052                 1.3018
 Frc consts  --      2.9577                 0.9860                 1.0746
 IR Inten    --    115.2480                 5.1299                 5.8233

                     28                     29                     30
                      A                      A                      A
 Frequencies --   1224.8935              1240.8350              1268.7757
 Red. masses --      1.6475                 1.6587                 1.5156
 Frc consts  --      1.4564                 1.5047                 1.4375
 IR Inten    --      7.5132                34.1516                25.3671

                     31                     32                     33
                      A                      A                      A
 Frequencies --   1314.4527              1316.9598              1378.3843
 Red. masses --      1.5806                 1.4322                 1.6656
 Frc consts  --      1.6090                 1.4635                 1.8645
 IR Inten    --      1.9609                 2.1613                 3.2492

                     34                     35                     36
                      A                      A                      A
 Frequencies --   1404.1941              1427.3534              1478.6650
 Red. masses --      1.2462                 1.2221                 1.0967
 Frc consts  --      1.4477                 1.4669                 1.4128
 IR Inten    --     29.6422                 6.1726                 2.5268

                     37                     38                     39
                      A                      A                      A
 Frequencies --   1482.9729              1490.4099              1506.4567
 Red. masses --      1.0920                 1.0818                 1.0815
 Frc consts  --      1.4150                 1.4159                 1.4461
 IR Inten    --      3.8992                 2.9771                 7.4258

                     40                     41                     42
                      A                      A                      A
 Frequencies --   1688.5839              1826.5192              2860.3518
 Red. masses --      6.4015                10.5373                 1.0826
 Frc consts  --     10.7542                20.7123                 5.2185
 IR Inten    --      3.6098               148.6344               136.3545

                     43                     44                     45
                      A                      A                      A
 Frequencies --   2970.2597              2985.5437              3019.6697
 Red. masses --      1.0798                 1.0360                 1.0836
 Frc consts  --      5.6129                 5.4410                 5.8214
 IR Inten    --     10.9614                48.8854                16.9945

                     46                     47                     48
                      A                      A                      A
 Frequencies --   3033.4345              3034.3928              3069.7212
 Red. masses --      1.0618                 1.1023                 1.1008
 Frc consts  --      5.7563                 5.9801                 6.1117
 IR Inten    --     16.3047                48.7835                22.7306

                     49                     50                     51
                      A                      A                      A
 Frequencies --   3114.0737              3181.3695              3206.3866
 Red. masses --      1.0979                 1.0842                 1.1037
 Frc consts  --      6.2731                 6.4652                 6.6854
 IR Inten    --     32.9499                 3.6704                22.7289

 - Thermochemistry -
 -------------------
 Temperature   298.150 Kelvin.  Pressure   1.00000 Atm.
 Atom     1 has atomic number  6 and mass  12.00000

 Molecular mass:   126.06808 amu.
 Principal axes and moments of inertia in atomic units:
                           1         2         3
     Eigenvalues --   926.543761080.968591757.70380
           X            0.99657  -0.08247  -0.00728
           Y            0.08218   0.99603  -0.03411
           Z            0.01006   0.03339   0.99939
 This molecule is an asymmetric top.
 Rotational symmetry number  1.
 Warning -- assumption of classical behavior for rotation
           may cause significant error
 Rotational temperatures (Kelvin)      0.09348     0.08013     0.04928
 Rotational constants (GHZ):           1.94782     1.66956     1.02676
 Zero-point vibrational energy     414218.0 (Joules/Mol)
                                   99.00048 (Kcal/Mol)
 Warning -- explicit consideration of  11 degrees of freedom as
           vibrations may cause significant error
 Vibrational temperatures:     54.51   108.44   137.50   270.47   273.00
          (Kelvin)            353.49   420.02   590.20   602.18   683.52
                              866.76   954.33  1056.63  1107.97  1175.04
                             1308.82  1388.87  1401.86  1429.04  1471.44
                             1516.04  1518.07  1573.75  1624.91  1658.87
                             1695.47  1703.00  1762.35  1785.28  1825.48
                             1891.20  1894.81  1983.19  2020.32  2053.64
                             2127.47  2133.66  2144.36  2167.45  2429.49
                             2627.95  4115.40  4273.54  4295.53  4344.63
                             4364.43  4365.81  4416.64  4480.45  4577.28
                             4613.27

 Zero-point correction=                           0.157767 (Hartree/Particle)
 Thermal correction to Energy=                    0.166928
 Thermal correction to Enthalpy=                  0.167872
 Thermal correction to Gibbs Free Energy=         0.122628
 Sum of electronic and zero-point Energies=           -423.033723
 Sum of electronic and thermal Energies=              -423.024563
 Sum of electronic and thermal Enthalpies=            -423.023619
 Sum of electronic and thermal Free Energies=         -423.068863

                     E (Thermal)             CV                S
                      KCal/Mol        Cal/Mol-Kelvin    Cal/Mol-Kelvin
 Total                  104.749             32.638             95.225
 Electronic               0.000              0.000              0.000
 Translational            0.889              2.981             40.409
 Rotational               0.889              2.981             28.956
 Vibrational            102.971             26.676             25.860
 Vibration     1          0.594              1.982              5.367
 Vibration     2          0.599              1.965              4.008
 Vibration     3          0.603              1.952              3.543
 Vibration     4          0.633              1.856              2.248
 Vibration     5          0.633              1.854              2.230
 Vibration     6          0.660              1.770              1.761
 Vibration     7          0.687              1.689              1.463
 Vibration     8          0.774              1.448              0.926
 Vibration     9          0.781              1.430              0.897
 Vibration    10          0.832              1.305              0.723
 Vibration    11          0.961              1.027              0.445

 Normal termination of Gaussian 09 at Tue Jan 28 13:19:28 2020.
