 Gaussian 09, Revision D.01,
 Gaussian 09:  ES64L-G09RevD.01 24-Apr-2013

 -----------------------------
 # b3lyp 6-31G(2df,p) opt Freq
 -----------------------------

 -----
 titel
 -----
 Symbolic Z-matrix:
 Charge =  0 Multiplicity = 1

 SCF Done:  E(RB3LYP) =  -423.145373936     A.U. after   13 cycles
 Optimization completed.
    -- Stationary point found.
 Normal termination of Gaussian 09 at Tue Jan 28 08:11:13 2020.

 ----------------------------------------------------------------------
 #N Geom=AllCheck Guess=TCheck SCRF=Check GenChk RB3LYP/6-31G(2df,p) Fr
 eq
 ----------------------------------------------------------------------

 Structure from the checkpoint file:  "/scratch/puck/g09_264953b6-e4b8-4062-8add-ae4bf2e1649b/Gau-8177.chk"
 -----
 titel
 -----
 Charge =  0 Multiplicity = 1

                         Standard orientation:
 ---------------------------------------------------------------------
 Center     Atomic      Atomic             Coordinates (Angstroms)
 Number     Number       Type             X           Y           Z
 ---------------------------------------------------------------------
      1          6           0        2.547627   -0.349074   -0.090772
      2          6           0        1.210184    0.114199    0.470206
      3          8           0        0.797473    1.201994   -0.343867
      4          6           0       -0.504714    1.710486   -0.120829
      5          6           0       -1.572235    0.656515    0.107406
      6          6           0       -1.618913   -0.718011   -0.517727
      7          8           0       -0.337315   -1.208225   -0.906331
      8          6           0        0.153186   -0.991923    0.451724
      9          6           0       -1.241034   -0.562918    0.932948
     10          1           0        2.406330   -0.743741   -1.100596
     11          1           0        3.246365    0.489852   -0.140025
     12          1           0        2.982278   -1.130923    0.539569
     13          1           0        1.330917    0.440468    1.520018
     14          1           0       -0.506636    2.383178    0.755697
     15          1           0       -0.733294    2.319079   -1.002624
     16          1           0       -2.560048    1.068273    0.303625
     17          1           0       -2.488525   -1.143573   -1.005016
     18          1           0        0.527514   -1.924770    0.884197
     19          1           0       -1.730781   -0.863649    1.849008
 ---------------------------------------------------------------------

 SCF Done:  E(RB3LYP) =  -423.145373936     A.U. after    1 cycles

 The electronic state is 1-A.
 Alpha  occ. eigenvalues --  -19.13535 -19.13353 -10.24111 -10.23612 -10.23078
 Alpha  occ. eigenvalues --  -10.22907 -10.19704 -10.19379 -10.17005  -1.05780
 Alpha  occ. eigenvalues --   -1.02032  -0.84159  -0.77831  -0.69128  -0.69037
 Alpha  occ. eigenvalues --   -0.61029  -0.56821  -0.53779  -0.53141  -0.48155
 Alpha  occ. eigenvalues --   -0.47142  -0.45947  -0.44565  -0.40389  -0.39826
 Alpha  occ. eigenvalues --   -0.38951  -0.36880  -0.36430  -0.34528  -0.33348
 Alpha  occ. eigenvalues --   -0.29947  -0.27097  -0.24895  -0.22774
 Alpha virt. eigenvalues --    0.07818   0.08987   0.10773   0.12143   0.12728
 Alpha virt. eigenvalues --    0.14119   0.14822   0.15711   0.16161   0.17006
 Alpha virt. eigenvalues --    0.17545   0.18091   0.18712   0.20333   0.22914

 Mulliken charges:
               1
     1  C   -0.405451
     2  C    0.126555
     3  O   -0.257197
     4  C   -0.093086
     5  C   -0.080283
     6  C    0.095018
     7  O   -0.291968
     8  C    0.086427
     9  C   -0.187952
    10  H    0.141953
    11  H    0.123363
    12  H    0.108471
    13  H    0.061564
    14  H    0.085445
    15  H    0.111922
    16  H    0.092955
    17  H    0.105541
    18  H    0.082032
    19  H    0.094691
 Sum of Mulliken charges =   0.00000

 Dipole moment (field-independent basis, Debye):
    X=             -1.3163    Y=              0.0115    Z=              1.9812  Tot=              2.3787
 Quadrupole moment (field-independent basis, Debye-Ang):
   XX=            -48.7820   YY=            -53.6691   ZZ=            -53.8290
   XY=             -2.0702   XZ=              1.2726   YZ=             -1.5769

  Exact polarizability:  83.596  -4.151  73.968   2.374  -1.189  65.276
 Approx polarizability: 108.970  -6.042 107.142   3.611  -0.407 106.952

                      1                      2                      3
                      A                      A                      A
 Frequencies --    134.6151               196.9986               233.4956
 Red. masses --      3.3399                 2.1034                 1.2362
 Frc consts  --      0.0357                 0.0481                 0.0397
 IR Inten    --      1.8902                 2.7733                 1.3672

                      4                      5                      6
                      A                      A                      A
 Frequencies --    274.9860               336.6163               393.9562
 Red. masses --      2.7903                 3.5782                 3.7517
 Frc consts  --      0.1243                 0.2389                 0.3431
 IR Inten    --      1.4832                 0.6559                 1.8793

                      7                      8                      9
                      A                      A                      A
 Frequencies --    478.8527               505.1210               663.3404
 Red. masses --      5.9096                 2.8231                 3.6989
 Frc consts  --      0.7984                 0.4244                 0.9589
 IR Inten    --      0.8346                 1.1245                13.8952

                     10                     11                     12
                      A                      A                      A
 Frequencies --    716.7550               730.4705               796.7275
 Red. masses --      2.5408                 3.8123                 2.0295
 Frc consts  --      0.7691                 1.1985                 0.7590
 IR Inten    --      3.6234                 2.8256                 7.5724

                     13                     14                     15
                      A                      A                      A
 Frequencies --    819.3204               837.3998               877.0176
 Red. masses --      2.2552                 3.0258                 2.0556
 Frc consts  --      0.8920                 1.2501                 0.9316
 IR Inten    --      8.0723                21.0258                20.3250

                     16                     17                     18
                      A                      A                      A
 Frequencies --    920.2317               951.1623               989.1190
 Red. masses --      2.2921                 2.6298                 1.7536
 Frc consts  --      1.1436                 1.4018                 1.0108
 IR Inten    --     10.0535                10.7139                13.4462

                     19                     20                     21
                      A                      A                      A
 Frequencies --    995.6407              1020.8212              1051.2607
 Red. masses --      2.2313                 1.8963                 1.3803
 Frc consts  --      1.3032                 1.1643                 0.8988
 IR Inten    --      8.4445                 3.5912                 7.5366

                     22                     23                     24
                      A                      A                      A
 Frequencies --   1055.0273              1085.5758              1091.2588
 Red. masses --      2.3669                 2.0518                 2.1655
 Frc consts  --      1.5522                 1.4246                 1.5194
 IR Inten    --      4.8281                64.0383                 5.8716

                     25                     26                     27
                      A                      A                      A
 Frequencies --   1115.3202              1129.9824              1161.2505
 Red. masses --      2.5273                 2.1551                 1.8602
 Frc consts  --      1.8523                 1.6213                 1.4779
 IR Inten    --      7.6593                12.7359                 7.2838

                     28                     29                     30
                      A                      A                      A
 Frequencies --   1182.7896              1240.5618              1275.8116
 Red. masses --      3.1767                 1.2553                 1.6755
 Frc consts  --      2.6184                 1.1383                 1.6068
 IR Inten    --     86.5331                 2.0132                12.0677

                     31                     32                     33
                      A                      A                      A
 Frequencies --   1290.9731              1302.9807              1325.3193
 Red. masses --      1.2405                 1.3037                 1.4673
 Frc consts  --      1.2181                 1.3041                 1.5185
 IR Inten    --      7.6018                 2.2933                 1.1293

                     34                     35                     36
                      A                      A                      A
 Frequencies --   1363.6776              1376.8902              1403.4298
 Red. masses --      1.5319                 1.5180                 1.3604
 Frc consts  --      1.6784                 1.6955                 1.5787
 IR Inten    --      0.8094                12.1347                10.8494

                     37                     38                     39
                      A                      A                      A
 Frequencies --   1411.1724              1450.1559              1483.8120
 Red. masses --      1.6508                 2.0131                 1.0551
 Frc consts  --      1.9369                 2.4943                 1.3687
 IR Inten    --     18.5158                 4.0645                 3.5772

                     40                     41                     42
                      A                      A                      A
 Frequencies --   1498.6713              1503.8485              2931.7950
 Red. masses --      1.0680                 1.0730                 1.0808
 Frc consts  --      1.4133                 1.4298                 5.4736
 IR Inten    --      0.8846                 1.8130                37.9734

                     43                     44                     45
                      A                      A                      A
 Frequencies --   2942.5849              3044.6738              3060.2235
 Red. masses --      1.0728                 1.0357                 1.0894
 Frc consts  --      5.4731                 5.6565                 6.0110
 IR Inten    --    100.3674                13.0599                43.7087

                     46                     47                     48
                      A                      A                      A
 Frequencies --   3063.6681              3120.1268              3129.5695
 Red. masses --      1.0866                 1.1012                 1.1027
 Frc consts  --      6.0091                 6.3164                 6.3632
 IR Inten    --     36.4899                21.3388                15.4485

                     49                     50                     51
                      A                      A                      A
 Frequencies --   3138.8731              3180.4088              3202.9334
 Red. masses --      1.0866                 1.0907                 1.0981
 Frc consts  --      6.3077                 6.5000                 6.6371
 IR Inten    --     11.5705                25.3511                14.2305

 - Thermochemistry -
 -------------------
 Temperature   298.150 Kelvin.  Pressure   1.00000 Atm.
 Atom     1 has atomic number  6 and mass  12.00000

 Molecular mass:   126.06808 amu.
 Principal axes and moments of inertia in atomic units:
                           1         2         3
     Eigenvalues --   625.70484 998.738551303.60503
           X            0.99874  -0.05021   0.00008
           Y            0.05020   0.99858  -0.01760
           Z            0.00080   0.01758   0.99985
 This molecule is an asymmetric top.
 Rotational symmetry number  1.
 Warning -- assumption of classical behavior for rotation
           may cause significant error
 Rotational temperatures (Kelvin)      0.13843     0.08672     0.06644
 Rotational constants (GHZ):           2.88433     1.80702     1.38442
 Zero-point vibrational energy     421607.5 (Joules/Mol)
                                  100.76662 (Kcal/Mol)
 Warning -- explicit consideration of   8 degrees of freedom as
           vibrations may cause significant error
 Vibrational temperatures:    193.68   283.44   335.95   395.64   484.32
          (Kelvin)            566.81   688.96   726.76   954.40  1031.25
                             1050.98  1146.31  1178.82  1204.83  1261.83
                             1324.01  1368.51  1423.12  1432.50  1468.73
                             1512.53  1517.95  1561.90  1570.08  1604.69
                             1625.79  1670.78  1701.77  1784.89  1835.61
                             1857.42  1874.70  1906.84  1962.03  1981.04
                             2019.22  2030.36  2086.45  2134.87  2156.25
                             2163.70  4218.19  4233.72  4380.60  4402.97
                             4407.93  4489.16  4502.75  4516.13  4575.89
                             4608.30

 Zero-point correction=                           0.160582 (Hartree/Particle)
 Thermal correction to Energy=                    0.167891
 Thermal correction to Enthalpy=                  0.168835
 Thermal correction to Gibbs Free Energy=         0.129136
 Sum of electronic and zero-point Energies=           -422.984792
 Sum of electronic and thermal Energies=              -422.977483
 Sum of electronic and thermal Enthalpies=            -422.976539
 Sum of electronic and thermal Free Energies=         -423.016238

                     E (Thermal)             CV                S
                      KCal/Mol        Cal/Mol-Kelvin    Cal/Mol-Kelvin
 Total                  105.353             29.488             83.554
 Electronic               0.000              0.000              0.000
 Translational            0.889              2.981             40.409
 Rotational               0.889              2.981             28.190
 Vibrational            103.576             23.526             14.955
 Vibration     1          0.613              1.919              2.879
 Vibration     2          0.636              1.844              2.161
 Vibration     3          0.654              1.790              1.852
 Vibration     4          0.677              1.720              1.565
 Vibration     5          0.717              1.602              1.228
 Vibration     6          0.761              1.483              0.985
 Vibration     7          0.835              1.297              0.713
 Vibration     8          0.860              1.239              0.645

 Optimization completed.
    -- Stationary point found.
 Normal termination of Gaussian 09 at Tue Jan 28 09:02:12 2020.
