 Gaussian 09, Revision D.01,
 Gaussian 09:  ES64L-G09RevD.01 24-Apr-2013

 -----------------------------
 # b3lyp 6-31G(2df,p) opt Freq
 -----------------------------

 -----
 titel
 -----
 Symbolic Z-matrix:
 Charge =  0 Multiplicity = 1

 SCF Done:  E(RB3LYP) =  -423.131793392     A.U. after   13 cycles
 Optimization completed.
    -- Stationary point found.
 Normal termination of Gaussian 09 at Mon Jan 27 12:16:57 2020.

 ----------------------------------------------------------------------
 #N Geom=AllCheck Guess=TCheck SCRF=Check GenChk RB3LYP/6-31G(2df,p) Fr
 eq
 ----------------------------------------------------------------------

 Structure from the checkpoint file:  "/scratch/puck/g09_c34cc2e7-776b-4144-8fdb-1c1ffaa76cae/Gau-153353.chk"
 -----
 titel
 -----
 Charge =  0 Multiplicity = 1

                         Standard orientation:
 ---------------------------------------------------------------------
 Center     Atomic      Atomic             Coordinates (Angstroms)
 Number     Number       Type             X           Y           Z
 ---------------------------------------------------------------------
      1          6           0        2.031573   -0.486458   -0.558169
      2          6           0        1.860410    0.899939    0.170367
      3          6           0        0.385051    0.538598    0.304912
      4          6           0        0.050914   -0.629647    1.300080
      5          6           0       -0.531581   -1.310927    0.043895
      6          8           0       -1.813666   -0.669047   -0.171261
      7          6           0       -1.746459    0.721769   -0.448678
      8          8           0       -0.707655    1.418315    0.246488
      9          6           0        0.486311   -0.544150   -0.819672
     10          1           0        2.628725   -0.457795   -1.470378
     11          1           0        2.425017   -1.277624    0.082187
     12          1           0        2.428732    1.081250    1.086375
     13          1           0        2.014864    1.730311   -0.524342
     14          1           0        0.926105   -1.123037    1.725811
     15          1           0       -0.671270   -0.385409    2.078899
     16          1           0       -0.712381   -2.386668   -0.016538
     17          1           0       -1.607515    0.879410   -1.528066
     18          1           0       -2.698861    1.154701   -0.134309
     19          1           0        0.219847   -0.344020   -1.857861
 ---------------------------------------------------------------------

 SCF Done:  E(RB3LYP) =  -423.131793392     A.U. after    1 cycles

 The electronic state is 1-A.
 Alpha  occ. eigenvalues --  -19.14551 -19.14172 -10.27366 -10.24094 -10.24063
 Alpha  occ. eigenvalues --  -10.19676 -10.18987 -10.18532 -10.17580  -1.07281
 Alpha  occ. eigenvalues --   -0.99811  -0.87514  -0.76035  -0.68551  -0.66620
 Alpha  occ. eigenvalues --   -0.63037  -0.60180  -0.51485  -0.50512  -0.49898
 Alpha  occ. eigenvalues --   -0.48190  -0.46614  -0.44071  -0.41285  -0.38676
 Alpha  occ. eigenvalues --   -0.37691  -0.37025  -0.35649  -0.35118  -0.33148
 Alpha  occ. eigenvalues --   -0.32270  -0.26609  -0.25386  -0.23845
 Alpha virt. eigenvalues --    0.08236   0.09026   0.10380   0.10778   0.12008
 Alpha virt. eigenvalues --    0.13150   0.15313   0.16327   0.16910   0.17784
 Alpha virt. eigenvalues --    0.18198   0.19052   0.19399   0.20077   0.20863

 Mulliken charges:
               1
     1  C   -0.277378
     2  C   -0.315636
     3  C    0.456433
     4  C   -0.282567
     5  C    0.094887
     6  O   -0.293502
     7  C    0.016484
     8  O   -0.328712
     9  C   -0.080042
    10  H    0.110001
    11  H    0.113463
    12  H    0.102167
    13  H    0.113041
    14  H    0.098195
    15  H    0.106176
    16  H    0.072282
    17  H    0.093987
    18  H    0.119611
    19  H    0.081110
 Sum of Mulliken charges =   0.00000

 Dipole moment (field-independent basis, Debye):
    X=              1.4777    Y=             -0.4906    Z=             -0.5505  Tot=              1.6515
 Quadrupole moment (field-independent basis, Debye-Ang):
   XX=            -52.9562   YY=            -54.9410   ZZ=            -51.8211
   XY=             -1.8550   XZ=              0.5199   YZ=             -1.6762

  Exact polarizability:  83.514  -1.193  69.471   0.402  -1.915  68.516
 Approx polarizability: 114.005  -1.374 106.192   0.958  -0.650 103.803

                      1                      2                      3
                      A                      A                      A
 Frequencies --    250.2279               260.2091               305.7041
 Red. masses --      2.3738                 2.2141                 3.1236
 Frc consts  --      0.0876                 0.0883                 0.1720
 IR Inten    --      0.1867                 4.0201                 5.6855

                      4                      5                      6
                      A                      A                      A
 Frequencies --    348.1162               420.9018               448.4856
 Red. masses --      3.6509                 2.5476                 4.7322
 Frc consts  --      0.2607                 0.2659                 0.5608
 IR Inten    --      2.9790                 2.1522                 1.2967

                      7                      8                      9
                      A                      A                      A
 Frequencies --    489.1271               583.2976               642.4547
 Red. masses --      2.3650                 4.9633                 3.9256
 Frc consts  --      0.3334                 0.9949                 0.9546
 IR Inten    --      2.2813                 3.7198                 4.8545

                     10                     11                     12
                      A                      A                      A
 Frequencies --    709.9889               769.7277               822.5806
 Red. masses --      2.0304                 1.6322                 3.2923
 Frc consts  --      0.6030                 0.5698                 1.3125
 IR Inten    --      1.2907                 2.3148                12.7769

                     13                     14                     15
                      A                      A                      A
 Frequencies --    851.9509               871.3392               884.8150
 Red. masses --      2.2981                 2.5668                 2.3549
 Frc consts  --      0.9828                 1.1482                 1.0862
 IR Inten    --      0.8376                 2.1130                 3.7555

                     16                     17                     18
                      A                      A                      A
 Frequencies --    904.2355               921.2438               962.4911
 Red. masses --      2.9443                 2.8068                 2.6862
 Frc consts  --      1.4184                 1.4035                 1.4662
 IR Inten    --      3.4386                20.5588                29.3753

                     19                     20                     21
                      A                      A                      A
 Frequencies --    992.6736              1021.7757              1044.3203
 Red. masses --      3.0536                 1.9236                 2.5260
 Frc consts  --      1.7728                 1.1832                 1.6231
 IR Inten    --     35.5680                 4.2351                31.7964

                     22                     23                     24
                      A                      A                      A
 Frequencies --   1075.9567              1104.4581              1113.0541
 Red. masses --      1.9427                 1.8213                 1.5682
 Frc consts  --      1.3251                 1.3090                 1.1447
 IR Inten    --     32.8566                 7.1977                16.0390

                     25                     26                     27
                      A                      A                      A
 Frequencies --   1134.3088              1160.9935              1204.1857
 Red. masses --      2.1084                 1.9743                 1.3722
 Frc consts  --      1.5983                 1.5679                 1.1723
 IR Inten    --     58.1505                50.6970                 1.8811

                     28                     29                     30
                      A                      A                      A
 Frequencies --   1214.0110              1223.3955              1236.3581
 Red. masses --      1.8354                 1.3903                 1.5443
 Frc consts  --      1.5938                 1.2260                 1.3908
 IR Inten    --     13.5222                20.8443                 7.9441

                     31                     32                     33
                      A                      A                      A
 Frequencies --   1260.3196              1274.1422              1284.9567
 Red. masses --      1.2301                 1.5699                 1.8304
 Frc consts  --      1.1512                 1.5016                 1.7806
 IR Inten    --     11.5058                14.4366                49.3318

                     34                     35                     36
                      A                      A                      A
 Frequencies --   1302.0806              1313.5438              1352.6403
 Red. masses --      1.2881                 2.6764                 1.4624
 Frc consts  --      1.2867                 2.7208                 1.5765
 IR Inten    --      3.6719                28.7062                26.2241

                     37                     38                     39
                      A                      A                      A
 Frequencies --   1439.7048              1466.5100              1484.4647
 Red. masses --      1.2207                 1.1117                 1.1102
 Frc consts  --      1.4907                 1.4087                 1.4415
 IR Inten    --      8.2795                 2.7211                 2.2650

                     40                     41                     42
                      A                      A                      A
 Frequencies --   1499.8316              1533.0021              2986.1338
 Red. masses --      1.1241                 1.0948                 1.0698
 Frc consts  --      1.4899                 1.5158                 5.6204
 IR Inten    --      6.6238                 0.9119                74.2889

                     43                     44                     45
                      A                      A                      A
 Frequencies --   3056.8793              3075.8153              3080.2001
 Red. masses --      1.0574                 1.0647                 1.0671
 Frc consts  --      5.8214                 5.9349                 5.9652
 IR Inten    --     40.8421                29.7503                31.9665

                     46                     47                     48
                      A                      A                      A
 Frequencies --   3087.3684              3100.7543              3104.5961
 Red. masses --      1.0741                 1.0945                 1.0932
 Frc consts  --      6.0321                 6.2001                 6.2080
 IR Inten    --     64.1250                35.2756                24.4270

                     49                     50                     51
                      A                      A                      A
 Frequencies --   3111.3949              3135.1569              3149.9646
 Red. masses --      1.1068                 1.1068                 1.1094
 Frc consts  --      6.3128                 6.4096                 6.4856
 IR Inten    --      5.6726                40.0592                16.8910

 - Thermochemistry -
 -------------------
 Temperature   298.150 Kelvin.  Pressure   1.00000 Atm.
 Atom     1 has atomic number  6 and mass  12.00000

 Molecular mass:   126.06808 amu.
 Principal axes and moments of inertia in atomic units:
                           1         2         3
     Eigenvalues --   572.298141017.961911203.56692
           X            0.99988  -0.01502   0.00348
           Y            0.01518   0.99853  -0.05203
           Z           -0.00269   0.05208   0.99864
 This molecule is an asymmetric top.
 Rotational symmetry number  1.
 Warning -- assumption of classical behavior for rotation
           may cause significant error
 Rotational temperatures (Kelvin)      0.15134     0.08509     0.07196
 Rotational constants (GHZ):           3.15350     1.77290     1.49949
 Zero-point vibrational energy     425104.1 (Joules/Mol)
                                  101.60231 (Kcal/Mol)
 Warning -- explicit consideration of   8 degrees of freedom as
           vibrations may cause significant error
 Vibrational temperatures:    360.02   374.38   439.84   500.86   605.58
          (Kelvin)            645.27   703.74   839.23   924.35  1021.51
                             1107.47  1183.51  1225.77  1253.66  1273.05
                             1300.99  1325.46  1384.81  1428.23  1470.11
                             1502.54  1548.06  1589.07  1601.43  1632.02
                             1670.41  1732.55  1746.69  1760.19  1778.84
                             1813.32  1833.20  1848.76  1873.40  1889.89
                             1946.15  2071.41  2109.98  2135.81  2157.92
                             2205.65  4296.38  4398.16  4425.41  4431.72
                             4442.03  4461.29  4466.82  4476.60  4510.79
                             4532.09

 Zero-point correction=                           0.161914 (Hartree/Particle)
 Thermal correction to Energy=                    0.168548
 Thermal correction to Enthalpy=                  0.169492
 Thermal correction to Gibbs Free Energy=         0.131417
 Sum of electronic and zero-point Energies=           -422.969880
 Sum of electronic and thermal Energies=              -422.963246
 Sum of electronic and thermal Enthalpies=            -422.962301
 Sum of electronic and thermal Free Energies=         -423.000377

                     E (Thermal)             CV                S
                      KCal/Mol        Cal/Mol-Kelvin    Cal/Mol-Kelvin
 Total                  105.765             28.396             80.136
 Electronic               0.000              0.000              0.000
 Translational            0.889              2.981             40.409
 Rotational               0.889              2.981             28.041
 Vibrational            103.988             22.434             11.687
 Vibration     1          0.663              1.762              1.729
 Vibration     2          0.668              1.745              1.660
 Vibration     3          0.696              1.663              1.385
 Vibration     4          0.726              1.579              1.175
 Vibration     5          0.783              1.425              0.889
 Vibration     6          0.807              1.364              0.800
 Vibration     7          0.845              1.274              0.686
 Vibration     8          0.940              1.067              0.479

 Optimization completed.
    -- Stationary point found.
 Normal termination of Gaussian 09 at Mon Jan 27 13:05:08 2020.
