 Gaussian 09, Revision D.01,
 Gaussian 09:  ES64L-G09RevD.01 24-Apr-2013

 -----------------------------
 # b3lyp 6-31G(2df,p) opt Freq
 -----------------------------

 -----
 titel
 -----
 Symbolic Z-matrix:
 Charge =  0 Multiplicity = 1

 SCF Done:  E(RB3LYP) =  -423.120860262     A.U. after   13 cycles
 Optimization completed.
    -- Stationary point found.
 Normal termination of Gaussian 09 at Mon Jan 27 16:26:32 2020.

 ----------------------------------------------------------------------
 #N Geom=AllCheck Guess=TCheck SCRF=Check GenChk RB3LYP/6-31G(2df,p) Fr
 eq
 ----------------------------------------------------------------------

 Structure from the checkpoint file:  "/scratch/puck/g09_cf1362fc-6ea1-4731-be75-1e832e4d0ec8/Gau-69847.chk"
 -----
 titel
 -----
 Charge =  0 Multiplicity = 1

                         Standard orientation:
 ---------------------------------------------------------------------
 Center     Atomic      Atomic             Coordinates (Angstroms)
 Number     Number       Type             X           Y           Z
 ---------------------------------------------------------------------
      1          8           0        1.103815    1.261620   -0.812723
      2          6           0        1.145978    0.073125   -0.077536
      3          6           0        2.191124   -0.911369   -0.501001
      4          6           0        2.344197   -0.168277    0.811609
      5          6           0       -0.204697   -0.419986    0.360884
      6          8           0       -0.943062    0.674294    1.010274
      7          6           0       -1.936119    0.625144   -0.023357
      8          6           0       -2.630455   -0.698391   -0.042923
      9          6           0       -1.282329   -0.537649   -0.718876
     10          1           0        0.626556    1.890266   -0.255766
     11          1           0        1.951897   -1.969341   -0.476898
     12          1           0        2.825372   -0.606995   -1.325406
     13          1           0        2.212133   -0.716209    1.738428
     14          1           0        3.080240    0.626237    0.846163
     15          1           0       -0.099295   -1.282570    1.030585
     16          1           0       -2.346036    1.564525   -0.374822
     17          1           0       -2.727304   -1.270014    0.876458
     18          1           0       -3.472977   -0.774460   -0.723776
     19          1           0       -1.102815   -0.724342   -1.768185
 ---------------------------------------------------------------------

 SCF Done:  E(RB3LYP) =  -423.120860262     A.U. after    1 cycles

 The electronic state is 1-A.
 Alpha  occ. eigenvalues --  -19.14255 -19.13719 -10.24055 -10.24037 -10.23786
 Alpha  occ. eigenvalues --  -10.19538 -10.19174 -10.18663 -10.18282  -1.05592
 Alpha  occ. eigenvalues --   -1.02132  -0.84764  -0.83366  -0.71319  -0.61161
 Alpha  occ. eigenvalues --   -0.60173  -0.58647  -0.55429  -0.52604  -0.48959
 Alpha  occ. eigenvalues --   -0.48410  -0.47461  -0.45309  -0.41697  -0.39284
 Alpha  occ. eigenvalues --   -0.37960  -0.36575  -0.34738  -0.33896  -0.31932
 Alpha  occ. eigenvalues --   -0.29416  -0.27938  -0.25169  -0.23745
 Alpha virt. eigenvalues --    0.07422   0.09299   0.10401   0.11292   0.11938
 Alpha virt. eigenvalues --    0.12461   0.13449   0.14581   0.14890   0.16781
 Alpha virt. eigenvalues --    0.17362   0.19714   0.20943   0.22142   0.22477

 Mulliken charges:
               1
     1  O   -0.471169
     2  C    0.421106
     3  C   -0.312569
     4  C   -0.330086
     5  C    0.055063
     6  O   -0.322979
     7  C    0.104410
     8  C   -0.310582
     9  C   -0.121963
    10  H    0.287910
    11  H    0.114449
    12  H    0.127999
    13  H    0.113751
    14  H    0.120085
    15  H    0.079896
    16  H    0.103256
    17  H    0.115089
    18  H    0.116508
    19  H    0.109824
 Sum of Mulliken charges =   0.00000

 Dipole moment (field-independent basis, Debye):
    X=             -0.7082    Y=             -0.8434    Z=             -0.2822  Tot=              1.1369
 Quadrupole moment (field-independent basis, Debye-Ang):
   XX=            -50.9554   YY=            -50.8945   ZZ=            -55.2290
   XY=             -0.9603   XZ=              3.3555   YZ=             -0.2095

  Exact polarizability:  91.306  -1.641  69.312   2.286  -0.180  65.481
 Approx polarizability: 114.088  -4.084 108.087   1.039   2.221 102.879

                      1                      2                      3
                      A                      A                      A
 Frequencies --     80.6429               146.7214               166.9444
 Red. masses --      3.8942                 3.5570                 3.0566
 Frc consts  --      0.0149                 0.0451                 0.0502
 IR Inten    --      2.7879                 1.3243                 4.1920

                      4                      5                      6
                      A                      A                      A
 Frequencies --    299.3887               303.4090               342.2911
 Red. masses --      3.8487                 3.0362                 2.2964
 Frc consts  --      0.2033                 0.1647                 0.1585
 IR Inten    --      1.9220                12.0836                 3.2396

                      7                      8                      9
                      A                      A                      A
 Frequencies --    438.1987               456.6077               492.9665
 Red. masses --      1.4006                 2.4301                 2.6710
 Frc consts  --      0.1585                 0.2985                 0.3824
 IR Inten    --     73.3398                 5.6161                69.5049

                     10                     11                     12
                      A                      A                      A
 Frequencies --    535.9479               751.9744               769.8892
 Red. masses --      3.6528                 1.8668                 1.1591
 Frc consts  --      0.6182                 0.6219                 0.4048
 IR Inten    --      6.4970                 3.9859                 1.5158

                     13                     14                     15
                      A                      A                      A
 Frequencies --    788.6357               822.3585               862.0883
 Red. masses --      1.6404                 2.8258                 3.3037
 Frc consts  --      0.6011                 1.1259                 1.4466
 IR Inten    --      5.3228                18.0396                29.0871

                     16                     17                     18
                      A                      A                      A
 Frequencies --    903.9447               906.1941               922.1326
 Red. masses --      1.8744                 1.9731                 3.0515
 Frc consts  --      0.9024                 0.9546                 1.5288
 IR Inten    --      0.9484                 4.3907                34.6501

                     19                     20                     21
                      A                      A                      A
 Frequencies --    942.5175               963.5498               984.3312
 Red. masses --      2.4181                 2.3276                 2.1455
 Frc consts  --      1.2656                 1.2733                 1.2248
 IR Inten    --     21.4411                 6.6338                 9.0182

                     22                     23                     24
                      A                      A                      A
 Frequencies --    994.3310              1018.1589              1047.2350
 Red. masses --      2.1374                 1.9671                 1.2300
 Frc consts  --      1.2451                 1.2015                 0.7948
 IR Inten    --      8.7945                50.9143                 1.6527

                     25                     26                     27
                      A                      A                      A
 Frequencies --   1051.7947              1063.8060              1072.0974
 Red. masses --      1.4699                 1.7201                 1.7920
 Frc consts  --      0.9581                 1.1469                 1.2135
 IR Inten    --     25.7502                 0.7178                 8.3978

                     28                     29                     30
                      A                      A                      A
 Frequencies --   1079.9468              1087.7016              1189.5403
 Red. masses --      1.4645                 1.8814                 1.2711
 Frc consts  --      1.0063                 1.3114                 1.0597
 IR Inten    --      0.6481                37.9789                 0.1140

                     31                     32                     33
                      A                      A                      A
 Frequencies --   1206.1481              1232.2356              1236.6755
 Red. masses --      2.0173                 1.3455                 1.6201
 Frc consts  --      1.7291                 1.2037                 1.4598
 IR Inten    --      2.3441                18.1607                40.5867

                     34                     35                     36
                      A                      A                      A
 Frequencies --   1290.1602              1330.9337              1336.1203
 Red. masses --      1.6862                 1.7895                 2.5884
 Frc consts  --      1.6536                 1.8677                 2.7225
 IR Inten    --      6.7799                60.1643                24.6587

                     37                     38                     39
                      A                      A                      A
 Frequencies --   1364.6731              1430.1740              1453.9266
 Red. masses --      1.7509                 1.5485                 1.0915
 Frc consts  --      1.9212                 1.8661                 1.3594
 IR Inten    --      9.4086                15.0544                 2.1823

                     40                     41                     42
                      A                      A                      A
 Frequencies --   1474.8929              1505.7356              3031.2572
 Red. masses --      1.2685                 1.6976                 1.0853
 Frc consts  --      1.6258                 2.2677                 5.8758
 IR Inten    --      4.5215                 4.5000                40.3718

                     43                     44                     45
                      A                      A                      A
 Frequencies --   3112.5253              3134.4793              3137.5952
 Red. masses --      1.0543                 1.0509                 1.0586
 Frc consts  --      6.0179                 6.0833                 6.1402
 IR Inten    --     14.8183                13.3899                 6.3039

                     46                     47                     48
                      A                      A                      A
 Frequencies --   3181.9027              3203.6176              3217.2463
 Red. masses --      1.0931                 1.1134                 1.0979
 Frc consts  --      6.5204                 6.7329                 6.6953
 IR Inten    --     19.6512                 6.0698                 8.6704

                     49                     50                     51
                      A                      A                      A
 Frequencies --   3220.4180              3234.2477              3772.3285
 Red. masses --      1.1178                 1.1157                 1.0649
 Frc consts  --      6.8305                 6.8761                 8.9284
 IR Inten    --      0.1209                10.0355                27.6030

 - Thermochemistry -
 -------------------
 Temperature   298.150 Kelvin.  Pressure   1.00000 Atm.
 Atom     1 has atomic number  8 and mass  15.99491

 Molecular mass:   126.06808 amu.
 Principal axes and moments of inertia in atomic units:
                           1         2         3
     Eigenvalues --   471.131411541.369691604.79618
           X            0.99990  -0.00160   0.01398
           Y            0.00209   0.99937  -0.03547
           Z           -0.01392   0.03549   0.99927
 This molecule is an asymmetric top.
 Rotational symmetry number  1.
 Warning -- assumption of classical behavior for rotation
           may cause significant error
 Rotational temperatures (Kelvin)      0.18384     0.05619     0.05397
 Rotational constants (GHZ):           3.83065     1.17087     1.12459
 Zero-point vibrational energy     416256.4 (Joules/Mol)
                                   99.48767 (Kcal/Mol)
 Warning -- explicit consideration of  10 degrees of freedom as
           vibrations may cause significant error
 Vibrational temperatures:    116.03   211.10   240.20   430.75   436.54
          (Kelvin)            492.48   630.47   656.96   709.27   771.11
                             1081.92  1107.70  1134.67  1183.19  1240.35
                             1300.57  1303.81  1326.74  1356.07  1386.33
                             1416.23  1430.62  1464.90  1506.74  1513.30
                             1530.58  1542.51  1553.80  1564.96  1711.48
                             1735.38  1772.91  1779.30  1856.25  1914.91
                             1922.38  1963.46  2057.70  2091.87  2122.04
                             2166.41  4361.30  4478.22  4509.81  4514.29
                             4578.04  4609.29  4628.89  4633.46  4653.36
                             5427.53

 Zero-point correction=                           0.158544 (Hartree/Particle)
 Thermal correction to Energy=                    0.166628
 Thermal correction to Enthalpy=                  0.167572
 Thermal correction to Gibbs Free Energy=         0.125955
 Sum of electronic and zero-point Energies=           -422.962317
 Sum of electronic and thermal Energies=              -422.954233
 Sum of electronic and thermal Enthalpies=            -422.953288
 Sum of electronic and thermal Free Energies=         -422.994905

                     E (Thermal)             CV                S
                      KCal/Mol        Cal/Mol-Kelvin    Cal/Mol-Kelvin
 Total                  104.560             32.058             87.589
 Electronic               0.000              0.000              0.000
 Translational            0.889              2.981             40.409
 Rotational               0.889              2.981             28.546
 Vibrational            102.783             26.097             18.635
 Vibration     1          0.600              1.962              3.875
 Vibration     2          0.617              1.906              2.714
 Vibration     3          0.624              1.883              2.470
 Vibration     4          0.692              1.675              1.420
 Vibration     5          0.695              1.667              1.398
 Vibration     6          0.721              1.591              1.201
 Vibration     7          0.798              1.387              0.832
 Vibration     8          0.815              1.346              0.776
 Vibration     9          0.849              1.266              0.676
 Vibration    10          0.891              1.171              0.574

 Optimization completed.
    -- Stationary point found.
 Normal termination of Gaussian 09 at Mon Jan 27 17:22:06 2020.
