 Gaussian 09, Revision D.01,
 Gaussian 09:  ES64L-G09RevD.01 24-Apr-2013

 -----------------------------
 # b3lyp 6-31G(2df,p) opt Freq
 -----------------------------

 -----
 titel
 -----
 Symbolic Z-matrix:
 Charge =  0 Multiplicity = 1

 SCF Done:  E(RB3LYP) =  -423.198930540     A.U. after   13 cycles
 Optimization completed.
    -- Stationary point found.
 Normal termination of Gaussian 09 at Mon Jan 27 12:48:20 2020.

 ----------------------------------------------------------------------
 #N Geom=AllCheck Guess=TCheck SCRF=Check GenChk RB3LYP/6-31G(2df,p) Fr
 eq
 ----------------------------------------------------------------------

 Structure from the checkpoint file:  "/scratch/puck/g09_f187d2fa-48a3-4bb8-91fc-dd2eedee36de/Gau-99346.chk"
 -----
 titel
 -----
 Charge =  0 Multiplicity = 1

                         Standard orientation:
 ---------------------------------------------------------------------
 Center     Atomic      Atomic             Coordinates (Angstroms)
 Number     Number       Type             X           Y           Z
 ---------------------------------------------------------------------
      1          6           0       -2.114136   -0.307310   -0.744980
      2          8           0       -2.246228    0.454028    0.428510
      3          6           0       -1.092149    0.120072    1.179154
      4          6           0        0.019241   -0.029372    0.117387
      5          6           0        1.073776   -1.122345    0.417837
      6          6           0        2.433846   -0.556393   -0.057297
      7          6           0        2.152630    0.916170   -0.231282
      8          6           0        0.857381    1.202514   -0.127527
      9          8           0       -0.743616   -0.323788   -1.079090
     10          1           0       -2.479201   -1.339036   -0.582419
     11          1           0       -2.689344    0.170489   -1.544551
     12          1           0       -0.898414    0.918237    1.898530
     13          1           0       -1.235936   -0.828060    1.722665
     14          1           0        1.105708   -1.308339    1.496902
     15          1           0        0.796834   -2.058965   -0.070300
     16          1           0        3.236824   -0.747852    0.663567
     17          1           0        2.761104   -1.002235   -1.005533
     18          1           0        2.936503    1.635705   -0.442945
     19          1           0        0.401134    2.178128   -0.251039
 ---------------------------------------------------------------------

 SCF Done:  E(RB3LYP) =  -423.198930540     A.U. after    1 cycles

 The electronic state is 1-A.
 Alpha  occ. eigenvalues --  -19.14813 -19.13677 -10.26975 -10.23927 -10.23141
 Alpha  occ. eigenvalues --  -10.18663 -10.18477 -10.18294 -10.17570  -1.08454
 Alpha  occ. eigenvalues --   -0.98901  -0.84280  -0.75145  -0.71318  -0.65825
 Alpha  occ. eigenvalues --   -0.63287  -0.57007  -0.54540  -0.50974  -0.49679
 Alpha  occ. eigenvalues --   -0.48481  -0.45247  -0.44517  -0.40418  -0.40381
 Alpha  occ. eigenvalues --   -0.38403  -0.36501  -0.35511  -0.34981  -0.33193
 Alpha  occ. eigenvalues --   -0.32305  -0.27321  -0.25637  -0.24229
 Alpha virt. eigenvalues --    0.01704   0.09497   0.10336   0.11240   0.13037
 Alpha virt. eigenvalues --    0.13219   0.14737   0.15160   0.16559   0.16798
 Alpha virt. eigenvalues --    0.17892   0.19340   0.19887   0.21267   0.22069

 Mulliken charges:
               1
     1  C    0.015811
     2  O   -0.238071
     3  C   -0.175703
     4  C    0.380384
     5  C   -0.280190
     6  C   -0.261977
     7  C   -0.075819
     8  C   -0.101406
     9  O   -0.305244
    10  H    0.079093
    11  H    0.115964
    12  H    0.121060
    13  H    0.091343
    14  H    0.102922
    15  H    0.112815
    16  H    0.105389
    17  H    0.116982
    18  H    0.096973
    19  H    0.099673
 Sum of Mulliken charges =   0.00000

 Dipole moment (field-independent basis, Debye):
    X=              1.0565    Y=             -0.5208    Z=              0.8475  Tot=              1.4511
 Quadrupole moment (field-independent basis, Debye-Ang):
   XX=            -52.4463   YY=            -51.9312   ZZ=            -53.5941
   XY=              1.7952   XZ=              1.6545   YZ=             -0.7977

  Exact polarizability:  96.315   0.230  71.106   1.711  -1.474  63.059
 Approx polarizability: 133.382  -4.329 104.094   1.424  -0.033  96.106

                      1                      2                      3
                      A                      A                      A
 Frequencies --     48.1466                76.9561               207.3614
 Red. masses --      3.3499                 2.3333                 2.9331
 Frc consts  --      0.0046                 0.0081                 0.0743
 IR Inten    --      0.6272                 0.2412                 1.4734

                      4                      5                      6
                      A                      A                      A
 Frequencies --    270.1131               300.2493               398.6775
 Red. masses --      2.4641                 2.1038                 3.1138
 Frc consts  --      0.1059                 0.1117                 0.2916
 IR Inten    --      5.0086                 3.3021                 0.9831

                      7                      8                      9
                      A                      A                      A
 Frequencies --    422.8559               494.8399               704.8116
 Red. masses --      4.3651                 2.2556                 2.0885
 Frc consts  --      0.4599                 0.3254                 0.6113
 IR Inten    --      1.4438                 4.1206                 3.4654

                     10                     11                     12
                      A                      A                      A
 Frequencies --    735.3683               754.0241               774.9201
 Red. masses --      4.9571                 3.7766                 2.9200
 Frc consts  --      1.5794                 1.2651                 1.0331
 IR Inten    --      1.1800                 0.9104                 7.0833

                     13                     14                     15
                      A                      A                      A
 Frequencies --    802.2243               839.0699               911.6009
 Red. masses --      2.2203                 2.2647                 2.0947
 Frc consts  --      0.8419                 0.9394                 1.0256
 IR Inten    --     29.1056                 0.5969                 5.9385

                     16                     17                     18
                      A                      A                      A
 Frequencies --    939.5510               969.8410               978.3842
 Red. masses --      2.6383                 1.9891                 1.6678
 Frc consts  --      1.3722                 1.1023                 0.9406
 IR Inten    --     17.5083                29.0618                32.4119

                     19                     20                     21
                      A                      A                      A
 Frequencies --    987.4526               997.4553              1044.9061
 Red. masses --      2.3584                 1.9735                 6.6811
 Frc consts  --      1.3549                 1.1568                 4.2979
 IR Inten    --     21.4599                17.6483                54.5051

                     22                     23                     24
                      A                      A                      A
 Frequencies --   1072.6178              1104.8477              1112.4728
 Red. masses --      2.0222                 1.4742                 3.2759
 Frc consts  --      1.3707                 1.0603                 2.3887
 IR Inten    --     35.8012                15.0158               131.4881

                     25                     26                     27
                      A                      A                      A
 Frequencies --   1165.8687              1171.0756              1188.0013
 Red. masses --      1.6650                 1.5815                 1.7287
 Frc consts  --      1.3334                 1.2779                 1.4375
 IR Inten    --     34.5730                40.7892                14.5368

                     28                     29                     30
                      A                      A                      A
 Frequencies --   1207.7651              1216.5527              1246.8104
 Red. masses --      1.6612                 1.5027                 1.3430
 Frc consts  --      1.4277                 1.3104                 1.2301
 IR Inten    --      9.8085                 7.0176                14.0762

                     31                     32                     33
                      A                      A                      A
 Frequencies --   1278.5094              1307.3454              1323.7545
 Red. masses --      1.2787                 1.4154                 1.6013
 Frc consts  --      1.2315                 1.4253                 1.6532
 IR Inten    --      8.1857                 1.4064                 0.9787

                     34                     35                     36
                      A                      A                      A
 Frequencies --   1359.3576              1387.0635              1428.7528
 Red. masses --      1.3062                 1.8095                 1.2637
 Frc consts  --      1.4221                 2.0512                 1.5199
 IR Inten    --      1.8165                11.3042                13.9863

                     37                     38                     39
                      A                      A                      A
 Frequencies --   1467.9207              1491.5471              1506.3286
 Red. masses --      1.0814                 1.0981                 1.0913
 Frc consts  --      1.3729                 1.4394                 1.4590
 IR Inten    --      1.0567                 2.4045                 2.8787

                     40                     41                     42
                      A                      A                      A
 Frequencies --   1545.7973              1686.9561              2922.4239
 Red. masses --      1.1051                 6.4940                 1.0710
 Frc consts  --      1.5558                10.8886                 5.3892
 IR Inten    --      5.8655                 3.1028               121.6457

                     43                     44                     45
                      A                      A                      A
 Frequencies --   2971.9659              3024.9000              3044.4058
 Red. masses --      1.0711                 1.0633                 1.0747
 Frc consts  --      5.5738                 5.7323                 5.8688
 IR Inten    --     53.6350                36.1649                12.5189

                     46                     47                     48
                      A                      A                      A
 Frequencies --   3061.1657              3072.7400              3109.3443
 Red. masses --      1.0894                 1.0930                 1.0936
 Frc consts  --      6.0149                 6.0801                 6.2296
 IR Inten    --     33.9372                55.4118                16.2523

                     49                     50                     51
                      A                      A                      A
 Frequencies --   3113.6804              3182.1520              3209.1510
 Red. masses --      1.0990                 1.0850                 1.1042
 Frc consts  --      6.2774                 6.4735                 6.6998
 IR Inten    --     16.0593                 8.2349                14.7400

 - Thermochemistry -
 -------------------
 Temperature   298.150 Kelvin.  Pressure   1.00000 Atm.
 Atom     1 has atomic number  6 and mass  12.00000

 Molecular mass:   126.06808 amu.
 Principal axes and moments of inertia in atomic units:
                           1         2         3
     Eigenvalues --   472.439521473.390391509.77571
           X            0.99999   0.00220   0.00444
           Y           -0.00139   0.98454  -0.17514
           Z           -0.00476   0.17513   0.98453
 This molecule is an asymmetric top.
 Rotational symmetry number  1.
 Warning -- assumption of classical behavior for rotation
           may cause significant error
 Rotational temperatures (Kelvin)      0.18333     0.05879     0.05737
 Rotational constants (GHZ):           3.82005     1.22489     1.19537
 Zero-point vibrational energy     422521.5 (Joules/Mol)
                                  100.98507 (Kcal/Mol)
 Warning -- explicit consideration of   8 degrees of freedom as
           vibrations may cause significant error
 Vibrational temperatures:     69.27   110.72   298.35   388.63   431.99
          (Kelvin)            573.61   608.39   711.96  1014.07  1058.03
                             1084.87  1114.94  1154.22  1207.23  1311.59
                             1351.80  1395.38  1407.67  1420.72  1435.11
                             1503.38  1543.26  1589.63  1600.60  1677.42
                             1684.91  1709.27  1737.70  1750.35  1793.88
                             1839.49  1880.98  1904.59  1955.81  1995.67
                             2055.65  2112.01  2146.00  2167.27  2224.05
                             2427.15  4204.71  4275.99  4352.15  4380.22
                             4404.33  4420.98  4473.65  4479.89  4578.40
                             4617.25

 Zero-point correction=                           0.160930 (Hartree/Particle)
 Thermal correction to Energy=                    0.168712
 Thermal correction to Enthalpy=                  0.169656
 Thermal correction to Gibbs Free Energy=         0.127798
 Sum of electronic and zero-point Energies=           -423.038001
 Sum of electronic and thermal Energies=              -423.030219
 Sum of electronic and thermal Enthalpies=            -423.029275
 Sum of electronic and thermal Free Energies=         -423.071133

                     E (Thermal)             CV                S
                      KCal/Mol        Cal/Mol-Kelvin    Cal/Mol-Kelvin
 Total                  105.868             29.570             88.098
 Electronic               0.000              0.000              0.000
 Translational            0.889              2.981             40.409
 Rotational               0.889              2.981             28.443
 Vibrational            104.091             23.609             19.246
 Vibration     1          0.595              1.978              4.892
 Vibration     2          0.599              1.965              3.967
 Vibration     3          0.641              1.829              2.067
 Vibration     4          0.674              1.728              1.595
 Vibration     5          0.693              1.673              1.416
 Vibration     6          0.765              1.473              0.968
 Vibration     7          0.785              1.421              0.882
 Vibration     8          0.850              1.261              0.671

 Optimization completed.
    -- Stationary point found.
 Normal termination of Gaussian 09 at Mon Jan 27 13:31:01 2020.
