 Gaussian 09, Revision D.01,
 Gaussian 09:  ES64L-G09RevD.01 24-Apr-2013

 -----------------------------
 # b3lyp 6-31G(2df,p) opt Freq
 -----------------------------

 -----
 titel
 -----
 Symbolic Z-matrix:
 Charge =  0 Multiplicity = 1

 SCF Done:  E(RB3LYP) =  -423.208025645     A.U. after   14 cycles
 Optimization completed.
    -- Stationary point found.
 Normal termination of Gaussian 09 at Mon Jan 27 16:21:44 2020.

 ----------------------------------------------------------------------
 #N Geom=AllCheck Guess=TCheck SCRF=Check GenChk RB3LYP/6-31G(2df,p) Fr
 eq
 ----------------------------------------------------------------------

 Structure from the checkpoint file:  "/scratch/puck/g09_056b4548-67c4-4769-9ee9-4d1eb815a707/Gau-47246.chk"
 -----
 titel
 -----
 Charge =  0 Multiplicity = 1

                         Standard orientation:
 ---------------------------------------------------------------------
 Center     Atomic      Atomic             Coordinates (Angstroms)
 Number     Number       Type             X           Y           Z
 ---------------------------------------------------------------------
      1          6           0        0.024500    1.922998   -0.895342
      2          6           0        0.311125    0.707202   -0.011377
      3          8           0       -0.170562    0.927647    1.307377
      4          6           0        1.820693    0.391330    0.158673
      5          6           0        1.881482   -1.113943    0.201832
      6          6           0        0.747840   -1.676639   -0.207679
      7          6           0       -0.274250   -0.626984   -0.595524
      8          6           0       -1.693400   -0.962265   -0.200666
      9          8           0       -2.482203   -0.199967    0.308274
     10          1           0       -1.054975    2.086125   -0.981461
     11          1           0        0.468822    2.817805   -0.449940
     12          1           0        0.432641    1.796546   -1.903802
     13          1           0       -1.135983    0.942950    1.251555
     14          1           0        2.411386    0.782747   -0.680511
     15          1           0        2.192399    0.870627    1.069436
     16          1           0        2.769578   -1.657273    0.504735
     17          1           0        0.555458   -2.740719   -0.289369
     18          1           0       -0.320816   -0.567605   -1.698996
     19          1           0       -2.004318   -2.002844   -0.446354
 ---------------------------------------------------------------------

 SCF Done:  E(RB3LYP) =  -423.208025645     A.U. after    1 cycles

 The electronic state is 1-A.
 Alpha  occ. eigenvalues --  -19.15681 -19.12058 -10.28590 -10.24236 -10.20500
 Alpha  occ. eigenvalues --  -10.19061 -10.18862 -10.18345 -10.17400  -1.06354
 Alpha  occ. eigenvalues --   -1.00903  -0.84676  -0.74417  -0.74273  -0.66947
 Alpha  occ. eigenvalues --   -0.60965  -0.56374  -0.54741  -0.50144  -0.48204
 Alpha  occ. eigenvalues --   -0.47351  -0.45187  -0.42252  -0.42054  -0.40925
 Alpha  occ. eigenvalues --   -0.39350  -0.37872  -0.36289  -0.35517  -0.35058
 Alpha  occ. eigenvalues --   -0.31532  -0.27368  -0.25942  -0.24518
 Alpha virt. eigenvalues --   -0.03547   0.01646   0.08540   0.11123   0.12003
 Alpha virt. eigenvalues --    0.13139   0.14277   0.15324   0.16079   0.17002
 Alpha virt. eigenvalues --    0.17658   0.18288   0.19047   0.20975   0.22060

 Mulliken charges:
               1
     1  C   -0.449935
     2  C    0.370206
     3  O   -0.476069
     4  C   -0.278557
     5  C   -0.066064
     6  C   -0.092636
     7  C   -0.172579
     8  C    0.164628
     9  O   -0.271245
    10  H    0.122692
    11  H    0.124892
    12  H    0.106991
    13  H    0.290822
    14  H    0.102908
    15  H    0.124886
    16  H    0.099500
    17  H    0.098832
    18  H    0.108736
    19  H    0.091993
 Sum of Mulliken charges =   0.00000

 Dipole moment (field-independent basis, Debye):
    X=              1.1653    Y=             -1.2802    Z=             -2.1305  Tot=              2.7451
 Quadrupole moment (field-independent basis, Debye-Ang):
   XX=            -55.3734   YY=            -50.4592   ZZ=            -55.0329
   XY=              1.0737   XZ=              1.5027   YZ=             -0.4585

  Exact polarizability:  87.409   2.346  81.190   3.154   2.282  60.328
 Approx polarizability: 131.402   4.256 114.386   3.754   9.255  98.173

                      1                      2                      3
                      A                      A                      A
 Frequencies --     90.0548               108.2961               215.9390
 Red. masses --      3.9072                 3.0181                 2.7439
 Frc consts  --      0.0187                 0.0209                 0.0754
 IR Inten    --      0.8963                 4.6244                 7.0046

                      4                      5                      6
                      A                      A                      A
 Frequencies --    242.4424               263.7012               299.0378
 Red. masses --      3.0629                 1.1945                 3.1569
 Frc consts  --      0.1061                 0.0489                 0.1663
 IR Inten    --      0.5663                 1.1128                 1.2101

                      7                      8                      9
                      A                      A                      A
 Frequencies --    354.2254               397.3670               439.7829
 Red. masses --      4.3003                 2.2813                 3.1974
 Frc consts  --      0.3179                 0.2122                 0.3644
 IR Inten    --      6.3586                 1.7102                 3.2367

                     10                     11                     12
                      A                      A                      A
 Frequencies --    460.2641               566.7468               606.7359
 Red. masses --      2.8719                 1.1880                 2.7896
 Frc consts  --      0.3584                 0.2248                 0.6050
 IR Inten    --      7.4637               101.7963                39.5960

                     13                     14                     15
                      A                      A                      A
 Frequencies --    677.6300               694.8254               736.6327
 Red. masses --      3.5965                 2.2029                 1.5737
 Frc consts  --      0.9730                 0.6266                 0.5031
 IR Inten    --     14.7332                 8.9911                13.6902

                     16                     17                     18
                      A                      A                      A
 Frequencies --    775.3074               883.6201               938.1914
 Red. masses --      4.7044                 2.3836                 2.1762
 Frc consts  --      1.6661                 1.0965                 1.1286
 IR Inten    --     10.9191                14.2039                25.8554

                     19                     20                     21
                      A                      A                      A
 Frequencies --    949.7549               967.5437               969.0983
 Red. masses --      1.5867                 1.4755                 1.5440
 Frc consts  --      0.8432                 0.8138                 0.8543
 IR Inten    --      4.6037                 4.3396                 7.2862

                     22                     23                     24
                      A                      A                      A
 Frequencies --    972.4993              1048.5492              1068.2404
 Red. masses --      1.8223                 2.4102                 1.9238
 Frc consts  --      1.0154                 1.5613                 1.2934
 IR Inten    --      5.6988                 6.9560                 2.6936

                     25                     26                     27
                      A                      A                      A
 Frequencies --   1100.4548              1138.1351              1148.5405
 Red. masses --      1.7652                 1.3134                 1.8447
 Frc consts  --      1.2595                 1.0024                 1.4337
 IR Inten    --      3.5345                 7.2676                33.1600

                     28                     29                     30
                      A                      A                      A
 Frequencies --   1160.3761              1227.4213              1252.6729
 Red. masses --      1.6874                 1.8465                 1.7470
 Frc consts  --      1.3386                 1.6390                 1.6151
 IR Inten    --      4.2261                28.5886                10.3064

                     31                     32                     33
                      A                      A                      A
 Frequencies --   1309.4286              1321.3733              1358.2450
 Red. masses --      1.7844                 1.6464                 1.6915
 Frc consts  --      1.8026                 1.6937                 1.8385
 IR Inten    --     30.1151                15.8435                12.9330

                     34                     35                     36
                      A                      A                      A
 Frequencies --   1403.3544              1409.9326              1428.9361
 Red. masses --      1.2757                 1.4369                 1.2197
 Frc consts  --      1.4803                 1.6829                 1.4674
 IR Inten    --      8.8277                50.7217                10.0771

                     37                     38                     39
                      A                      A                      A
 Frequencies --   1469.0911              1492.4100              1497.9691
 Red. masses --      1.0969                 1.0844                 1.0522
 Frc consts  --      1.3948                 1.4231                 1.3910
 IR Inten    --      2.9743                 7.5683                 3.0235

                     40                     41                     42
                      A                      A                      A
 Frequencies --   1688.1299              1805.7871              2878.0517
 Red. masses --      6.4773                10.3005                 1.0830
 Frc consts  --     10.8757                19.7899                 5.2853
 IR Inten    --      5.1222               149.1201               118.0719

                     43                     44                     45
                      A                      A                      A
 Frequencies --   2939.9367              3019.5377              3031.9324
 Red. masses --      1.0790                 1.0660                 1.0365
 Frc consts  --      5.4947                 5.7266                 5.6141
 IR Inten    --     21.8488                21.7994                21.8697

                     46                     47                     48
                      A                      A                      A
 Frequencies --   3083.0351              3101.4184              3113.9314
 Red. masses --      1.0942                 1.1013                 1.1017
 Frc consts  --      6.1278                 6.2412                 6.2943
 IR Inten    --      8.8784                23.9880                17.7587

                     49                     50                     51
                      A                      A                      A
 Frequencies --   3182.6365              3207.6708              3741.1466
 Red. masses --      1.0842                 1.1041                 1.0652
 Frc consts  --      6.4705                 6.6935                 8.7838
 IR Inten    --      3.7896                22.5502                78.6036

 - Thermochemistry -
 -------------------
 Temperature   298.150 Kelvin.  Pressure   1.00000 Atm.
 Atom     1 has atomic number  6 and mass  12.00000

 Molecular mass:   126.06808 amu.
 Principal axes and moments of inertia in atomic units:
                           1         2         3
     Eigenvalues --   783.956751092.243061477.81007
           X            0.99991   0.00970   0.00923
           Y           -0.00941   0.99947  -0.03121
           Z           -0.00952   0.03112   0.99947
 This molecule is an asymmetric top.
 Rotational symmetry number  1.
 Warning -- assumption of classical behavior for rotation
           may cause significant error
 Rotational temperatures (Kelvin)      0.11048     0.07930     0.05861
 Rotational constants (GHZ):           2.30209     1.65233     1.22123
 Zero-point vibrational energy     414135.5 (Joules/Mol)
                                   98.98075 (Kcal/Mol)
 Warning -- explicit consideration of  12 degrees of freedom as
           vibrations may cause significant error
 Vibrational temperatures:    129.57   155.81   310.69   348.82   379.41
          (Kelvin)            430.25   509.65   571.72   632.75   662.22
                              815.42   872.96   974.96   999.70  1059.85
                             1115.49  1271.33  1349.85  1366.48  1392.08
                             1394.31  1399.21  1508.63  1536.96  1583.31
                             1637.52  1652.49  1669.52  1765.98  1802.31
                             1883.97  1901.16  1954.21  2019.11  2028.58
                             2055.92  2113.69  2147.24  2155.24  2428.84
                             2598.12  4140.87  4229.91  4344.44  4362.27
                             4435.79  4462.24  4480.25  4579.10  4615.12
                             5382.67

 Zero-point correction=                           0.157736 (Hartree/Particle)
 Thermal correction to Energy=                    0.166434
 Thermal correction to Enthalpy=                  0.167378
 Thermal correction to Gibbs Free Energy=         0.124647
 Sum of electronic and zero-point Energies=           -423.050290
 Sum of electronic and thermal Energies=              -423.041592
 Sum of electronic and thermal Enthalpies=            -423.040648
 Sum of electronic and thermal Free Energies=         -423.083379

                     E (Thermal)             CV                S
                      KCal/Mol        Cal/Mol-Kelvin    Cal/Mol-Kelvin
 Total                  104.439             33.564             89.936
 Electronic               0.000              0.000              0.000
 Translational            0.889              2.981             40.409
 Rotational               0.889              2.981             28.628
 Vibrational            102.661             27.602             20.900
 Vibration     1          0.602              1.956              3.659
 Vibration     2          0.606              1.943              3.299
 Vibration     3          0.645              1.817              1.993
 Vibration     4          0.659              1.775              1.785
 Vibration     5          0.670              1.739              1.637
 Vibration     6          0.692              1.675              1.422
 Vibration     7          0.730              1.567              1.147
 Vibration     8          0.764              1.476              0.972
 Vibration     9          0.800              1.383              0.827
 Vibration    10          0.818              1.338              0.765
 Vibration    11          0.923              1.103              0.511
 Vibration    12          0.965              1.018              0.438

 Optimization completed.
    -- Stationary point found.
 Normal termination of Gaussian 09 at Mon Jan 27 17:05:31 2020.
