 Gaussian 09, Revision D.01,
 Gaussian 09:  ES64L-G09RevD.01 24-Apr-2013

 -----------------------------
 # b3lyp 6-31G(2df,p) opt Freq
 -----------------------------

 -----
 titel
 -----
 Symbolic Z-matrix:
 Charge =  0 Multiplicity = 1

 SCF Done:  E(RB3LYP) =  -423.174533358     A.U. after   14 cycles
 Optimization completed.
    -- Stationary point found.
 Normal termination of Gaussian 09 at Tue Jan 28 14:05:51 2020.

 ----------------------------------------------------------------------
 #N Geom=AllCheck Guess=TCheck SCRF=Check GenChk RB3LYP/6-31G(2df,p) Fr
 eq
 ----------------------------------------------------------------------

 Structure from the checkpoint file:  "/scratch/puck/g09_adcabdf2-8039-423b-b426-d8a3b8a8e34d/Gau-43833.chk"
 -----
 titel
 -----
 Charge =  0 Multiplicity = 1

                         Standard orientation:
 ---------------------------------------------------------------------
 Center     Atomic      Atomic             Coordinates (Angstroms)
 Number     Number       Type             X           Y           Z
 ---------------------------------------------------------------------
      1          6           0        2.467890   -0.011020    1.039329
      2          6           0        1.336370   -0.187306    0.067854
      3          6           0        1.230080   -1.375902   -0.883345
      4          6           0        0.091604   -1.136175    0.038762
      5          6           0       -0.803384   -0.031608   -0.545755
      6          6           0       -1.953477    0.437752    0.328784
      7          8           0       -2.925713   -0.597781    0.357605
      8          6           0        0.432670    0.903663   -0.413321
      9          8           0        0.533622    2.101190   -0.419785
     10          1           0        3.344621    0.420392    0.544342
     11          1           0        2.184960    0.661030    1.855553
     12          1           0        2.768792   -0.970110    1.472407
     13          1           0        1.110216   -1.224241   -1.953214
     14          1           0        1.904582   -2.186967   -0.625721
     15          1           0       -0.212402   -1.827589    0.813284
     16          1           0       -1.169748   -0.229671   -1.558810
     17          1           0       -1.582964    0.665573    1.341384
     18          1           0       -2.360586    1.370149   -0.088264
     19            0       -1.582964    0.665573    1.341384
     18          1           0       -2.360586    1.370149   -0.088264
     19          1           0       -3.661247   -0.302259    0.902631
 ---------------------------------------------------------------------

 SCF Done:  E(RB3LYP) =  -423.174533358     A.U. after    1 cycles

 The electronic state is 1-A.
 Alpha  occ. eigenvalues --  -19.13877 -19.12696 -10.26286 -10.23336 -10.20864
 Alpha  occ. eigenvalues --  -10.20796 -10.20379 -10.19457 -10.18735  -1.03718
 Alpha  occ. eigenvalues --   -1.01930  -0.90773  -0.76436  -0.72299  -0.66443
 Alpha  occ. eigenvalues --   -0.60629  -0.58509  -0.52225  -0.49733  -0.48376
 Alpha  occ. eigenvalues --   -0.46179  -0.45920  -0.42979  -0.41132  -0.40413
 Alpha  occ. eigenvalues --   -0.39698  -0.38682  -0.37641  -0.34793  -0.33702
 Alpha  occ. eigenvalues --   -0.30366  -0.27255  -0.26913  -0.23707
 Alpha virt. eigenvalues --   -0.00611   0.07177   0.09860   0.10172   0.10877
 Alpha virt. eigenvalues --    0.12323   0.13533   0.14900   0.15496   0.16690
 Alpha virt. eigenvalues --    0.18665   0.18721   0.19046   0.20187   0.21399

 Mulliken charges:
               1
     1  C   -0.496012
     2  C    0.220171
     3  C   -0.335964
     4  C   -0.086114
     5  C   -0.120950
     6  C   -0.092746
     7  O   -0.427472
     8  C    0.346566
     9  O   -0.331238
    10  H    0.136157
    11  H    0.131348
    12  H    0.121074
    13  H    0.119507
    14  H    0.122418
    15  H    0.112464
    16  H    0.096355
    17  H    0.088730
    18  H    0.107548
    19  H    0.288158
 Sum of Mulliken charges =   0.00000

 Dipole moment (field-independent basis, Debye):
    X=             -0.2550    Y=             -1.9170    Z=              1.1855  Tot=              2.2683
 Quadrupole moment (field-independent basis, Debye-Ang):
   XX=            -47.1768   YY=            -60.0856   ZZ=            -50.4474
   XY=             -6.0695   XZ=             -2.7341   YZ=              1.1895

  Exact polarizability:  87.885  -1.832  77.977   1.123   1.676  64.863
 Approx polarizability: 113.661   2.544 128.452   0.331   1.067  97.549

                      1                      2                      3
                      A                      A                      A
 Frequencies --     69.4528               110.1793               142.6749
 Red. masses --      4.0436                 2.8417                 4.5624
 Frc consts  --      0.0115                 0.0203                 0.0547
 IR Inten    --      0.9244                 5.4307                 6.2056

                      4                      5                      6
                      A                      A                      A
 Frequencies --    155.4848               215.2624               256.9585
 Red. masses --      1.1030                 2.5808                 1.7769
 Frc consts  --      0.0157                 0.0705                 0.0691
 IR Inten    --      1.4842                 5.3970                57.0952

                      7                      8                      9
                      A                      A                      A
 Frequencies --    270.4947               316.3149               360.5109
 Red. masses --      1.6535                 2.8674                 3.1933
 Frc consts  --      0.0713                 0.1690                 0.2445
 IR Inten    --     43.0791                 2.5543                 3.3004

                     10                     11                     12
                      A                      A                      A
 Frequencies --    469.5686               519.1454               573.7444
 Red. masses --      2.9162                 3.2889                 4.7713
 Frc consts  --      0.3788                 0.5222                 0.9254
 IR Inten    --      3.1902                 8.0762                 0.1261

                     13                     14                     15
                      A                      A                      A
 Frequencies --    708.8466               724.2110               800.8003
 Red. masses --      3.5616                 3.6922                 3.4057
 Frc consts  --      1.0544                 1.1409                 1.2868
 IR Inten    --      2.4667                13.4662                21.9663

                     16                     17                     18
                      A                      A                      A
 Frequencies --    842.2956               883.9626               942.3460
 Red. masses --      2.1687                 2.8886                 1.2931
 Frc consts  --      0.9065                 1.3298                 0.6765
 IR Inten    --      4.9177                 6.4665                 9.1383

                     19                     20                     21
                      A                      A                      A
 Frequencies --    965.8261               977.4758              1017.2214
 Red. masses --      2.4390                 1.2344                 1.7003
 Frc consts  --      1.3405                 0.6949                 1.0366
 IR Inten    --     34.1890                 8.1109                 2.4707

                     22                     23                     24
                      A                      A                      A
 Frequencies --   1057.2528              1075.4803              1085.4986
 Red. masses --      1.6116                 4.9443                 1.6387
 Frc consts  --      1.0614                 3.3695                 1.1376
 IR Inten    --      5.8577                73.3784                 0.3812

                     25                     26                     27
                      A                      A                      A
 Frequencies --   1095.5745              1111.5862              1143.8513
 Red. masses --      1.6920                 1.5313                 2.0680
 Frc consts  --      1.1966                 1.1148                 1.5942
 IR Inten    --     18.7017                 7.3832                 6.0363

                     28                     29                     30
                      A                      A                      A
 Frequencies --   1181.2820              1239.5806              1252.0838
 Red. masses --      1.4428                 1.3128                 1.4278
 Frc consts  --      1.1862                 1.1885                 1.3188
 IR Inten    --      4.8320                 2.3636                31.9533

                     31                     32                     33
                      A                      A                      A
 Frequencies --   1272.5885              1291.2592              1354.6081
 Red. masses --      1.3805                 2.9651                 1.5311
 Frc consts  --      1.3173                 2.9128                 1.6553
 IR Inten    --     42.9162                 4.1705                 3.1449

                     34                     35                     36
                      A                      A                      A
 Frequencies --   1376.1981              1416.0246              1458.2129
 Red. masses --      2.6711                 1.4157                 1.4567
 Frc consts  --      2.9806                 1.6725                 1.8250
 IR Inten    --      2.6667                 0.7556                12.0339

                     37                     38                     39
                      A                      A                      A
 Frequencies --   1481.4126              1496.0070              1499.2810
 Red. masses --      1.0459                 1.0805                 1.2001
 Frc consts  --      1.3523                 1.4247                 1.5894
 IR Inten    --      3.7329                 6.8674                 1.9194

                     40                     41                     42
                      A                      A                      A
 Frequencies --   1518.1418              1858.3470              2971.4436
 Red. masses --      1.0831                12.7139                 1.0619
 Frc consts  --      1.4707                25.8692                 5.5244
 IR Inten    --      3.2062               300.5689                41.3453

                     43                     44                     45
                      A                      A                      A
 Frequencies --   3015.5653              3033.2835              3054.3704
 Red. masses --      1.0974                 1.0350                 1.0854
 Frc consts  --      5.8799                 5.6108                 5.9661
 IR Inten    --     35.0936                28.0915                32.6924

                     46                     47                     48
                      A                      A                      A
 Frequencies --   3096.9426              3106.9329              3110.4943
 Red. masses --      1.1007                 1.0995                 1.0579
 Frc consts  --      6.2197                 6.2535                 6.0304
 IR Inten    --     15.3868                 9.6163                24.2068

                     49                     50                     51
                      A                      A                      A
 Frequencies --   3195.7245              3212.2801              3824.2212
 Red. masses --      1.1133                 1.0946                 1.0663
 Frc consts  --      6.6988                 6.6549                 9.1879
 IR Inten    --      5.4644                 4.5030                20.8942

 - Thermochemistry -
 -------------------
 Temperature   298.150 Kelvin.  Pressure   1.00000 Atm.
 Atom     1 has atomic number  6 and mass  12.00000

 Molecular mass:   126.06808 amu.
 Principal axes and moments of inertia in atomic units:
                           1         2         3
     Eigenvalues --   680.240461471.396531794.87811
           X            0.99931  -0.03599   0.00892
           Y            0.03568   0.99882   0.03282
           Z           -0.01009  -0.03248   0.99942
 This molecule is an asymmetric top.
 Rotational symmetry number  1.
 Warning -- assumption of classical behavior for rotation
           may cause significant error
 Rotational temperatures (Kelvin)      0.12733     0.05887     0.04826
 Rotational constants (GHZ):           2.65309     1.22655     1.00550
 Zero-point vibrational energy     413957.6 (Joules/Mol)
                                   98.93824 (Kcal/Mol)
 Warning -- explicit consideration of  12 degrees of freedom as
           vibrations may cause significant error
 Vibrational temperatures:     99.93   158.52   205.28   223.71   309.71
          (Kelvin)            369.71   389.18   455.11   518.69   675.60
                              746.93   825.49  1019.87  1041.98  1152.17
                             1211.87  1271.82  1355.82  1389.61  1406.37
                             1463.55  1521.15  1547.37  1561.79  1576.29
                             1599.32  1645.74  1699.60  1783.48  1801.47
                             1830.97  1857.83  1948.98  1980.04  2037.34
                             2098.04  2131.42  2152.42  2157.13  2184.26
                             2673.74  4275.24  4338.72  4364.21  4394.55
                             4455.80  4470.18  4475.30  4597.93  4621.75
                             5502.19

 Zero-point correction=                           0.157668 (Hartree/Particle)
 Thermal correction to Energy=                    0.167008
 Thermal correction to Enthalpy=                  0.167952
 Thermal correction to Gibbs Free Energy=         0.123309
 Sum of electronic and zero-point Energies=           -423.016865
 Sum of electronic and thermal Energies=              -423.007525
 Sum of electronic and thermal Enthalpies=            -423.006581
 Sum of electronic and thermal Free Energies=         -423.051225

                     E (Thermal)             CV                S
                      KCal/Mol        Cal/Mol-Kelvin    Cal/Mol-Kelvin
 Total                  104.799             34.102             93.960
 Electronic               0.000              0.000              0.000
 Translational            0.889              2.981             40.409
 Rotational               0.889              2.981             28.976
 Vibrational            103.022             28.141             24.576
 Vibration     1          0.598              1.969              4.169
 Vibration     2          0.606              1.941              3.266
 Vibration     3          0.616              1.911              2.768
 Vibration     4          0.620              1.897              2.604
 Vibration     5          0.645              1.818              1.999
 Vibration     6          0.667              1.751              1.682
 Vibration     7          0.674              1.728              1.593
 Vibration     8          0.703              1.642              1.329
 Vibration     9          0.735              1.554              1.120
 Vibration    10          0.827              1.318              0.739
 Vibration    11          0.874              1.208              0.612
 Vibration    12          0.930              1.088              0.497

 Optimization completed.
    -- Stationary point found.
 Normal termination of Gaussian 09 at Tue Jan 28 14:57:28 2020.
 Normal termination of Gaussian 09 at Tue Jan 28 14:52:05 2020.
