 Gaussian 09, Revision D.01,
 Gaussian 09:  ES64L-G09RevD.01 24-Apr-2013

 -----------------------------
 # b3lyp 6-31G(2df,p) opt Freq
 -----------------------------

 -----
 titel
 -----
 Symbolic Z-matrix:
 Charge =  0 Multiplicity = 1

 SCF Done:  E(RB3LYP) =  -423.159106387     A.U. after   14 cycles
 Optimization completed.
    -- Stationary point found.
 Normal termination of Gaussian 09 at Mon Jan 27 16:19:20 2020.

 ----------------------------------------------------------------------
 #N Geom=AllCheck Guess=TCheck SCRF=Check GenChk RB3LYP/6-31G(2df,p) Fr
 eq
 ----------------------------------------------------------------------

 Structure from the checkpoint file:  "/scratch/puck/g09_b23af543-86ed-499e-8d59-9ad55594f6a8/Gau-176855.chk"
 -----
 titel
 -----
 Charge =  0 Multiplicity = 1

                         Standard orientation:
 ---------------------------------------------------------------------
 Center     Atomic      Atomic             Coordinates (Angstroms)
 Number     Number       Type             X           Y           Z
 ---------------------------------------------------------------------
      1          6           0       -1.702994    1.611390    0.071606
      2          6           0       -1.369046    0.138622   -0.085313
      3          6           0       -2.528328   -0.661633   -0.663845
      4          8           0       -0.956239   -0.474251    1.195425
      5          6           0        0.228358   -0.958902    0.589144
      6          6           0        1.134743    0.194273    0.174246
      7          6           0        2.484410   -0.183102   -0.294150
      8          8           0        3.481239    0.475319   -0.121667
      9          6           0       -0.023255   -0.274326   -0.710733
     10          1           0       -2.551577    1.729877    0.752858
     11          1           0       -0.862281    2.178759    0.475143
     12          1           0       -1.980246    2.042837   -0.895561
     13          1           0       -3.407859   -0.565279   -0.020577
     14          1           0       -2.788845   -0.294136   -1.662277
     15          1           0       -2.269027   -1.720805   -0.739458
     16          1           0        0.586482   -1.945583    0.858587
     17          1           0        1.078287    1.128984    0.721752
     18          1           0        2.528837   -1.159478   -0.834308
     19          1           0        0.122897   -0.601643   -1.731959
 ---------------------------------------------------------------------

 SCF Done:  E(RB3LYP) =  -423.159106387     A.U. after    1 cycles

 The electronic state is 1-A.
 Alpha  occ. eigenvalues --  -19.15111 -19.13244 -10.27082 -10.26157 -10.26021
 Alpha  occ. eigenvalues --  -10.21584 -10.20831 -10.18885 -10.18679  -1.06731
 Alpha  occ. eigenvalues --   -1.04018  -0.85605  -0.79357  -0.70642  -0.67573
 Alpha  occ. eigenvalues --   -0.62906  -0.58374  -0.53685  -0.51958  -0.50416
 Alpha  occ. eigenvalues --   -0.47205  -0.44517  -0.43158  -0.42378  -0.40843
 Alpha  occ. eigenvalues --   -0.40391  -0.39402  -0.38240  -0.36708  -0.34294
 Alpha  occ. eigenvalues --   -0.32772  -0.29543  -0.25978  -0.24263
 Alpha virt. eigenvalues --   -0.02270   0.07495   0.08260   0.09956   0.11200
 Alpha virt. eigenvalues --    0.12588   0.12725   0.14487   0.15112   0.15610
 Alpha virt. eigenvalues --    0.16908   0.17342   0.18715   0.20232   0.21446

 Mulliken charges:
               1
     1  C   -0.435509
     2  C    0.394679
     3  C   -0.423708
     4  O   -0.326633
     5  C    0.095299
     6  C   -0.163427
     7  C    0.155737
     8  O   -0.270427
     9  C   -0.188397
    10  H    0.131228
    11  H    0.129648
    12  H    0.123703
    13  H    0.130304
    14  H    0.118900
    15  H    0.124803
    16  H    0.118410
    17  H    0.112470
    18  H    0.064012
    19  H    0.108909
 Sum of Mulliken charges =   0.00000

 Dipole moment (field-independent basis, Debye):
    X=             -2.9477    Y=             -0.9875    Z=             -1.5809  Tot=              3.4876
 Quadrupole moment (field-independent basis, Debye-Ang):
   XX=            -64.5543   YY=            -51.1273   ZZ=            -54.0575
   XY=             -5.3506   XZ=              2.0139   YZ=              0.8587

  Exact polarizability: 101.909   0.878  71.084   1.103   1.932  62.343
 Approx polarizability: 138.348   8.956 106.328   0.074  -0.013 102.019

                      1                      2                      3
                      A                      A                      A
 Frequencies --    101.7663               126.6979               186.5299
 Red. masses --      5.3586                 3.9294                 1.0509
 Frc consts  --      0.0327                 0.0372                 0.0215
 IR Inten    --      4.4591                 2.7212                 0.5392

                      4                      5                      6
                      A                      A                      A
 Frequencies --    228.4641               236.4427               263.4802
 Red. masses --      1.5325                 1.8877                 1.8073
 Frc consts  --      0.0471                 0.0622                 0.0739
 IR Inten    --      3.3290                 0.7268                 2.1611

                      7                      8                      9
                      A                      A                      A
 Frequencies --    292.9161               327.3122               390.0572
 Red. masses --      2.8627                 2.9298                 2.5859
 Frc consts  --      0.1447                 0.1849                 0.2318
 IR Inten    --      5.6446                 0.0337                 1.8429

                     10                     11                     12
                      A                      A                      A
 Frequencies --    435.6953               501.3867               541.1743
 Red. masses --      3.9502                 3.5677                 4.0139
 Frc consts  --      0.4418                 0.5284                 0.6926
 IR Inten    --      1.0186                 5.4451                40.5830

                     13                     14                     15
                      A                      A                      A
 Frequencies --    651.3582               811.7943               829.7257
 Red. masses --      3.8559                 2.6436                 1.6896
 Frc consts  --      0.9639                 1.0264                 0.6854
 IR Inten    --      2.5137                37.3609                 3.1646

                     16                     17                     18
                      A                      A                      A
 Frequencies --    868.1690               889.4608               936.7272
 Red. masses --      3.2378                 3.2893                 1.4572
 Frc consts  --      1.4379                 1.5332                 0.7533
 IR Inten    --      9.5686                 7.1295                 0.4156

                     19                     20                     21
                      A                      A                      A
 Frequencies --    961.7837               990.6585              1001.4159
 Red. masses --      2.1914                 2.0485                 1.4068
 Frc consts  --      1.1944                 1.1845                 0.8312
 IR Inten    --     59.7598                 2.2493                30.7000

                     22                     23                     24
                      A                      A                      A
 Frequencies --   1027.2261              1044.3874              1049.4413
 Red. masses --      1.9511                 1.2728                 1.9507
 Frc consts  --      1.2130                 0.8180                 1.2658
 IR Inten    --     44.5951                18.7679                 5.6747

                     25                     26                     27
                      A                      A                      A
 Frequencies --   1079.7605              1121.6407              1164.6307
 Red. masses --      1.9628                 2.2091                 1.8927
 Frc consts  --      1.3483                 1.6375                 1.5125
 IR Inten    --     27.2445                33.5720                11.4208

                     28                     29                     30
                      A                      A                      A
 Frequencies --   1177.7888              1204.2573              1253.2738
 Red. masses --      1.7034                 2.1855                 1.6791
 Frc consts  --      1.3922                 1.8674                 1.5539
 IR Inten    --     50.5100                14.5822                 9.1650

                     31                     32                     33
                      A                      A                      A
 Frequencies --   1261.8654              1307.6830              1367.9649
 Red. masses --      2.3898                 2.7424                 2.3427
 Frc consts  --      2.2420                 2.7630                 2.5830
 IR Inten    --     17.1357                18.2390                23.1636

                     34                     35                     36
                      A                      A                      A
 Frequencies --   1402.6437              1417.3207              1447.1269
 Red. masses --      1.3198                 1.2444                 1.3097
 Frc consts  --      1.5299                 1.4729                 1.6160
 IR Inten    --     12.9102                 7.8035                 8.5004

                     37                     38                     39
                      A                      A                      A
 Frequencies --   1473.9845              1479.1704              1496.2054
 Red. masses --      1.0480                 1.0466                 1.0769
 Frc consts  --      1.3415                 1.3492                 1.4204
 IR Inten    --      1.2666                 1.8109                 0.2179

                     40                     41                     42
                      A                      A                      A
 Frequencies --   1502.2937              1816.4375              2838.5629
 Red. masses --      1.0516                 9.9012                 1.0805
 Frc consts  --      1.3983                19.2478                 5.1295
 IR Inten    --      7.4056               292.5825               101.3975

                     43                     44                     45
                      A                      A                      A
 Frequencies --   3037.1987              3045.1485              3106.8563
 Red. masses --      1.0354                 1.0366                 1.1009
 Frc consts  --      5.6276                 5.6634                 6.2609
 IR Inten    --     13.3908                15.0660                 0.9146

                     46                     47                     48
                      A                      A                      A
 Frequencies --   3113.7259              3123.6248              3133.1343
 Red. masses --      1.1005                 1.1025                 1.1002
 Frc consts  --      6.2866                 6.3377                 6.3635
 IR Inten    --     26.5729                18.4033                18.0721

                     49                     50                     51
                      A                      A                      A
 Frequencies --   3175.6039              3180.9804              3198.8728
 Red. masses --      1.0889                 1.0897                 1.0980
 Frc consts  --      6.4700                 6.4966                 6.6199
 IR Inten    --      5.5444                14.3990                 5.5685

 - Thermochemistry -
 -------------------
 Temperature   298.150 Kelvin.  Pressure   1.00000 Atm.
 Atom     1 has atomic number  6 and mass  12.00000

 Molecular mass:   126.06808 amu.
 Principal axes and moments of inertia in atomic units:
                           1         2         3
     Eigenvalues --   459.643981877.116501982.58348
           X            0.99979  -0.01797   0.00983
           Y            0.01675   0.99349   0.11271
           Z           -0.01179  -0.11252   0.99358
 This molecule is an asymmetric top.
 Rotational symmetry number  1.
 Warning -- assumption of classical behavior for rotation
           may cause significant error
 Rotational temperatures (Kelvin)      0.18844     0.04614     0.04369
 Rotational constants (GHZ):           3.92639     0.96144     0.91030
 Zero-point vibrational energy     410449.7 (Joules/Mol)
                                   98.09983 (Kcal/Mol)
 Warning -- explicit consideration of  12 degrees of freedom as
           vibrations may cause significant error
 Vibrational temperatures:    146.42   182.29   268.37   328.71   340.19
          (Kelvin)            379.09   421.44   470.93   561.20   626.87
                              721.38   778.63   937.16  1167.99  1193.79
                             1249.10  1279.73  1347.74  1383.79  1425.33
                             1440.81  1477.95  1502.64  1509.91  1553.53
                             1613.79  1675.64  1694.57  1732.66  1803.18
                             1815.54  1881.46  1968.19  2018.09  2039.21
                             2082.09  2120.73  2128.19  2152.70  2161.46
                             2613.45  4084.05  4369.85  4381.28  4470.07
                             4479.95  4494.19  4507.88  4568.98  4576.72
                             4602.46

 Zero-point correction=                           0.156332 (Hartree/Particle)
 Thermal correction to Energy=                    0.165331
 Thermal correction to Enthalpy=                  0.166276
 Thermal correction to Gibbs Free Energy=         0.122874
 Sum of electronic and zero-point Energies=           -423.002774
 Sum of electronic and thermal Energies=              -422.993775
 Sum of electronic and thermal Enthalpies=            -422.992831
 Sum of electronic and thermal Free Energies=         -423.036233

                     E (Thermal)             CV                S
                      KCal/Mol        Cal/Mol-Kelvin    Cal/Mol-Kelvin
 Total                  103.747             33.921             91.347
 Electronic               0.000              0.000              0.000
 Translational            0.889              2.981             40.409
 Rotational               0.889              2.981             28.927
 Vibrational            101.970             27.960             22.012
 Vibration     1          0.604              1.948              3.420
 Vibration     2          0.611              1.926              2.996
 Vibration     3          0.632              1.858              2.262
 Vibration     4          0.651              1.798              1.891
 Vibration     5          0.655              1.785              1.829
 Vibration     6          0.670              1.740              1.639
 Vibration     7          0.688              1.687              1.457
 Vibration     8          0.711              1.621              1.273
 Vibration     9          0.758              1.491              1.000
 Vibration    10          0.796              1.392              0.840
 Vibration    11          0.857              1.247              0.655
 Vibration    12          0.896              1.159              0.563

 Normal termination of Gaussian 09 at Mon Jan 27 16:59:45 2020.
