 Gaussian 09, Revision D.01,
 Gaussian 09:  ES64L-G09RevD.01 24-Apr-2013

 -----------------------------
 # b3lyp 6-31G(2df,p) opt Freq
 -----------------------------

 -----
 titel
 -----
 Symbolic Z-matrix:
 Charge =  0 Multiplicity = 1

 SCF Done:  E(RB3LYP) =  -423.178987594     A.U. after   14 cycles
 Optimization completed.
    -- Stationary point found.
 Normal termination of Gaussian 09 at Tue Jan 28 01:53:14 2020.

 ----------------------------------------------------------------------
 #N Geom=AllCheck Guess=TCheck SCRF=Check GenChk RB3LYP/6-31G(2df,p) Fr
 eq
 ----------------------------------------------------------------------

 Structure from the checkpoint file:  "/scratch/puck/g09_4f2e5cb0-57fc-44fd-a87c-23d200192340/Gau-190660.chk"
 -----
 titel
 -----
 Charge =  0 Multiplicity = 1

                         Standard orientation:
 ---------------------------------------------------------------------
 Center     Atomic      Atomic             Coordinates (Angstroms)
 Number     Number       Type             X           Y           Z
 ---------------------------------------------------------------------
      1          6           0        2.562652   -1.158018   -0.395214
      2          6           0        1.857975    0.173000   -0.448627
      3          8           0        1.683202    0.871105    0.787786
      4          6           0        0.506841    0.402481    0.102043
      5          6           0       -0.374889   -0.643754    0.788293
      6          6           0       -1.838055   -0.265757    0.420583
      7          8           0       -2.485734   -1.215981   -0.425058
      8          6           0       -1.699657    1.085024   -0.247647
      9          6           0       -0.425821    1.425546   -0.443575
     10          1           0        3.641053   -1.011125   -0.273983
     11          1           0        2.206600   -1.763552    0.441270
     12          1           0        2.403693   -1.714594   -1.325476
     13          1           0        2.171886    0.819628   -1.272409
     14          1           0       -0.167587   -1.669212    0.472940
     15          1           0       -0.209194   -0.589309    1.867723
     16          1           0       -2.477594   -0.225184    1.308016
     17          1           0       -2.051103   -1.177783   -1.284682
     18          1           0       -2.567469    1.652325   -0.564479
     19          1           0       -0.064312    2.326676   -0.925880
 ---------------------------------------------------------------------

 SCF Done:  E(RB3LYP) =  -423.178987594     A.U. after    1 cycles

 The electronic state is 1-A.
 Alpha  occ. eigenvalues --  -19.14528 -19.13603 -10.24174 -10.23741 -10.23734
 Alpha  occ. eigenvalues --  -10.19258 -10.18912 -10.18547 -10.18328  -1.06588
 Alpha  occ. eigenvalues --   -1.01744  -0.83450  -0.74712  -0.71912  -0.68157
 Alpha  occ. eigenvalues --   -0.61451  -0.57205  -0.54837  -0.52253  -0.47741
 Alpha  occ. eigenvalues --   -0.45949  -0.45685  -0.42539  -0.42049  -0.40356
 Alpha  occ. eigenvalues --   -0.39034  -0.37490  -0.36352  -0.35043  -0.33323
 Alpha  occ. eigenvalues --   -0.31349  -0.27701  -0.26181  -0.24684
 Alpha virt. eigenvalues --   -0.00343   0.08554   0.09818   0.10923   0.11676
 Alpha virt. eigenvalues --    0.12006   0.14338   0.15170   0.15955   0.16652
 Alpha virt. eigenvalues --    0.17094   0.18427   0.18939   0.21068   0.22146

 Mulliken charges:
               1
     1  C   -0.421184
     2  C   -0.005981
     3  O   -0.301026
     4  C    0.402636
     5  C   -0.349428
     6  C    0.080754
     7  O   -0.430367
     8  C   -0.125401
     9  C   -0.136136
    10  H    0.131187
    11  H    0.131082
    12  H    0.120529
    13  H    0.082562
    14  H    0.111821
    15  H    0.124729
    16  H    0.095159
    17  H    0.274230
    18  H    0.106483
    19  H    0.108354
 Sum of Mulliken charges =   0.00000

 Dipole moment (field-independent basis, Debye):
    X=              0.4949    Y=             -0.0974    Z=             -1.7085  Tot=              1.7814
 Quadrupole moment (field-independent basis, Debye-Ang):
   XX=            -56.9099   YY=            -54.1151   ZZ=            -51.1497
   XY=             -5.8616   XZ=             -2.9669   YZ=             -1.6290

  Exact polarizability: 100.227  -2.171  71.831  -4.417  -3.730  62.913
 Approx polarizability: 143.621   5.443 104.007  -4.975  -1.720  99.412

                      1                      2                      3
                      A                      A                      A
 Frequencies --     38.8047               147.3267               172.0521
 Red. masses --      3.5633                 3.3692                 1.3336
 Frc consts  --      0.0032                 0.0431                 0.0233
 IR Inten    --      1.5434                 1.5390                 0.3647

                      4                      5                      6
                      A                      A                      A
 Frequencies --    203.8625               280.8294               325.9324
 Red. masses --      1.7355                 3.2260                 1.5523
 Frc consts  --      0.0425                 0.1499                 0.0972
 IR Inten    --      0.2737                 1.3798                27.8121

                      7                      8                      9
                      A                      A                      A
 Frequencies --    357.6903               398.4602               448.4374
 Red. masses --      2.0537                 2.4273                 2.9609
 Frc consts  --      0.1548                 0.2271                 0.3508
 IR Inten    --     53.3618                 7.0140                 0.5295

                     10                     11                     12
                      A                      A                      A
 Frequencies --    461.7410               534.5762               589.3879
 Red. masses --      3.0204                 4.3646                 3.2669
 Frc consts  --      0.3794                 0.7349                 0.6686
 IR Inten    --      1.5691                 5.7169                 3.6675

                     13                     14                     15
                      A                      A                      A
 Frequencies --    731.6540               778.4762               808.4475
 Red. masses --      3.6675                 3.5298                 4.9650
 Frc consts  --      1.1567                 1.2603                 1.9119
 IR Inten    --     17.2409                 2.5763                 3.3381

                     16                     17                     18
                      A                      A                      A
 Frequencies --    823.0177               851.4326               898.3283
 Red. masses --      1.4524                 2.6825                 3.1802
 Frc consts  --      0.5796                 1.1457                 1.5121
 IR Inten    --     32.0758                14.6560                 6.5989

                     19                     20                     21
                      A                      A                      A
 Frequencies --    965.2327               980.6598               987.4361
 Red. masses --      2.1146                 1.3393                 1.4575
 Frc consts  --      1.1607                 0.7589                 0.8373
 IR Inten    --     16.1509                 1.5544                 7.1403

                     22                     23                     24
                      A                      A                      A
 Frequencies --   1018.1691              1043.8129              1072.2728
 Red. masses --      2.0870                 2.3208                 2.7421
 Frc consts  --      1.2747                 1.4898                 1.8575
 IR Inten    --      5.7736                50.3349                88.9737

                     25                     26                     27
                      A                      A                      A
 Frequencies --   1121.3491              1123.0610              1158.9428
 Red. masses --      1.5433                 1.6199                 1.6801
 Frc consts  --      1.1434                 1.2038                 1.3296
 IR Inten    --     22.3557                 5.7062                 9.2233

                     28                     29                     30
                      A                      A                      A
 Frequencies --   1184.7508              1230.3936              1259.3327
 Red. masses --      1.2930                 2.0057                 1.4940
 Frc consts  --      1.0693                 1.7890                 1.3960
 IR Inten    --     13.3602                 2.4878                 2.2319

                     31                     32                     33
                      A                      A                      A
 Frequencies --   1279.4590              1320.3363              1334.2707
 Red. masses --      1.4040                 1.4699                 1.8383
 Frc consts  --      1.3541                 1.5097                 1.9283
 IR Inten    --      4.5001                 5.5243                 3.4472

                     34                     35                     36
                      A                      A                      A
 Frequencies --   1379.8790              1408.4324              1429.8821
 Red. masses --      1.4771                 1.2675                 1.2239
 Frc consts  --      1.6571                 1.4814                 1.4743
 IR Inten    --     10.2033                 4.0402                68.3075

                     37                     38                     39
                      A                      A                      A
 Frequencies --   1462.2608              1476.0281              1488.3830
 Red. masses --      1.5400                 1.1483                 1.1179
 Frc consts  --      1.9401                 1.4740                 1.4591
 IR Inten    --     10.8713                 3.0487                 5.3194

                     40                     41                     42
                      A                      A                      A
 Frequencies --   1504.6301              1674.0359              3036.8758
 Red. masses --      1.4633                 6.7006                 1.0371
 Frc consts  --      1.9518                11.0636                 5.6352
 IR Inten    --      6.4655                 0.5749                18.9876

                     43                     44                     45
                      A                      A                      A
 Frequencies --   3057.0254              3068.4187              3071.0578
 Red. masses --      1.0796                 1.0661                 1.0857
 Frc consts  --      5.9443                 5.9138                 6.0331
 IR Inten    --     22.2286                18.2917                31.5536

                     46                     47                     48
                      A                      A                      A
 Frequencies --   3098.8117              3112.4310              3130.3558
 Red. masses --      1.1005                 1.1046                 1.1002
 Frc consts  --      6.2265                 6.3045                 6.3521
 IR Inten    --     17.1128                12.6802                21.4861

                     49                     50                     51
                      A                      A                      A
 Frequencies --   3189.8429              3213.9266              3794.7823
 Red. masses --      1.0852                 1.1050                 1.0660
 Frc consts  --      6.5057                 6.7251                 9.0445
 IR Inten    --      3.6256                11.8535                10.7781

 - Thermochemistry -
 -------------------
 Temperature   298.150 Kelvin.  Pressure   1.00000 Atm.
 Atom     1 has atomic number  6 and mass  12.00000

 Molecular mass:   126.06808 amu.
 Principal axes and moments of inertia in atomic units:
                           1         2         3
     Eigenvalues --   572.801751552.234681827.28904
           X            0.99907  -0.04046  -0.01460
           Y            0.03991   0.99855  -0.03617
           Z            0.01604   0.03555   0.99924
 This molecule is an asymmetric top.
 Rotational symmetry number  1.
 Warning -- assumption of classical behavior for rotation
           may cause significant error
 Rotational temperatures (Kelvin)      0.15121     0.05580     0.04740
 Rotational constants (GHZ):           3.15073     1.16267     0.98766
 Zero-point vibrational energy     415863.8 (Joules/Mol)
                                   99.39383 (Kcal/Mol)
 Warning -- explicit consideration of  12 degrees of freedom as
           vibrations may cause significant error
 Vibrational temperatures:     55.83   211.97   247.54   293.31   404.05
          (Kelvin)            468.94   514.64   573.29   645.20   664.34
                              769.14   848.00  1052.69  1120.05  1163.17
                             1184.14  1225.02  1292.49  1388.75  1410.95
                             1420.70  1464.92  1501.81  1542.76  1613.37
                             1615.83  1667.46  1704.59  1770.26  1811.90
                             1840.85  1899.67  1919.72  1985.34  2026.42
                             2057.28  2103.86  2123.67  2141.45  2164.82
                             2408.56  4369.38  4398.37  4414.76  4418.56
                             4458.49  4478.09  4503.88  4589.47  4624.12
                             5459.84

 Zero-point correction=                           0.158394 (Hartree/Particle)
 Thermal correction to Energy=                    0.167131
 Thermal correction to Enthalpy=                  0.168075
 Thermal correction to Gibbs Free Energy=         0.124582
 Sum of electronic and zero-point Energies=           -423.020593
 Sum of electronic and thermal Energies=              -423.011857
 Sum of electronic and thermal Enthalpies=            -423.010913
 Sum of electronic and thermal Free Energies=         -423.054406

                     E (Thermal)             CV                S
                      KCal/Mol        Cal/Mol-Kelvin    Cal/Mol-Kelvin
 Total                  104.876             33.260             91.539
 Electronic               0.000              0.000              0.000
 Translational            0.889              2.981             40.409
 Rotational               0.889              2.981             28.876
 Vibrational            103.099             27.298             22.254
 Vibration     1          0.594              1.981              5.319
 Vibration     2          0.617              1.906              2.706
 Vibration     3          0.626              1.877              2.413
 Vibration     4          0.640              1.834              2.098
 Vibration     5          0.681              1.709              1.529
 Vibration     6          0.710              1.624              1.280
 Vibration     7          0.733              1.559              1.132
 Vibration     8          0.765              1.473              0.968
 Vibration     9          0.807              1.364              0.801
 Vibration    10          0.819              1.335              0.761
 Vibration    11          0.890              1.174              0.577
 Vibration    12          0.947              1.054              0.468

 Optimization completed.
    -- Stationary point found.
 Normal termination of Gaussian 09 at Tue Jan 28 02:39:56 2020.
