 Gaussian 09, Revision D.01,
 Gaussian 09:  ES64L-G09RevD.01 24-Apr-2013

 -----------------------------
 # b3lyp 6-31G(2df,p) opt Freq
 -----------------------------

 -----
 titel
 -----
 Symbolic Z-matrix:
 Charge =  0 Multiplicity = 1

 SCF Done:  E(RB3LYP) =  -423.147356706     A.U. after   12 cycles
 Optimization completed.
    -- Stationary point found.
 Normal termination of Gaussian 09 at Mon Jan 27 23:10:09 2020.

 ----------------------------------------------------------------------
 #N Geom=AllCheck Guess=TCheck SCRF=Check GenChk RB3LYP/6-31G(2df,p) Fr
 eq
 ----------------------------------------------------------------------

 Structure from the checkpoint file:  "/scratch/puck/g09_d3441d3b-aa15-4ba4-826b-b990554205aa/Gau-79866.chk"
 -----
 titel
 -----
 Charge =  0 Multiplicity = 1

                         Standard orientation:
 ---------------------------------------------------------------------
 Center     Atomic      Atomic             Coordinates (Angstroms)
 Number     Number       Type             X           Y           Z
 ---------------------------------------------------------------------
      1          8           0        0.000029    1.753714   -0.746736
      2          6           0        0.000005    1.136744    0.528786
      3          6           0       -1.243178    0.258217    0.784883
      4          6           0       -2.183078   -0.089454   -0.346412
      5          6           0       -1.156911   -1.081553    0.104746
      6          8           0       -0.000008   -1.220164   -0.692820
      7          6           0        1.156893   -1.081569    0.104752
      8          6           0        2.183068   -0.089479   -0.346404
      9          6           0        1.243170    0.258200    0.784888
     10          1           0        0.000059    1.047122   -1.403428
     11          1           0        0.000010    1.968513    1.236896
     12          1           0       -1.649646    0.311301    1.789428
     13          1           0       -3.218906   -0.297279   -0.100721
     14          1           0       -2.039100    0.406892   -1.298962
     15          1           0       -1.467227   -1.996202    0.606013
     16          1           0        1.467194   -1.996223    0.606020
     17          1           0        3.218895   -0.297306   -0.100707
     18          1           0        2.039098    0.406860   -1.298960
     19          1           0        1.649639    0.311281    1.789433
 ---------------------------------------------------------------------

 SCF Done:  E(RB3LYP) =  -423.147356706     A.U. after    1 cycles

 The electronic state is 1-A.
 Alpha  occ. eigenvalues --  -19.15661 -19.13229 -10.23915 -10.23419 -10.23418
 Alpha  occ. eigenvalues --  -10.18917 -10.18917 -10.18847 -10.18847  -1.05410
 Alpha  occ. eigenvalues --   -1.01462  -0.86086  -0.84298  -0.70731  -0.62607
 Alpha  occ. eigenvalues --   -0.59310  -0.59163  -0.55829  -0.51926  -0.51387
 Alpha  occ. eigenvalues --   -0.48158  -0.47859  -0.43040  -0.41066  -0.40948
 Alpha  occ. eigenvalues --   -0.39439  -0.36803  -0.34947  -0.33536  -0.29246
 Alpha  occ. eigenvalues --   -0.28240  -0.27564  -0.26748  -0.25557
 Alpha virt. eigenvalues --    0.07778   0.08499   0.10310   0.11558   0.12630
 Alpha virt. eigenvalues --    0.14151   0.14225   0.16220   0.16355   0.17854
 Alpha virt. eigenvalues --    0.18045   0.18847   0.20319   0.23568   0.23589

 Mulliken charges:
               1
     1  O   -0.427574
     2  C    0.066081
     3  C   -0.060898
     4  C   -0.321905
     5  C    0.097620
     6  O   -0.272550
     7  C    0.097619
     8  C   -0.321906
     9  C   -0.060894
    10  H    0.285274
    11  H    0.091416
    12  H    0.088867
    13  H    0.115549
    14  H    0.122373
    15  H    0.087070
    16  H    0.087070
    17  H    0.115549
    18  H    0.122372
    19  H    0.088867
 Sum of Mulliken charges =   0.00000

 Dipole moment (field-independent basis, Debye):
    X=              0.0000    Y=             -1.0850    Z=              1.5619  Tot=              1.9017
 Quadrupole moment (field-independent basis, Debye-Ang):
   XX=            -49.3988   YY=            -57.8741   ZZ=            -50.9546
   XY=              0.0000   XZ=             -0.0001   YZ=             -0.5631

  Exact polarizability:  86.155   0.000  68.528   0.000  -0.404  65.934
 Approx polarizability: 112.656   0.000 105.202   0.000   2.047 105.587

                      1                      2                      3
                      A                      A                      A
 Frequencies --    114.8291               252.0638               268.9170
 Red. masses --      4.1760                 3.4042                 3.1511
 Frc consts  --      0.0324                 0.1274                 0.1343
 IR Inten    --      1.9935                 7.6206                 3.3028

                      4                      5                      6
                      A                      A                      A
 Frequencies --    366.7253               400.8388               477.5751
 Red. masses --      4.0992                 3.1767                 1.4802
 Frc consts  --      0.3248                 0.3007                 0.1989
 IR Inten    --      9.9079                 3.1707                41.1514

                      7                      8                      9
                      A                      A                      A
 Frequencies --    492.8777               518.6659               568.6676
 Red. masses --      3.6341                 2.0812                 4.0459
 Frc consts  --      0.5201                 0.3299                 0.7709
 IR Inten    --      0.6822                35.0307                 2.7065

                     10                     11                     12
                      A                      A                      A
 Frequencies --    601.8436               712.5364               803.4525
 Red. masses --      2.5116                 2.0337                 1.7701
 Frc consts  --      0.5360                 0.6083                 0.6732
 IR Inten    --     32.8476                 3.4605                16.7238

                     13                     14                     15
                      A                      A                      A
 Frequencies --    806.8408               807.3278               818.0833
 Red. masses --      2.0459                 2.8754                 1.3835
 Frc consts  --      0.7847                 1.1042                 0.5455
 IR Inten    --      1.6545                 6.6837                 7.4007

                     16                     17                     18
                      A                      A                      A
 Frequencies --    865.1948               912.6040               965.4204
 Red. masses --      3.7984                 2.3644                 3.1988
 Frc consts  --      1.6752                 1.1602                 1.7566
 IR Inten    --      5.2053                 2.1766                 0.3045

                     19                     20                     21
                      A                      A                      A
 Frequencies --    979.9559              1004.0994              1027.6665
 Red. masses --      1.9777                 2.2727                 1.3685
 Frc consts  --      1.1190                 1.3500                 0.8515
 IR Inten    --     22.7494                 6.2577                 8.6326

                     22                     23                     24
                      A                      A                      A
 Frequencies --   1047.3390              1051.8110              1076.4028
 Red. masses --      1.2714                 1.7662                 2.1512
 Frc consts  --      0.8217                 1.1512                 1.4685
 IR Inten    --      5.6258                21.6640                43.5560

                     25                     26                     27
                      A                      A                      A
 Frequencies --   1080.1173              1113.5221              1116.8037
 Red. masses --      2.5884                 1.2328                 1.3650
 Frc consts  --      1.7792                 0.9006                 1.0031
 IR Inten    --      4.3559                 0.2420                20.5972

                     28                     29                     30
                      A                      A                      A
 Frequencies --   1137.3322              1160.2293              1162.0431
 Red. masses --      1.9324                 2.1968                 1.9017
 Frc consts  --      1.4727                 1.7423                 1.5130
 IR Inten    --     76.5357                55.6120                 0.0405

                     31                     32                     33
                      A                      A                      A
 Frequencies --   1209.9370              1210.9733              1279.3930
 Red. masses --      1.8717                 1.5695                 1.5307
 Frc consts  --      1.6144                 1.3561                 1.4762
 IR Inten    --     20.8226                 5.8420                11.4322

                     34                     35                     36
                      A                      A                      A
 Frequencies --   1284.7056              1326.8220              1368.4859
 Red. masses --      1.3671                 1.4393                 1.4523
 Frc consts  --      1.3294                 1.4929                 1.6024
 IR Inten    --      1.3931                25.2364                 0.0828

                     37                     38                     39
                      A                      A                      A
 Frequencies --   1375.4453              1409.8892              1443.3477
 Red. masses --      1.7063                 1.5323                 1.2084
 Frc consts  --      1.9020                 1.7945                 1.4832
 IR Inten    --     14.0626                 6.8939                46.0136

                     40                     41                     42
                      A                      A                      A
 Frequencies --   1481.8668              1492.0390              3081.2532
 Red. masses --      1.2522                 1.4083                 1.0869
 Frc consts  --      1.6201                 1.8472                 6.0798
 IR Inten    --      6.5220                 8.0613                23.9898

                     43                     44                     45
                      A                      A                      A
 Frequencies --   3117.4309              3122.1590              3139.3280
 Red. masses --      1.0872                 1.0872                 1.0562
 Frc consts  --      6.2252                 6.2440                 6.1331
 IR Inten    --      9.9760                55.1579                19.7383

                     46                     47                     48
                      A                      A                      A
 Frequencies --   3139.6659              3160.2791              3163.8069
 Red. masses --      1.0567                 1.0904                 1.0912
 Frc consts  --      6.1371                 6.4161                 6.4355
 IR Inten    --      7.3642                 7.7467                25.2375

                     49                     50                     51
                      A                      A                      A
 Frequencies --   3225.9637              3226.3229              3787.3380
 Red. masses --      1.1153                 1.1153                 1.0655
 Frc consts  --      6.8383                 6.8401                 9.0044
 IR Inten    --      6.7604                 5.3093                15.8525

 - Thermochemistry -
 -------------------
 Temperature   298.150 Kelvin.  Pressure   1.00000 Atm.
 Atom     1 has atomic number  8 and mass  15.99491

 Molecular mass:   126.06808 amu.
 Principal axes and moments of inertia in atomic units:
                           1         2         3
     Eigenvalues --   657.52491 980.822721267.13369
           X            1.00000   0.00000   0.00000
           Y            0.00000   0.99986  -0.01660
           Z            0.00000   0.01660   0.99986
 This molecule is an asymmetric top.
 Rotational symmetry number  1.
 Warning -- assumption of classical behavior for rotation
           may cause significant error
 Rotational temperatures (Kelvin)      0.13173     0.08831     0.06835
 Rotational constants (GHZ):           2.74475     1.84003     1.42427
 Zero-point vibrational energy     423228.2 (Joules/Mol)
                                  101.15398 (Kcal/Mol)
 Warning -- explicit consideration of  10 degrees of freedom as
           vibrations may cause significant error
 Vibrational temperatures:    165.21   362.66   386.91   527.64   576.72
          (Kelvin)            687.12   709.14   746.24   818.18   865.92
                             1025.18  1155.99  1160.86  1161.56  1177.04
                             1244.82  1313.03  1389.02  1409.94  1444.67
                             1478.58  1506.89  1513.32  1548.70  1554.05
                             1602.11  1606.83  1636.37  1669.31  1671.92
                             1740.83  1742.32  1840.76  1848.40  1909.00
                             1968.94  1978.96  2028.51  2076.65  2132.07
                             2146.71  4433.23  4485.28  4492.08  4516.79
                             4517.27  4546.93  4552.01  4641.44  4641.95
                             5449.13

 Zero-point correction=                           0.161199 (Hartree/Particle)
 Thermal correction to Energy=                    0.168357
 Thermal correction to Enthalpy=                  0.169302
 Thermal correction to Gibbs Free Energy=         0.130005
 Sum of electronic and zero-point Energies=           -422.986158
 Sum of electronic and thermal Energies=              -422.978999
 Sum of electronic and thermal Enthalpies=            -422.978055
 Sum of electronic and thermal Free Energies=         -423.017351

                     E (Thermal)             CV                S
                      KCal/Mol        Cal/Mol-Kelvin    Cal/Mol-Kelvin
 Total                  105.646             30.146             82.706
 Electronic               0.000              0.000              0.000
 Translational            0.889              2.981             40.409
 Rotational               0.889              2.981             28.193
 Vibrational            103.868             24.184             14.104
 Vibration     1          0.608              1.937              3.186
 Vibration     2          0.664              1.759              1.716
 Vibration     3          0.673              1.730              1.603
 Vibration     4          0.740              1.541              1.093
 Vibration     5          0.767              1.468              0.960
 Vibration     6          0.834              1.300              0.717
 Vibration     7          0.849              1.266              0.676
 Vibration     8          0.874              1.209              0.613
 Vibration     9          0.925              1.099              0.507
 Vibration    10          0.960              1.028              0.446

 Optimization completed.
    -- Stationary point found.
 Normal termination of Gaussian 09 at Mon Jan 27 23:58:08 2020.
