 Gaussian 09, Revision D.01,
 Gaussian 09:  ES64L-G09RevD.01 24-Apr-2013

 -----------------------------
 # b3lyp 6-31G(2df,p) opt Freq
 -----------------------------

 -----
 titel
 -----
 Symbolic Z-matrix:
 Charge =  0 Multiplicity = 1

 SCF Done:  E(RB3LYP) =  -423.149288248     A.U. after   13 cycles
 Optimization completed.
    -- Stationary point found.
 Normal termination of Gaussian 09 at Tue Jan 28 00:04:54 2020.

 ----------------------------------------------------------------------
 #N Geom=AllCheck Guess=TCheck SCRF=Check GenChk RB3LYP/6-31G(2df,p) Fr
 eq
 ----------------------------------------------------------------------

 Structure from the checkpoint file:  "/scratch/puck/g09_4460fa0d-c247-4e90-8e9b-84c842706fcc/Gau-2904.chk"
 -----
 titel
 -----
 Charge =  0 Multiplicity = 1

                         Standard orientation:
 ---------------------------------------------------------------------
 Center     Atomic      Atomic             Coordinates (Angstroms)
 Number     Number       Type             X           Y           Z
 ---------------------------------------------------------------------
      1          6           0       -2.829746   -0.940750    0.167371
      2          6           0       -1.520109   -0.230389    0.427524
      3          6           0       -1.025691    0.799685   -0.550047
      4          8           0       -0.175128    1.820691   -0.089839
      5          6           0        0.945614    1.226117    0.563123
      6          6           0        1.033781   -0.212124    0.051176
      7          6           0        2.035489   -1.176818    0.508006
      8          8           0        2.145857   -0.558906   -0.780863
      9          6           0       -0.330206   -0.535336   -0.479575
     10          1           0       -2.834380   -1.944292    0.606680
     11          1           0       -3.671198   -0.382536    0.591353
     12          1           0       -3.012038   -1.051159   -0.907031
     13          1           0       -1.298705   -0.047638    1.476255
     14          1           0       -1.640409    1.121827   -1.382698
     15          1           0        1.846156    1.794026    0.314020
     16          1           0        0.807013    1.246444    1.653719
     17          1           0        2.790618   -0.877523    1.235347
     18          1           0        1.802413   -2.240945    0.500584
     19          1           0       -0.410098   -1.294796   -1.248081
 ---------------------------------------------------------------------

 SCF Done:  E(RB3LYP) =  -423.149288248     A.U. after    1 cycles

 The electronic state is 1-A.
 Alpha  occ. eigenvalues --  -19.14996 -19.14440 -10.24739 -10.23572 -10.23531
 Alpha  occ. eigenvalues --  -10.23249 -10.19704 -10.19282 -10.18590  -1.07320
 Alpha  occ. eigenvalues --   -1.04324  -0.85814  -0.74418  -0.71830  -0.66306
 Alpha  occ. eigenvalues --   -0.62179  -0.58696  -0.56313  -0.51433  -0.48675
 Alpha  occ. eigenvalues --   -0.47660  -0.46328  -0.42639  -0.41638  -0.41083
 Alpha  occ. eigenvalues --   -0.39609  -0.38710  -0.36986  -0.35040  -0.33204
 Alpha  occ. eigenvalues --   -0.31238  -0.27823  -0.26602  -0.22979
 Alpha virt. eigenvalues --    0.08024   0.09108   0.10008   0.10840   0.11419
 Alpha virt. eigenvalues --    0.12671   0.14319   0.14965   0.16209   0.16477
 Alpha virt. eigenvalues --    0.17556   0.17907   0.18332   0.19722   0.21478

 Mulliken charges:
               1
     1  C   -0.418754
     2  C   -0.071680
     3  C    0.105583
     4  O   -0.263209
     5  C   -0.168891
     6  C    0.414971
     7  C   -0.252035
     8  O   -0.276617
     9  C   -0.185854
    10  H    0.121318
    11  H    0.124010
    12  H    0.118232
    13  H    0.090818
    14  H    0.104560
    15  H    0.127586
    16  H    0.102971
    17  H    0.112574
    18  H    0.114830
    19  H    0.099588
 Sum of Mulliken charges =   0.00000

 Dipole moment (field-independent basis, Debye):
    X=             -0.9774    Y=             -1.4300    Z=              1.5239  Tot=              2.3071
 Quadrupole moment (field-independent basis, Debye-Ang):
   XX=            -52.7215   YY=            -55.1093   ZZ=            -52.4060
   XY=              1.2774   XZ=              5.1524   YZ=             -0.3224

  Exact polarizability:  89.631  -0.051  72.468   3.993  -0.686  63.988
 Approx polarizability: 114.852  -3.109 106.996   1.323  -2.526 102.088

                      1                      2                      3
                      A                      A                      A
 Frequencies --    108.9277               164.5155               201.9115
 Red. masses --      3.1955                 2.8339                 1.1320
 Frc consts  --      0.0223                 0.0452                 0.0272
 IR Inten    --      1.2287                 2.9430                 0.5065

                      4                      5                      6
                      A                      A                      A
 Frequencies --    218.4201               288.3745               315.1189
 Red. masses --      2.6393                 2.7293                 2.3880
 Frc consts  --      0.0742                 0.1337                 0.1397
 IR Inten    --      0.9903                 1.9825                 2.7587

                      7                      8                      9
                      A                      A                      A
 Frequencies --    375.2815               409.0397               457.8495
 Red. masses --      3.6264                 3.7070                 3.9802
 Frc consts  --      0.3009                 0.3654                 0.4916
 IR Inten    --      6.3257                 2.5904                 2.5089

                     10                     11                     12
                      A                      A                      A
 Frequencies --    539.6745               724.9676               800.6944
 Red. masses --      3.9500                 6.4381                 4.0796
 Frc consts  --      0.6778                 1.9936                 1.5410
 IR Inten    --      3.6405                 8.9411                27.1544

                     13                     14                     15
                      A                      A                      A
 Frequencies --    814.5553               832.4386               858.4974
 Red. masses --      1.9309                 2.6817                 2.2717
 Frc consts  --      0.7548                 1.0949                 0.9865
 IR Inten    --     16.4772                 1.3774                10.6709

                     16                     17                     18
                      A                      A                      A
 Frequencies --    905.6286               923.5389               972.2776
 Red. masses --      1.5923                 1.9442                 2.7035
 Frc consts  --      0.7694                 0.9770                 1.5058
 IR Inten    --      0.5820                18.4790                22.5641

                     19                     20                     21
                      A                      A                      A
 Frequencies --    978.7787              1024.4300              1028.0195
 Red. masses --      3.1555                 1.8239                 1.6018
 Frc consts  --      1.7811                 1.1278                 0.9974
 IR Inten    --      6.2320                39.3662                 2.7727

                     22                     23                     24
                      A                      A                      A
 Frequencies --   1065.3248              1086.6959              1106.8566
 Red. masses --      1.5978                 1.7309                 3.0122
 Frc consts  --      1.0684                 1.2043                 2.1743
 IR Inten    --      3.0410                 5.5488                42.1636

                     25                     26                     27
                      A                      A                      A
 Frequencies --   1125.9837              1126.8805              1165.2075
 Red. masses --      1.3687                 1.6088                 2.3037
 Frc consts  --      1.0224                 1.2037                 1.8428
 IR Inten    --      0.9123                 0.7671                60.3341

                     28                     29                     30
                      A                      A                      A
 Frequencies --   1168.1047              1201.8421              1225.4675
 Red. masses --      1.4142                 1.6962                 1.1483
 Frc consts  --      1.1369                 1.4435                 1.0160
 IR Inten    --      0.7814                 3.0670                 4.9819

                     31                     32                     33
                      A                      A                      A
 Frequencies --   1249.5386              1276.2008              1313.6862
 Red. masses --      2.0961                 2.1656                 1.3324
 Frc consts  --      1.9283                 2.0781                 1.3548
 IR Inten    --     12.1453                 3.9340                12.2832

                     34                     35                     36
                      A                      A                      A
 Frequencies --   1349.4436              1417.7365              1429.2621
 Red. masses --      1.4670                 1.2426                 2.1452
 Frc consts  --      1.5740                 1.4716                 2.5819
 IR Inten    --      8.6481                 1.7886                 9.4497

                     37                     38                     39
                      A                      A                      A
 Frequencies --   1448.3428              1493.7395              1501.9333
 Red. masses --      2.3595                 1.0481                 1.0684
 Frc consts  --      2.9161                 1.3779                 1.4200
 IR Inten    --     17.0420                 2.9755                 5.5476

                     40                     41                     42
                      A                      A                      A
 Frequencies --   1507.2682              1537.5566              2996.9168
 Red. masses --      1.0860                 1.5091                 1.0693
 Frc consts  --      1.4537                 2.1020                 5.6587
 IR Inten    --      2.2493                 5.6057                40.6017

                     43                     44                     45
                      A                      A                      A
 Frequencies --   3027.9550              3074.5597              3091.0386
 Red. masses --      1.0349                 1.0510                 1.0952
 Frc consts  --      5.5906                 5.8533                 6.1650
 IR Inten    --     35.7153                27.9049                22.6199

                     46                     47                     48
                      A                      A                      A
 Frequencies --   3091.9800              3095.9271              3139.0487
 Red. masses --      1.1007                 1.1007                 1.0889
 Frc consts  --      6.1998                 6.2160                 6.3215
 IR Inten    --     18.9305                17.8797                16.1766

                     49                     50                     51
                      A                      A                      A
 Frequencies --   3159.1188              3177.9536              3188.3448
 Red. masses --      1.1188                 1.0897                 1.0933
 Frc consts  --      6.5788                 6.4844                 6.5481
 IR Inten    --     22.0309                12.2130                 8.8320

 - Thermochemistry -
 -------------------
 Temperature   298.150 Kelvin.  Pressure   1.00000 Atm.
 Atom     1 has atomic number  6 and mass  12.00000

 Molecular mass:   126.06808 amu.
 Principal axes and moments of inertia in atomic units:
                           1         2         3
     Eigenvalues --   612.027551333.188501677.72870
           X            0.99925   0.03351   0.01942
           Y           -0.03352   0.99944   0.00013
           Z           -0.01940  -0.00078   0.99981
 This molecule is an asymmetric top.
 Rotational symmetry number  1.
 Warning -- assumption of classical behavior for rotation
           may cause significant error
 Rotational temperatures (Kelvin)      0.14152     0.06497     0.05163
 Rotational constants (GHZ):           2.94879     1.35370     1.07571
 Zero-point vibrational energy     417394.2 (Joules/Mol)
                                   99.75960 (Kcal/Mol)
 Warning -- explicit consideration of  10 degrees of freedom as
           vibrations may cause significant error
 Vibrational temperatures:    156.72   236.70   290.51   314.26   414.91
          (Kelvin)            453.39   539.95   588.52   658.74   776.47
                             1043.07  1152.02  1171.96  1197.69  1235.18
                             1303.00  1328.76  1398.89  1408.24  1473.92
                             1479.09  1532.76  1563.51  1592.52  1620.04
                             1621.33  1676.47  1680.64  1729.18  1763.17
                             1797.81  1836.17  1890.10  1941.55  2039.80
                             2056.39  2083.84  2149.16  2160.94  2168.62
                             2212.20  4311.89  4356.55  4423.60  4447.31
                             4448.66  4454.34  4516.39  4545.26  4572.36
                             4587.31

 Zero-point correction=                           0.158977 (Hartree/Particle)
 Thermal correction to Energy=                    0.167077
 Thermal correction to Enthalpy=                  0.168021
 Thermal correction to Gibbs Free Energy=         0.126454
 Sum of electronic and zero-point Energies=           -422.990311
 Sum of electronic and thermal Energies=              -422.982211
 Sum of electronic and thermal Enthalpies=            -422.981267
 Sum of electronic and thermal Free Energies=         -423.022834

                     E (Thermal)             CV                S
                      KCal/Mol        Cal/Mol-Kelvin    Cal/Mol-Kelvin
 Total                  104.843             31.364             87.486
 Electronic               0.000              0.000              0.000
 Translational            0.889              2.981             40.409
 Rotational               0.889              2.981             28.706
 Vibrational            103.065             25.403             18.372
 Vibration     1          0.606              1.942              3.288
 Vibration     2          0.623              1.886              2.497
 Vibration     3          0.639              1.837              2.116
 Vibration     4          0.646              1.813              1.972
 Vibration     5          0.685              1.695              1.483
 Vibration     6          0.702              1.645              1.335
 Vibration     7          0.746              1.523              1.058
 Vibration     8          0.773              1.451              0.930
 Vibration     9          0.816              1.344              0.772
 Vibration    10          0.895              1.162              0.566

 Normal termination of Gaussian 09 at Tue Jan 28 00:50:41 2020.
