 Gaussian 09, Revision D.01,
 Gaussian 09:  ES64L-G09RevD.01 24-Apr-2013

 -----------------------------
 # b3lyp 6-31G(2df,p) opt Freq
 -----------------------------

 -----
 titel
 -----
 Symbolic Z-matrix:
 Charge =  0 Multiplicity = 1

 SCF Done:  E(RB3LYP) =  -423.191983016     A.U. after   14 cycles
 Optimization completed.
    -- Stationary point found.
 Normal termination of Gaussian 09 at Tue Jan 28 08:16:10 2020.

 ----------------------------------------------------------------------
 #N Geom=AllCheck Guess=TCheck SCRF=Check GenChk RB3LYP/6-31G(2df,p) Fr
 eq
 ----------------------------------------------------------------------

 Structure from the checkpoint file:  "/scratch/puck/g09_78e7d12f-1a28-4e60-94e8-17d36340f9dd/Gau-59931.chk"
 -----
 titel
 -----
 Charge =  0 Multiplicity = 1

                         Standard orientation:
 ---------------------------------------------------------------------
 Center     Atomic      Atomic             Coordinates (Angstroms)
 Number     Number       Type             X           Y           Z
 ---------------------------------------------------------------------
      1          6           0        3.902049    0.043343   -0.000270
      2          6           0        2.583541   -0.726162    0.000069
      3          6           0        1.373208    0.184911    0.000083
      4          8           0        1.396962    1.389380   -0.000051
      5          8           0        0.229856   -0.537343    0.000294
      6          6           0       -0.988566    0.222440    0.000354
      7          6           0       -2.135867   -0.789862   -0.000223
      8          6           0       -3.435314   -0.131118   -0.000161
      9          6           0       -4.493389    0.438032   -0.000106
     10          1           0        3.980370    0.685858    0.880256
     11          1           0        4.748408   -0.648911   -0.000606
     12          1           0        3.979790    0.686034   -0.880717
     13          1           0        2.502528   -1.386639   -0.871468
     14          1           0        2.502783   -1.386264    0.871918
     15          1           0       -1.024163    0.865722    0.883917
     16          1           0       -1.023833    0.866397   -0.882721
     17          1           0       -2.039865   -1.438611   -0.879084
     18          1           0       -2.040137   -1.439312    0.878150
     19          1           0       -5.434404    0.929929   -0.000065
 ---------------------------------------------------------------------

 SCF Done:  E(RB3LYP) =  -423.191983016     A.U. after    1 cycles

 The electronic state is 1-A.
 Alpha  occ. eigenvalues --  -19.18310 -19.12620 -10.30490 -10.24665 -10.21745
 Alpha  occ. eigenvalues --  -10.19985 -10.18709 -10.17940 -10.17644  -1.10198
 Alpha  occ. eigenvalues --   -1.01474  -0.81361  -0.78229  -0.73193  -0.67723
 Alpha  occ. eigenvalues --   -0.62869  -0.56760  -0.52819  -0.50387  -0.49974
 Alpha  occ. eigenvalues --   -0.46813  -0.46574  -0.44879  -0.42248  -0.41949
 Alpha  occ. eigenvalues --   -0.37957  -0.37496  -0.37276  -0.35264  -0.34753
 Alpha  occ. eigenvalues --   -0.30226  -0.27340  -0.26992  -0.26949
 Alpha virt. eigenvalues --    0.01469   0.04711   0.05408   0.09282   0.10834
 Alpha virt. eigenvalues --    0.12599   0.13026   0.14135   0.14444   0.15553
 Alpha virt. eigenvalues --    0.15790   0.16982   0.19433   0.21170   0.22076

 Mulliken charges:
               1
     1  C   -0.370489
     2  C   -0.303189
     3  C    0.444684
     4  O   -0.348984
     5  O   -0.247584
     6  C   -0.057851
     7  C   -0.356177
     8  C    0.284234
     9  C   -0.439371
    10  H    0.133276
    11  H    0.112434
    12  H    0.133285
    13  H    0.132235
    14  H    0.132238
    15  H    0.133871
    16  H    0.133897
    17  H    0.141703
    18  H    0.141704
    19  H    0.200085
 Sum of Mulliken charges =   0.00000

 Dipole moment (field-independent basis, Debye):
    X=             -0.0103    Y=             -1.7959    Z=              0.0002  Tot=              1.7960
 Quadrupole moment (field-independent basis, Debye-Ang):
   XX=            -48.0725   YY=            -56.1647   ZZ=            -52.0717
   XY=             -5.5754   XZ=              0.0000   YZ=              0.0006

  Exact polarizability: 112.416  -8.841  69.445  -0.002   0.000  55.557
 Approx polarizability: 134.735 -16.835 114.199  -0.004  -0.001  84.037

                      1                      2                      3
                      A                      A                      A
 Frequencies --     27.2723                48.2206                57.7653
 Red. masses --      2.5788                 2.7641                 2.6688
 Frc consts  --      0.0011                 0.0038                 0.0052
 IR Inten    --      0.0444                 0.1058                 0.5098

                      4                      5                      6
                      A                      A                      A
 Frequencies --     82.8858               163.1120               181.5986
 Red. masses --      4.3510                 1.8691                 4.0404
 Frc consts  --      0.0176                 0.0293                 0.0785
 IR Inten    --      0.3886                 1.4462                 0.2618

                      7                      8                      9
                      A                      A                      A
 Frequencies --    211.9512               280.2241               313.4042
 Red. masses --      1.4440                 3.8104                 6.2310
 Frc consts  --      0.0382                 0.1763                 0.3606
 IR Inten    --      2.0965                 3.9890                 8.7970

                     10                     11                     12
                      A                      A                      A
 Frequencies --    353.4177               430.0554               548.8907
 Red. masses --      3.2191                 4.9233                 5.4171
 Frc consts  --      0.2369                 0.5365                 0.9616
 IR Inten    --      5.1692                13.8751                 4.2305

                     13                     14                     15
                      A                      A                      A
 Frequencies --    579.1285               627.9751               653.9401
 Red. masses --      2.1404                 1.2068                 1.2609
 Frc consts  --      0.4230                 0.2804                 0.3177
 IR Inten    --      2.2263                44.5479                39.1896

                     16                     17                     18
                      A                      A                      A
 Frequencies --    665.1422               784.2828               810.7927
 Red. masses --      3.6930                 1.1532                 1.4107
 Frc consts  --      0.9626                 0.4179                 0.5464
 IR Inten    --      5.2596                 0.2101                 9.3898

                     19                     20                     21
                      A                      A                      A
 Frequencies --    883.2264               973.1567              1004.8779
 Red. masses --      4.6641                 3.5392                 3.3367
 Frc consts  --      2.1437                 1.9748                 1.9852
 IR Inten    --     10.8992                 4.6576                 9.8843

                     22                     23                     24
                      A                      A                      A
 Frequencies --   1028.7756              1077.4296              1084.0952
 Red. masses --      2.2205                 3.3936                 1.6092
 Frc consts  --      1.3847                 2.3211                 1.1143
 IR Inten    --     15.2693                 8.7468                 0.3966

                     25                     26                     27
                      A                      A                      A
 Frequencies --   1104.8470              1107.6124              1209.9424
 Red. masses --      2.6389                 1.7181                 3.9100
 Frc consts  --      1.8979                 1.2419                 3.3725
 IR Inten    --     32.1323                 0.4796               551.6192

                     28                     29                     30
                      A                      A                      A
 Frequencies --   1230.3173              1278.1166              1295.1153
 Red. masses --      1.1811                 1.1847                 1.0823
 Frc consts  --      1.0533                 1.1402                 1.0696
 IR Inten    --      1.7717                 0.0390                 0.3523

                     31                     32                     33
                      A                      A                      A
 Frequencies --   1307.3383              1374.2921              1413.7937
 Red. masses --      1.3923                 1.7183                 1.6233
 Frc consts  --      1.4021                 1.9121                 1.9117
 IR Inten    --      3.2164                64.1693                12.6427

                     34                     35                     36
                      A                      A                      A
 Frequencies --   1416.7382              1459.1767              1476.7372
 Red. masses --      1.2362                 1.0783                 1.0841
 Frc consts  --      1.4619                 1.3527                 1.3930
 IR Inten    --      2.8434                10.4050                 1.8419

                     37                     38                     39
                      A                      A                      A
 Frequencies --   1492.7674              1500.1996              1514.9829
 Red. masses --      1.0379                 1.0548                 1.0867
 Frc consts  --      1.3627                 1.3987                 1.4695
 IR Inten    --      5.1070                 9.7340                 5.5819

                     40                     41                     42
                      A                      A                      A
 Frequencies --   1821.8865              2244.1564              3032.8270
 Red. masses --     11.6812                 5.9177                 1.0582
 Frc consts  --     22.8445                17.5593                 5.7348
 IR Inten    --    191.5573                 1.5112                 9.2877

                     43                     44                     45
                      A                      A                      A
 Frequencies --   3041.9872              3052.8494              3063.8775
 Red. masses --      1.0610                 1.0353                 1.0566
 Frc consts  --      5.7847                 5.6849                 5.8438
 IR Inten    --     12.5791                21.6932                14.9497

                     46                     47                     48
                      A                      A                      A
 Frequencies --   3065.5978              3071.2295              3114.2367
 Red. masses --      1.1019                 1.0995                 1.1094
 Frc consts  --      6.1015                 6.1106                 6.3390
 IR Inten    --      3.0405                 5.1244                20.1750

                     49                     50                     51
                      A                      A                      A
 Frequencies --   3124.6457              3129.7661              3507.1447
 Red. masses --      1.1020                 1.1020                 1.1629
 Frc consts  --      6.3391                 6.3601                 8.4276
 IR Inten    --     21.5143                20.4034                69.2257

 - Thermochemistry -
 -------------------
 Temperature   298.150 Kelvin.  Pressure   1.00000 Atm.
 Atom     1 has atomic number  6 and mass  12.00000

 Molecular mass:   126.06808 amu.
 Principal axes and moments of inertia in atomic units:
                           1         2         3
     Eigenvalues --   252.807483147.458943355.82114
           X            0.99998  -0.00688   0.00000
           Y            0.00688   0.99998   0.00001
           Z            0.00000  -0.00001   1.00000
 This molecule is an asymmetric top.
 Rotational symmetry number  1.
 Rotational temperatures (Kelvin)      0.34261     0.02752     0.02581
 Rotational constants (GHZ):           7.13880     0.57340     0.53779
 Zero-point vibrational energy     408667.1 (Joules/Mol)
                                   97.67378 (Kcal/Mol)
 Warning -- explicit consideration of  13 degrees of freedom as
           vibrations may cause significant error
 Vibrational temperatures:     39.24    69.38    83.11   119.25   234.68
          (Kelvin)            261.28   304.95   403.18   450.92   508.49
                              618.75   789.73   833.24   903.51   940.87
                              956.99  1128.41  1166.55  1270.76  1400.15
                             1445.79  1480.18  1550.18  1559.77  1589.63
                             1593.61  1740.84  1770.15  1838.92  1863.38
                             1880.97  1977.30  2034.13  2038.37  2099.43
                             2124.69  2147.76  2158.45  2179.72  2621.29
                             3228.84  4363.56  4376.74  4392.36  4408.23
                             4410.71  4418.81  4480.69  4495.66  4503.03
                             5045.99

 Zero-point correction=                           0.155653 (Hartree/Particle)
 Thermal correction to Energy=                    0.166346
 Thermal correction to Enthalpy=                  0.167290
 Thermal correction to Gibbs Free Energy=         0.117727
 Sum of electronic and zero-point Energies=           -423.036330
 Sum of electronic and thermal Energies=              -423.025637
 Sum of electronic and thermal Enthalpies=            -423.024693
 Sum of electronic and thermal Free Energies=         -423.074256

                     E (Thermal)             CV                S
                      KCal/Mol        Cal/Mol-Kelvin    Cal/Mol-Kelvin
 Total                  104.384             36.452            104.314
 Electronic               0.000              0.000              0.000
 Translational            0.889              2.981             40.409
 Rotational               0.889              2.981             29.369
 Vibrational            102.606             30.491             34.536
 Vibration     1          0.593              1.984              6.019
 Vibration     2          0.595              1.978              4.889
 Vibration     3          0.596              1.974              4.532
 Vibration     4          0.600              1.961              3.821
 Vibration     5          0.623              1.888              2.513
 Vibration     6          0.630              1.865              2.312
 Vibration     7          0.643              1.823              2.027
 Vibration     8          0.680              1.710              1.532
 Vibration     9          0.701              1.648              1.344
 Vibration    10          0.730              1.568              1.151
 Vibration    11          0.791              1.405              0.858
 Vibration    12          0.904              1.142              0.546
 Vibration    13          0.936              1.076              0.487

 Optimization completed.
    -- Stationary point found.
 Normal termination of Gaussian 09 at Tue Jan 28 09:34:57 2020.
