 Gaussian 09, Revision D.01,
 Gaussian 09:  ES64L-G09RevD.01 24-Apr-2013

 -----------------------------
 # b3lyp 6-31G(2df,p) opt Freq
 -----------------------------

 -----
 titel
 -----
 Symbolic Z-matrix:
 Charge =  0 Multiplicity = 1

 SCF Done:  E(RB3LYP) =  -423.182506602     A.U. after   14 cycles
 Optimization completed.
    -- Stationary point found.
 Normal termination of Gaussian 09 at Mon Jan 27 14:14:48 2020.

 ----------------------------------------------------------------------
 #N Geom=AllCheck Guess=TCheck SCRF=Check GenChk RB3LYP/6-31G(2df,p) Fr
 eq
 ----------------------------------------------------------------------

 Structure from the checkpoint file:  "/scratch/puck/g09_c1123158-dfd2-46d8-8375-fc4b26bae79e/Gau-5093.chk"
 -----
 titel
 -----
 Charge =  0 Multiplicity = 1

                         Standard orientation:
 ---------------------------------------------------------------------
 Center     Atomic      Atomic             Coordinates (Angstroms)
 Number     Number       Type             X           Y           Z
 ---------------------------------------------------------------------
      1          6           0       -2.740026   -0.909712   -0.475339
      2          6           0       -1.584750   -0.087393    0.053902
      3          8           0       -1.780025    0.942488    0.688805
      4          6           0       -0.221305   -0.572060   -0.247440
      5          6           0        0.795201   -0.485512    0.909519
      6          6           0        2.105921   -1.119726    0.433383
      7          6           0        2.183540   -0.053870   -0.713878
      8          6           0        0.864873    0.521416   -0.213096
      9          8           0        0.585170    1.854127   -0.285661
     10          1           0       -2.681746   -0.978400   -1.567744
     11          1           0       -2.686743   -1.933975   -0.089858
     12          1           0       -3.686396   -0.451908   -0.185862
     13          1           0       -0.152301   -1.412781   -0.935637
     14          1           0        0.439171   -0.388149    1.927838
     15          1           0        2.915661   -1.007740    1.157119
     16          1           0        2.049625   -2.168844    0.125972
     17          1           0        3.005907    0.649169   -0.566764
     18          1           0        2.201163   -0.414585   -1.746253
     19          1           0       -0.266235    1.975436    0.173731
 ---------------------------------------------------------------------

 SCF Done:  E(RB3LYP) =  -423.182506602     A.U. after    1 cycles

 The electronic state is 1-A.
 Alpha  occ. eigenvalues --  -19.13827 -19.13374 -10.27686 -10.25220 -10.20027
 Alpha  occ. eigenvalues --  -10.19832 -10.19504 -10.19306 -10.19007  -1.04949
 Alpha  occ. eigenvalues --   -1.02576  -0.89402  -0.76742  -0.73152  -0.65969
 Alpha  occ. eigenvalues --   -0.62636  -0.55546  -0.54344  -0.50132  -0.49492
 Alpha  occ. eigenvalues --   -0.47054  -0.44711  -0.43046  -0.42424  -0.40025
 Alpha  occ. eigenvalues --   -0.39023  -0.38229  -0.36514  -0.34899  -0.34637
 Alpha  occ. eigenvalues --   -0.33835  -0.28081  -0.25662  -0.23088
 Alpha virt. eigenvalues --   -0.02198   0.09373   0.10191   0.11509   0.12121
 Alpha virt. eigenvalues --    0.12768   0.13351   0.14361   0.15865   0.16307
 Alpha virt. eigenvalues --    0.17255   0.19767   0.20665   0.21082   0.23325

 Mulliken charges:
               1
     1  C   -0.484668
     2  C    0.391731
     3  O   -0.367087
     4  C   -0.224929
     5  C   -0.133080
     6  C   -0.241425
     7  C   -0.290694
     8  C    0.452220
     9  O   -0.459433
    10  H    0.145398
    11  H    0.143241
    12  H    0.143263
    13  H    0.078994
    14  H    0.104707
    15  H    0.114405
    16  H    0.100003
    17  H    0.121884
    18  H    0.101842
    19  H    0.303629
 Sum of Mulliken charges =   0.00000

 Dipole moment (field-independent basis, Debye):
    X=              0.0919    Y=             -2.8774    Z=             -0.5305  Tot=              2.9274
 Quadrupole moment (field-independent basis, Debye-Ang):
   XX=            -50.8522   YY=            -56.0101   ZZ=            -52.7477
   XY=              1.5606   XZ=              2.9756   YZ=              0.6414

  Exact polarizability:  96.249   0.013  73.282   0.589   2.397  64.672
 Approx polarizability: 123.324  -1.382 117.911  -1.631   5.891 102.682

                      1                      2                      3
                      A                      A                      A
 Frequencies --     78.9366               128.5405               163.4154
 Red. masses --      3.7508                 1.0695                 3.6639
 Frc consts  --      0.0138                 0.0104                 0.0576
 IR Inten    --      3.3175                 0.4869                 1.0957

                      4                      5                      6
                      A                      A                      A
 Frequencies --    202.2543               242.7488               322.6135
 Red. masses --      4.1390                 2.0627                 4.4816
 Frc consts  --      0.0998                 0.0716                 0.2748
 IR Inten    --      3.3198                 0.8925                 3.8845

                      7                      8                      9
                      A                      A                      A
 Frequencies --    357.9245               407.0608               451.8057
 Red. masses --      3.1956                 3.5441                 2.8259
 Frc consts  --      0.2412                 0.3460                 0.3399
 IR Inten    --      0.5856                12.6463                 1.7999

                     10                     11                     12
                      A                      A                      A
 Frequencies --    578.1419               611.4763               621.0953
 Red. masses --      2.3758                 3.7933                 1.2592
 Frc consts  --      0.4679                 0.8357                 0.2862
 IR Inten    --     15.5499                14.0159                84.1096

                     13                     14                     15
                      A                      A                      A
 Frequencies --    665.5303               707.0137               788.1339
 Red. masses --      3.3870                 3.5002                 1.3057
 Frc consts  --      0.8839                 1.0309                 0.4778
 IR Inten    --      8.7529                 7.6715                 0.9398

                     16                     17                     18
                      A                      A                      A
 Frequencies --    839.0898               905.4588               934.1021
 Red. masses --      3.3323                 2.5558                 2.2008
 Frc consts  --      1.3823                 1.2346                 1.1314
 IR Inten    --     43.7224                 3.1859                 4.1322

                     19                     20                     21
                      A                      A                      A
 Frequencies --    955.1725               959.6014               985.5147
 Red. masses --      2.5226                 2.0629                 1.7436
 Frc consts  --      1.3560                 1.1192                 0.9978
 IR Inten    --     33.5764                 2.6392                23.9792

                     22                     23                     24
                      A                      A                      A
 Frequencies --   1010.6251              1031.0119              1061.5866
 Red. masses --      1.4273                 1.8019                 2.0164
 Frc consts  --      0.8589                 1.1285                 1.3389
 IR Inten    --      7.7932                 4.0181                 4.8544

                     25                     26                     27
                      A                      A                      A
 Frequencies --   1085.4133              1115.8842              1155.5580
 Red. masses --      1.8773                 1.4325                 1.7651
 Frc consts  --      1.3031                 1.0509                 1.3887
 IR Inten    --      9.7585                 5.5188                43.7506

                     28                     29                     30
                      A                      A                      A
 Frequencies --   1197.3755              1210.3480              1218.3446
 Red. masses --      1.6618                 1.2453                 1.5545
 Frc consts  --      1.4038                 1.0748                 1.3595
 IR Inten    --     81.4355                 9.8991                 2.1677

                     31                     32                     33
                      A                      A                      A
 Frequencies --   1251.8578              1272.2864              1362.5572
 Red. masses --      1.6957                 1.4862                 1.5137
 Frc consts  --      1.5657                 1.4174                 1.6558
 IR Inten    --     31.0595                19.7062                75.8150

                     34                     35                     36
                      A                      A                      A
 Frequencies --   1389.6580              1400.6068              1450.1115
 Red. masses --      1.6491                 4.1702                 1.7370
 Frc consts  --      1.8763                 4.8199                 2.1521
 IR Inten    --     73.0469               130.8081               129.9470

                     37                     38                     39
                      A                      A                      A
 Frequencies --   1462.1454              1474.7628              1479.5623
 Red. masses --      1.0595                 1.0547                 1.0876
 Frc consts  --      1.3345                 1.3516                 1.4028
 IR Inten    --     11.4112                10.6538                 0.3556

                     40                     41                     42
                      A                      A                      A
 Frequencies --   1504.3954              1740.3028              3036.2194
 Red. masses --      1.1974                 8.8498                 1.0370
 Frc consts  --      1.5966                15.7918                 5.6327
 IR Inten    --      4.3726               138.7465                 1.5305

                     43                     44                     45
                      A                      A                      A
 Frequencies --   3049.1939              3061.5574              3096.7355
 Red. masses --      1.0614                 1.0616                 1.0981
 Frc consts  --      5.8144                 5.8625                 6.2047
 IR Inten    --     45.9327                45.7881                 6.0071

                     46                     47                     48
                      A                      A                      A
 Frequencies --   3106.7184              3114.4711              3125.1894
 Red. masses --      1.1046                 1.0890                 1.1045
 Frc consts  --      6.2812                 6.2237                 6.3555
 IR Inten    --      2.5596                14.6056                30.5899

                     49                     50                     51
                      A                      A                      A
 Frequencies --   3154.2592              3191.3802              3607.8260
 Red. masses --      1.1019                 1.0929                 1.0644
 Frc consts  --      6.4591                 6.5585                 8.1633
 IR Inten    --     10.3193                 7.2446               122.2969

 - Thermochemistry -
 -------------------
 Temperature   298.150 Kelvin.  Pressure   1.00000 Atm.
 Atom     1 has atomic number  6 and mass  12.00000

 Molecular mass:   126.06808 amu.
 Principal axes and moments of inertia in atomic units:
                           1         2         3
     Eigenvalues --   587.352741436.939101716.87620
           X            0.99986   0.01047   0.01315
           Y           -0.01076   0.99970   0.02205
           Z           -0.01292  -0.02218   0.99967
 This molecule is an asymmetric top.
 Rotational symmetry number  1.
 Warning -- assumption of classical behavior for rotation
           may cause significant error
 Rotational temperatures (Kelvin)      0.14746     0.06028     0.05045
 Rotational constants (GHZ):           3.07267     1.25596     1.05118
 Zero-point vibrational energy     414647.1 (Joules/Mol)
                                   99.10302 (Kcal/Mol)
 Warning -- explicit consideration of  11 degrees of freedom as
           vibrations may cause significant error
 Vibrational temperatures:    113.57   184.94   235.12   291.00   349.26
          (Kelvin)            464.17   514.97   585.67   650.05   831.82
                              879.78   893.62   957.55  1017.23  1133.95
                             1207.26  1302.75  1343.96  1374.28  1380.65
                             1417.93  1454.06  1483.39  1527.38  1561.67
                             1605.51  1662.59  1722.75  1741.42  1752.92
                             1801.14  1830.53  1960.41  1999.41  2015.16
                             2086.38  2103.70  2121.85  2128.76  2164.49
                             2503.90  4368.44  4387.10  4404.89  4455.51
                             4469.87  4481.02  4496.44  4538.27  4591.68
                             5190.85

 Zero-point correction=                           0.157931 (Hartree/Particle)
 Thermal correction to Energy=                    0.166587
 Thermal correction to Enthalpy=                  0.167532
 Thermal correction to Gibbs Free Energy=         0.124626
 Sum of electronic and zero-point Energies=           -423.024576
 Sum of electronic and thermal Energies=              -423.015919
 Sum of electronic and thermal Enthalpies=            -423.014975
 Sum of electronic and thermal Free Energies=         -423.057881

                     E (Thermal)             CV                S
                      KCal/Mol        Cal/Mol-Kelvin    Cal/Mol-Kelvin
 Total                  104.535             33.120             90.303
 Electronic               0.000              0.000              0.000
 Translational            0.889              2.981             40.409
 Rotational               0.889              2.981             28.762
 Vibrational            102.758             27.158             21.132
 Vibration     1          0.600              1.963              3.917
 Vibration     2          0.611              1.925              2.968
 Vibration     3          0.623              1.887              2.510
 Vibration     4          0.639              1.837              2.112
 Vibration     5          0.659              1.775              1.783
 Vibration     6          0.708              1.630              1.297
 Vibration     7          0.733              1.559              1.131
 Vibration     8          0.772              1.455              0.937
 Vibration     9          0.810              1.357              0.790
 Vibration    10          0.935              1.079              0.489
 Vibration    11          0.971              1.008              0.430

 Optimization completed.
    -- Stationary point found.
 Normal termination of Gaussian 09 at Mon Jan 27 16:05:08 2020.
