 Gaussian 09, Revision D.01,
 Gaussian 09:  ES64L-G09RevD.01 24-Apr-2013

 -----------------------------
 # b3lyp 6-31G(2df,p) opt Freq
 -----------------------------

 -----
 titel
 -----
 Symbolic Z-matrix:
 Charge =  0 Multiplicity = 1

 SCF Done:  E(RB3LYP) =  -423.130252014     A.U. after   14 cycles
 SCF Done:  E(RB3LYP) =  -423.130252076     A.U. after    7 cycles
 SCF Done:  E(RB3LYP) =  -423.130252401     A.U. after    8 cycles
 SCF Done:  E(RB3LYP) =  -423.130252568     A.U. after    9 cycles
 SCF Done:  E(RB3LYP) =  -423.130252472     A.U. after    9 cycles
 SCF Done:  E(RB3LYP) =  -423.130252708     A.U. after    9 cycles
 SCF Done:  E(RB3LYP) =  -423.130252810     A.U. after   10 cycles
 SCF Done:  E(RB3LYP) =  -423.130252747     A.U. after    9 cycles
 SCF Done:  E(RB3LYP) =  -423.130252524     A.U. after   10 cycles
 SCF Done:  E(RB3LYP) =  -423.130252212     A.U. after    9 cycles
 SCF Done:  E(RB3LYP) =  -423.130251609     A.U. after    9 cycles
 SCF Done:  E(RB3LYP) =  -423.130252722     A.U. after    9 cycles
 SCF Done:  E(RB3LYP) =  -423.130251626     A.U. after   11 cycles
 SCF Done:  E(RB3LYP) =  -423.130251665     A.U. after    7 cycles
 SCF Done:  E(RB3LYP) =  -423.130251640     A.U. after    7 cycles
 SCF Done:  E(RB3LYP) =  -423.130251646     A.U. after    7 cycles
 SCF Done:  E(RB3LYP) =  -423.130251272     A.U. after   10 cycles
 SCF Done:  E(RB3LYP) =  -423.130251224     A.U. after    7 cycles
 SCF Done:  E(RB3LYP) =  -423.130251285     A.U. after    7 cycles
 Optimization completed on the basis of negligible forces.
    -- Stationary point found.
 Normal termination of Gaussian 09 at Tue Jan 28 09:25:13 2020.

 ----------------------------------------------------------------------
 #N Geom=AllCheck Guess=TCheck SCRF=Check GenChk RB3LYP/6-31G(2df,p) Fr
 eq
 ----------------------------------------------------------------------

 Structure from the checkpoint file:  "/scratch/puck/g09_6c8c779c-82f6-45af-bf0a-e50b12e456df/Gau-101895.chk"
 -----
 titel
 -----
 Charge =  0 Multiplicity = 1

                         Standard orientation:
 ---------------------------------------------------------------------
 Center     Atomic      Atomic             Coordinates (Angstroms)
 Number     Number       Type             X           Y           Z
 ---------------------------------------------------------------------
      1          6           0       -3.815330    0.417327    0.142337
      2          6           0       -2.842658   -0.736714   -0.161779
      3          6           0       -1.440264   -0.352749   -0.049481
      4          6           0       -0.287538   -0.013142    0.036977
      5          6           0        1.099544    0.353195    0.174914
      6          6           0        2.047224   -0.725488    0.674621
      7          8           0        2.156011   -1.790200   -0.245233
      8          6           0        1.481173    1.773057    0.316008
      9          8           0        1.667923    1.108550   -0.928240
     10          1           0       -3.656868    1.250642   -0.547410
     11          1           0       -4.850542    0.078348    0.041849
     12          1           0       -3.671690    0.789376    1.160373
     13          1           0       -3.040339   -1.575354    0.517965
     14          1           0       -3.029911   -1.119881   -1.173082
     15          1           0        3.024115   -0.260771    0.877864
     16          1           0        1.669694   -1.155208    1.607524
     17          1           0        2.423179   -1.403932   -1.087358
     18          1           0        0.696374    2.526725    0.331632
     19          1           0        2.391620    2.030351    0.856850
 ---------------------------------------------------------------------

 SCF Done:  E(RB3LYP) =  -423.130251285     A.U. after    1 cycles

 The electronic state is 1-A.
 Alpha  occ. eigenvalues --  -19.15965 -19.13604 -10.26155 -10.24309 -10.23473
 Alpha  occ. eigenvalues --  -10.21050 -10.18535 -10.18083 -10.17253  -1.07910
 Alpha  occ. eigenvalues --   -1.01807  -0.80031  -0.75986  -0.71137  -0.66558
 Alpha  occ. eigenvalues --   -0.64975  -0.61316  -0.54205  -0.50027  -0.47475
 Alpha  occ. eigenvalues --   -0.46917  -0.45860  -0.44449  -0.41827  -0.39991
 Alpha  occ. eigenvalues --   -0.39672  -0.37341  -0.36586  -0.34863  -0.32939
 Alpha  occ. eigenvalues --   -0.28939  -0.27098  -0.25667  -0.24786
 Alpha virt. eigenvalues --    0.02803   0.04447   0.09047   0.10135   0.10393
 Alpha virt. eigenvalues --    0.12458   0.14080   0.14549   0.15104   0.15220
 Alpha virt. eigenvalues --    0.16852   0.17383   0.19120   0.19890   0.20883

 Mulliken charges:
               1
     1  C   -0.366248
     2  C   -0.321326
     3  C    0.160588
     4  C    0.020751
     5  C    0.130941
     6  C   -0.123248
     7  O   -0.408884
     8  C   -0.205046
     9  O   -0.271112
    10  H    0.130368
    11  H    0.116886
    12  H    0.127829
    13  H    0.134097
    14  H    0.135821
    15  H    0.089677
    16  H    0.117656
    17  H    0.294544
    18  H    0.122152
    19  H    0.114554
 Sum of Mulliken charges =   0.00000

 Dipole moment (field-independent basis, Debye):
    X=             -1.0670    Y=              1.1235    Z=              1.1548  Tot=              1.9324
 Quadrupole moment (field-independent basis, Debye-Ang):
   XX=            -46.1355   YY=            -55.1534   ZZ=            -52.3729
   XY=              3.8375   XZ=              1.9803   YZ=              2.6313

  Exact polarizability: 110.563   9.862  75.634   3.088   2.249  60.181
 Approx polarizability: 148.784  21.339 108.440   1.598   2.258  94.167

                      1                      2                      3
                      A                      A                      A
 Frequencies --     10.1915                59.5776                84.7209
 Red. masses --      2.3390                 4.4895                 3.2401
 Frc consts  --      0.0001                 0.0094                 0.0137
 IR Inten    --      0.1182                 3.1965                 1.5657

                      4                      5                      6
                      A                      A                      A
 Frequencies --    113.1312               166.0096               224.1562
 Red. masses --      2.9298                 3.9340                 1.3125
 Frc consts  --      0.0221                 0.0639                 0.0389
 IR Inten    --      2.2608                 1.8134                 0.2722

                      7                      8                      9
                      A                      A                      A
 Frequencies --    259.8638               322.8518               345.1921
 Red. masses --      3.3563                 2.2205                 2.9130
 Frc consts  --      0.1335                 0.1364                 0.2045
 IR Inten    --      4.3969                15.8871                 3.7843

                     10                     11                     12
                      A                      A                      A
 Frequencies --    418.9080               422.6435               477.3961
 Red. masses --      1.4814                 2.7979                 4.0720
 Frc consts  --      0.1532                 0.2945                 0.5468
 IR Inten    --     90.8911                11.0692                14.6528

                     13                     14                     15
                      A                      A                      A
 Frequencies --    551.7913               584.3781               656.1750
 Red. masses --      6.1711                 4.6147                 3.9612
 Frc consts  --      1.1070                 0.9285                 1.0049
 IR Inten    --      9.1078                 4.5785                25.2753

                     16                     17                     18
                      A                      A                      A
 Frequencies --    775.6996               783.4627               891.9724
 Red. masses --      4.1399                 1.1878                 2.2330
 Frc consts  --      1.4677                 0.4296                 1.0467
 IR Inten    --     20.4828                 1.4030                 6.0220

                     19                     20                     21
                      A                      A                      A
 Frequencies --    923.6307               967.0197               988.2716
 Red. masses --      2.1025                 3.4069                 1.8481
 Frc consts  --      1.0568                 1.8771                 1.0635
 IR Inten    --      7.3710                12.3467                48.6762

                     22                     23                     24
                      A                      A                      A
 Frequencies --   1058.6196              1085.3079              1092.5617
 Red. masses --      2.7593                 4.9005                 1.7753
 Frc consts  --      1.8219                 3.4009                 1.2485
 IR Inten    --      5.8000                75.3656                 3.6791

                     25                     26                     27
                      A                      A                      A
 Frequencies --   1103.3910              1131.1649              1171.6462
 Red. masses --      1.4822                 1.2565                 1.3477
 Frc consts  --      1.0632                 0.9472                 1.0900
 IR Inten    --      0.3169                 3.3937                 0.6610

                     28                     29                     30
                      A                      A                      A
 Frequencies --   1211.4150              1284.7647              1288.8253
 Red. masses --      1.2084                 1.1785                 3.0344
 Frc consts  --      1.0448                 1.1461                 2.9697
 IR Inten    --     12.5969                 0.8868                14.6574

                     31                     32                     33
                      A                      A                      A
 Frequencies --   1340.9758              1355.3212              1407.5060
 Red. masses --      1.6957                 1.7861                 1.5419
 Frc consts  --      1.7965                 1.9330                 1.7997
 IR Inten    --      5.8902                40.9358                15.7699

                     34                     35                     36
                      A                      A                      A
 Frequencies --   1409.5026              1427.4178              1472.0907
 Red. masses --      1.2847                 1.3030                 1.0735
 Frc consts  --      1.5038                 1.5642                 1.3707
 IR Inten    --      9.0563                57.3233                 2.7087

                     37                     38                     39
                      A                      A                      A
 Frequencies --   1488.3748              1495.1194              1505.3212
 Red. masses --      1.0860                 1.0397                 1.0568
 Frc consts  --      1.4174                 1.3693                 1.4109
 IR Inten    --      1.2697                 4.8642                 1.1306

                     40                     41                     42
                      A                      A                      A
 Frequencies --   1519.6446              2364.2039              2988.9588
 Red. masses --      1.2324                11.9255                 1.0688
 Frc consts  --      1.6768                39.2733                 5.6257
 IR Inten    --      1.7375                15.4309                54.2312

                     43                     44                     45
                      A                      A                      A
 Frequencies --   3022.6217              3045.4011              3050.4819
 Red. masses --      1.0589                 1.0342                 1.1009
 Frc consts  --      5.7000                 5.6515                 6.0357
 IR Inten    --     21.0976                28.3717                 7.1603

                     46                     47                     48
                      A                      A                      A
 Frequencies --   3081.9029              3087.5610              3119.1678
 Red. masses --      1.0509                 1.0941                 1.1022
 Frc consts  --      5.8812                 6.1451                 6.3182
 IR Inten    --     28.7271                22.2156                29.1814

                     49                     50                     51
                      A                      A                      A
 Frequencies --   3124.5267              3175.4493              3798.6247
 Red. masses --      1.1030                 1.1190                 1.0658
 Frc consts  --      6.3442                 6.6481                 9.0612
 IR Inten    --     23.8376                20.1328                23.8877

 - Thermochemistry -
 -------------------
 Temperature   298.150 Kelvin.  Pressure   1.00000 Atm.
 Atom     1 has atomic number  6 and mass  12.00000

 Molecular mass:   126.06808 amu.
 Principal axes and moments of inertia in atomic units:
                           1         2         3
     Eigenvalues --   633.992182255.295022668.13254
           X            0.99997   0.00140   0.00757
           Y           -0.00158   0.99971   0.02384
           Z           -0.00753  -0.02385   0.99969
 This molecule is an asymmetric top.
 Rotational symmetry number  1.
 Warning -- assumption of classical behavior for rotation
           may cause significant error
 Rotational temperatures (Kelvin)      0.13662     0.03840     0.03246
 Rotational constants (GHZ):           2.84663     0.80022     0.67641
 Zero-point vibrational energy     411126.1 (Joules/Mol)
                                   98.26149 (Kcal/Mol)
 Warning -- explicit consideration of  14 degrees of freedom as
           vibrations may cause significant error
 Vibrational temperatures:     14.66    85.72   121.89   162.77   238.85
          (Kelvin)            322.51   373.89   464.51   496.65   602.71
                              608.09   686.87   793.90   840.79   944.09
                             1116.06  1127.23  1283.35  1328.90  1391.32
                             1421.90  1523.12  1561.51  1571.95  1587.53
                             1627.49  1685.74  1742.95  1848.49  1854.33
                             1929.36  1950.00  2025.08  2027.96  2053.73
                             2118.01  2141.44  2151.14  2165.82  2186.43
                             3401.56  4300.44  4348.87  4381.65  4388.96
                             4434.17  4442.31  4487.78  4495.49  4568.76
                             5465.37

 Zero-point correction=                           0.156590 (Hartree/Particle)
 Thermal correction to Energy=                    0.166919
 Thermal correction to Enthalpy=                  0.167863
 Thermal correction to Gibbs Free Energy=         0.118667
 Sum of electronic and zero-point Energies=           -422.973662
 Sum of electronic and thermal Energies=              -422.963332
 Sum of electronic and thermal Enthalpies=            -422.962388
 Sum of electronic and thermal Free Energies=         -423.011585

                     E (Thermal)             CV                S
                      KCal/Mol        Cal/Mol-Kelvin    Cal/Mol-Kelvin
 Total                  104.743             35.989            103.543
 Electronic               0.000              0.000              0.000
 Translational            0.889              2.981             40.409
 Rotational               0.889              2.981             29.724
 Vibrational            102.966             30.027             33.411
 Vibration     1          0.593              1.987              7.973
 Vibration     2          0.597              1.974              4.471
 Vibration     3          0.601              1.960              3.778
 Vibration     4          0.607              1.939              3.214
 Vibration     5          0.624              1.884              2.480
 Vibration     6          0.649              1.804              1.925
 Vibration     7          0.668              1.746              1.663
 Vibration     8          0.708              1.630              1.296
 Vibration     9          0.724              1.585              1.188
 Vibration    10          0.782              1.429              0.896
 Vibration    11          0.785              1.421              0.883
 Vibration    12          0.834              1.300              0.717
 Vibration    13          0.907              1.136              0.540
 Vibration    14          0.941              1.065              0.477

 Optimization completed.
    -- Stationary point found.
 Normal termination of Gaussian 09 at Tue Jan 28 09:58:01 2020.
