 Gaussian 09, Revision D.01,
 Gaussian 09:  ES64L-G09RevD.01 24-Apr-2013

 -----------------------------
 # b3lyp 6-31G(2df,p) opt Freq
 -----------------------------

 -----
 titel
 -----
 Symbolic Z-matrix:
 Charge =  0 Multiplicity = 1

 SCF Done:  E(RB3LYP) =  -423.132576625     A.U. after   14 cycles
 Optimization completed.
    -- Stationary point found.
 Normal termination of Gaussian 09 at Mon Jan 27 16:23:45 2020.

 ----------------------------------------------------------------------
 #N Geom=AllCheck Guess=TCheck SCRF=Check GenChk RB3LYP/6-31G(2df,p) Fr
 eq
 ----------------------------------------------------------------------

 Structure from the checkpoint file:  "/scratch/puck/g09_d2c7439a-bb2b-414d-ad70-3a061578e4b7/Gau-177007.chk"
 -----
 titel
 -----
 Charge =  0 Multiplicity = 1

                         Standard orientation:
 ---------------------------------------------------------------------
 Center     Atomic      Atomic             Coordinates (Angstroms)
 Number     Number       Type             X           Y           Z
 ---------------------------------------------------------------------
      1          6           0        0.660825    1.885628   -0.047233
      2          6           0        0.853874    0.377338   -0.063237
      3          6           0        1.880412   -0.068107   -1.093219
      4          8           0        1.215216   -0.099763    1.265056
      5          6           0        0.058167   -0.938925    1.364300
      6          6           0       -0.464941   -0.512634   -0.025012
      7          8           0       -0.484652   -1.624932   -0.901534
      8          6           0       -1.733121    0.200343   -0.065455
      9          6           0       -2.789805    0.769677   -0.142410
     10          1           0        1.615798    2.372292    0.175023
     11          1           0        0.306631    2.246188   -1.018289
     12          1           0       -0.062419    2.182315    0.715181
     13          1           0        2.852239    0.366515   -0.839120
     14          1           0        1.972608   -1.154548   -1.111839
     15          1           0        1.605466    0.274246   -2.096722
     16          1           0        0.306946   -2.005994    1.396135
     17          1           0       -0.580516   -0.678114    2.214577
     18          1           0       -0.930538   -1.359407   -1.713225
     19          1           0       -3.723193    1.274148   -0.196303
 ---------------------------------------------------------------------

 SCF Done:  E(RB3LYP) =  -423.132576625     A.U. after    1 cycles

 The electronic state is 1-A.
 Alpha  occ. eigenvalues --  -19.15512 -19.12894 -10.26515 -10.24146 -10.22976
 Alpha  occ. eigenvalues --  -10.19263 -10.18892 -10.17367 -10.17247  -1.05254
 Alpha  occ. eigenvalues --   -1.02300  -0.78664  -0.76828  -0.72015  -0.69060
 Alpha  occ. eigenvalues --   -0.63643  -0.57627  -0.54429  -0.51561  -0.49372
 Alpha  occ. eigenvalues --   -0.47329  -0.44380  -0.42152  -0.40679  -0.39689
 Alpha  occ. eigenvalues --   -0.38568  -0.37632  -0.35416  -0.35087  -0.32030
 Alpha  occ. eigenvalues --   -0.28992  -0.28130  -0.26220  -0.24820
 Alpha virt. eigenvalues --    0.02372   0.03528   0.07909   0.09378   0.11502
 Alpha virt. eigenvalues --    0.11971   0.13091   0.15257   0.15831   0.16146
 Alpha virt. eigenvalues --    0.16404   0.19517   0.19653   0.20874   0.22343

 Mulliken charges:
               1
     1  C   -0.433040
     2  C    0.359998
     3  C   -0.423357
     4  O   -0.319817
     5  C   -0.096979
     6  C    0.105137
     7  O   -0.456458
     8  C    0.301549
     9  C   -0.482048
    10  H    0.122347
    11  H    0.115197
    12  H    0.126801
    13  H    0.123231
    14  H    0.134126
    15  H    0.108036
    16  H    0.114660
    17  H    0.109880
    18  H    0.286546
    19  H    0.204189
 Sum of Mulliken charges =   0.00000

 Dipole moment (field-independent basis, Debye):
    X=             -1.4932    Y=              0.8910    Z=             -1.5190  Tot=              2.3089
 Quadrupole moment (field-independent basis, Debye-Ang):
   XX=            -50.4676   YY=            -54.1854   ZZ=            -51.6866
   XY=             -1.5215   XZ=             -1.0869   YZ=             -0.9460

  Exact polarizability:  91.134  -7.410  73.282  -1.218  -2.295  67.402
 Approx polarizability: 133.730 -17.470 107.512   3.337  -2.420  99.003

                      1                      2                      3
                      A                      A                      A
 Frequencies --     35.4998               144.9100               172.9245
 Red. masses --      3.5493                 3.4178                 2.1128
 Frc consts  --      0.0026                 0.0423                 0.0372
 IR Inten    --      0.8091                 0.1772                 2.1346

                      4                      5                      6
                      A                      A                      A
 Frequencies --    185.9401               225.7807               264.7981
 Red. masses --      1.2713                 1.1790                 1.6946
 Frc consts  --      0.0259                 0.0354                 0.0700
 IR Inten    --      0.7742                 0.2370                22.5528

                      7                      8                      9
                      A                      A                      A
 Frequencies --    282.0479               312.7175               349.7672
 Red. masses --      1.5027                 2.7361                 2.4276
 Frc consts  --      0.0704                 0.1576                 0.1750
 IR Inten    --     63.0098                 9.3124                 1.5541

                     10                     11                     12
                      A                      A                      A
 Frequencies --    371.8887               406.7650               484.2096
 Red. masses --      3.7904                 2.9435                 4.0201
 Frc consts  --      0.3089                 0.2870                 0.5553
 IR Inten    --      5.3386                14.5377                 4.7645

                     13                     14                     15
                      A                      A                      A
 Frequencies --    522.3306               557.3517               633.5712
 Red. masses --      5.8545                 3.4630                 1.2784
 Frc consts  --      0.9411                 0.6338                 0.3024
 IR Inten    --      7.4626                 7.4258                38.1766

                     16                     17                     18
                      A                      A                      A
 Frequencies --    644.8051               665.7982               685.4116
 Red. masses --      5.1345                 1.2503                 3.8900
 Frc consts  --      1.2578                 0.3266                 1.0767
 IR Inten    --      2.9382                35.1286                 4.7676

                     19                     20                     21
                      A                      A                      A
 Frequencies --    857.1147               922.9611               936.0392
 Red. masses --      3.1317                 1.8402                 1.4386
 Frc consts  --      1.3555                 0.9236                 0.7427
 IR Inten    --     23.0458                15.3800                 0.1138

                     22                     23                     24
                      A                      A                      A
 Frequencies --    973.7220               991.9117              1002.1804
 Red. masses --      2.1305                 1.3590                 3.7575
 Frc consts  --      1.1902                 0.7878                 2.2235
 IR Inten    --     10.3975                 0.6287                13.2747

                     25                     26                     27
                      A                      A                      A
 Frequencies --   1036.6690              1102.0723              1145.2788
 Red. masses --      7.8380                 3.0729                 1.7454
 Frc consts  --      4.9629                 2.1990                 1.3489
 IR Inten    --     81.2977               115.3733                20.0225

                     28                     29                     30
                      A                      A                      A
 Frequencies --   1172.3045              1189.5869              1253.3605
 Red. masses --      2.1897                 1.8483                 2.7315
 Frc consts  --      1.7730                 1.5410                 2.5282
 IR Inten    --     18.7530                35.1253                25.9260

                     31                     32                     33
                      A                      A                      A
 Frequencies --   1262.1340              1333.6669              1381.1283
 Red. masses --      3.2570                 1.3652                 1.7111
 Frc consts  --      3.0569                 1.4307                 1.9230
 IR Inten    --      0.9440                30.5290                37.5842

                     34                     35                     36
                      A                      A                      A
 Frequencies --   1397.7375              1412.5440              1472.2185
 Red. masses --      1.3215                 1.2367                 1.0479
 Frc consts  --      1.5212                 1.4538                 1.3382
 IR Inten    --      6.8752                 6.0895                 1.2823

                     37                     38                     39
                      A                      A                      A
 Frequencies --   1474.4721              1493.3042              1499.6809
 Red. masses --      1.0477                 1.0611                 1.0568
 Frc consts  --      1.3420                 1.3942                 1.4004
 IR Inten    --      1.8035                 1.3586                11.1955

                     40                     41                     42
                      A                      A                      A
 Frequencies --   1515.6540              2228.6334              3027.7598
 Red. masses --      1.0973                 5.9454                 1.0551
 Frc consts  --      1.4852                17.3983                 5.6988
 IR Inten    --      0.1356                 0.7875                55.9120

                     43                     44                     45
                      A                      A                      A
 Frequencies --   3037.3661              3043.4609              3081.7202
 Red. masses --      1.0368                 1.0369                 1.1116
 Frc consts  --      5.6355                 5.6587                 6.2198
 IR Inten    --      8.2901                17.0373                25.4052

                     46                     47                     48
                      A                      A                      A
 Frequencies --   3103.0214              3111.7052              3130.4533
 Red. masses --      1.1010                 1.1008                 1.1007
 Frc consts  --      6.2458                 6.2800                 6.3550
 IR Inten    --      1.8130                33.6489                17.8515

                     49                     50                     51
                      A                      A                      A
 Frequencies --   3145.7398              3498.2949              3811.3789
 Red. masses --      1.0994                 1.1616                 1.0663
 Frc consts  --      6.4099                 8.3757                 9.1261
 IR Inten    --     11.1277                71.3723                28.1454

 - Thermochemistry -
 -------------------
 Temperature   298.150 Kelvin.  Pressure   1.00000 Atm.
 Atom     1 has atomic number  6 and mass  12.00000

 Molecular mass:   126.06808 amu.
 Principal axes and moments of inertia in atomic units:
                           1         2         3
     Eigenvalues --   808.444981220.873181364.45249
           X            0.99911  -0.00317  -0.04212
           Y            0.00089   0.99853  -0.05419
           Z            0.04223   0.05410   0.99764
 This molecule is an asymmetric top.
 Rotational symmetry number  1.
 Warning -- assumption of classical behavior for rotation
           may cause significant error
 Rotational temperatures (Kelvin)      0.10714     0.07094     0.06348
 Rotational constants (GHZ):           2.23236     1.47824     1.32269
 Zero-point vibrational energy     406681.2 (Joules/Mol)
                                   97.19915 (Kcal/Mol)
 Warning -- explicit consideration of  14 degrees of freedom as
           vibrations may cause significant error
 Vibrational temperatures:     51.08   208.49   248.80   267.53   324.85
          (Kelvin)            380.98   405.80   449.93   503.24   535.06
                              585.24   696.67   751.52   801.90   911.57
                              927.73   957.93   986.15  1233.20  1327.93
                             1346.75  1400.97  1427.14  1441.91  1491.53
                             1585.63  1647.80  1686.68  1711.55  1803.30
                             1815.93  1918.85  1987.13  2011.03  2032.33
                             2118.19  2121.43  2148.53  2157.70  2180.69
                             3206.50  4356.27  4370.09  4378.86  4433.90
                             4464.55  4477.04  4504.02  4526.01  5033.26
                             5483.72

 Zero-point correction=                           0.154897 (Hartree/Particle)
 Thermal correction to Energy=                    0.164900
 Thermal correction to Enthalpy=                  0.165844
 Thermal correction to Gibbs Free Energy=         0.120199
 Sum of electronic and zero-point Energies=           -422.977680
 Sum of electronic and thermal Energies=              -422.967677
 Sum of electronic and thermal Enthalpies=            -422.966733
 Sum of electronic and thermal Free Energies=         -423.012377

                     E (Thermal)             CV                S
                      KCal/Mol        Cal/Mol-Kelvin    Cal/Mol-Kelvin
 Total                  103.476             37.440             96.068
 Electronic               0.000              0.000              0.000
 Translational            0.889              2.981             40.409
 Rotational               0.889              2.981             28.689
 Vibrational            101.699             31.478             26.970
 Vibration     1          0.594              1.982              5.496
 Vibration     2          0.616              1.908              2.738
 Vibration     3          0.626              1.876              2.403
 Vibration     4          0.632              1.859              2.268
 Vibration     5          0.650              1.802              1.912
 Vibration     6          0.671              1.738              1.630
 Vibration     7          0.681              1.707              1.521
 Vibration     8          0.701              1.649              1.348
 Vibration     9          0.727              1.576              1.167
 Vibration    10          0.744              1.530              1.072
 Vibration    11          0.772              1.456              0.938
 Vibration    12          0.840              1.285              0.699
 Vibration    13          0.877              1.201              0.605
 Vibration    14          0.913              1.124              0.529

 Normal termination of Gaussian 09 at Mon Jan 27 17:07:45 2020.
