 Gaussian 09, Revision D.01,
 Gaussian 09:  ES64L-G09RevD.01 24-Apr-2013

 -----------------------------
 # b3lyp 6-31G(2df,p) opt Freq
 -----------------------------

 -----
 titel
 -----
 Symbolic Z-matrix:
 Charge =  0 Multiplicity = 1

 SCF Done:  E(RB3LYP) =  -423.163978841     A.U. after   14 cycles
 Optimization completed.
    -- Stationary point found.
 Normal termination of Gaussian 09 at Mon Jan 27 14:01:47 2020.

 ----------------------------------------------------------------------
 #N Geom=AllCheck Guess=TCheck SCRF=Check GenChk RB3LYP/6-31G(2df,p) Fr
 eq
 ----------------------------------------------------------------------

 Structure from the checkpoint file:  "/scratch/puck/g09_06e8d437-ad69-451f-a462-6c2d8c7ce01a/Gau-40375.chk"
 -----
 titel
 -----
 Charge =  0 Multiplicity = 1

                         Standard orientation:
 ---------------------------------------------------------------------
 Center     Atomic      Atomic             Coordinates (Angstroms)
 Number     Number       Type             X           Y           Z
 ---------------------------------------------------------------------
      1          6           0       -4.382855    0.352511   -0.480635
      2          6           0       -3.045090   -0.126187   -0.163737
      3          6           0       -1.938677   -0.520804    0.098673
      4          6           0       -0.592785   -0.989150    0.402854
      5          6           0        0.512182    0.009113   -0.004092
      6          8           0        0.334939    1.281536    0.597225
      7          6           0        1.910712   -0.561019    0.304225
      8          6           0        3.024042    0.350765   -0.169686
      9          8           0        3.996542   -0.026075   -0.773006
     10          1           0       -5.068773    0.204610    0.360834
     11          1           0       -4.374519    1.422280   -0.716747
     12          1           0       -4.801240   -0.174482   -1.345228
     13          1           0       -0.495948   -1.193674    1.480483
     14          1           0       -0.401601   -1.946393   -0.099344
     15          1           0        0.426826    0.195791   -1.080639
     16          1           0        0.197312    1.152378    1.542544
     17          1           0        2.007424   -0.667682    1.396084
     18          1           0        2.056192   -1.549528   -0.141845
     19          1           0        2.877300    1.421640    0.084487
 ---------------------------------------------------------------------

 SCF Done:  E(RB3LYP) =  -423.163978841     A.U. after    1 cycles

 The electronic state is 1-A.
 Alpha  occ. eigenvalues --  -19.14977 -19.13728 -10.26876 -10.25369 -10.21609
 Alpha  occ. eigenvalues --  -10.20464 -10.19828 -10.17583 -10.17111  -1.04403
 Alpha  occ. eigenvalues --   -1.03361  -0.80906  -0.77587  -0.74719  -0.68058
 Alpha  occ. eigenvalues --   -0.62989  -0.58218  -0.51318  -0.49588  -0.47170
 Alpha  occ. eigenvalues --   -0.46331  -0.44545  -0.43946  -0.42729  -0.42620
 Alpha  occ. eigenvalues --   -0.41640  -0.40970  -0.38780  -0.36310  -0.33954
 Alpha  occ. eigenvalues --   -0.29049  -0.25572  -0.25176  -0.24235
 Alpha virt. eigenvalues --   -0.02230   0.04603   0.05661   0.07737   0.10892
 Alpha virt. eigenvalues --    0.11014   0.11420   0.13979   0.14794   0.15465
 Alpha virt. eigenvalues --    0.17242   0.17945   0.19875   0.20625   0.21134

 Mulliken charges:
               1
     1  C   -0.498341
     2  C    0.121479
     3  C    0.034142
     4  C   -0.395774
     5  C    0.121711
     6  O   -0.419568
     7  C   -0.293637
     8  C    0.152351
     9  O   -0.242777
    10  H    0.147338
    11  H    0.151650
    12  H    0.148129
    13  H    0.115611
    14  H    0.133973
    15  H    0.112526
    16  H    0.282068
    17  H    0.111501
    18  H    0.121789
    19  H    0.095827
 Sum of Mulliken charges =   0.00000

 Dipole moment (field-independent basis, Debye):
    X=             -2.7952    Y=             -0.6513    Z=              1.9299  Tot=              3.4586
 Quadrupole moment (field-independent basis, Debye-Ang):
   XX=            -61.4954   YY=            -54.0397   ZZ=            -49.9473
   XY=             -1.0840   XZ=              6.6449   YZ=              0.3545

  Exact polarizability: 117.643  -8.362  66.991   1.854  -0.303  62.442
 Approx polarizability: 152.138 -19.208 100.538   1.643  -0.061  97.552

                      1                      2                      3
                      A                      A                      A
 Frequencies --     25.2811                39.3191                66.5843
 Red. masses --      1.0292                 5.7968                 4.3278
 Frc consts  --      0.0004                 0.0053                 0.0113
 IR Inten    --      0.0704                 2.6331                 1.8530

                      4                      5                      6
                      A                      A                      A
 Frequencies --     80.1854                94.7454               191.7350
 Red. masses --      3.1190                 2.9341                 3.3173
 Frc consts  --      0.0118                 0.0155                 0.0719
 IR Inten    --      4.3960                 2.0687                 4.1267

                      7                      8                      9
                      A                      A                      A
 Frequencies --    213.5296               269.3060               281.4059
 Red. masses --      2.6047                 1.4359                 2.1451
 Frc consts  --      0.0700                 0.0614                 0.1001
 IR Inten    --     13.2799                59.7398                62.0211

                     10                     11                     12
                      A                      A                      A
 Frequencies --    303.7029               383.5440               406.3092
 Red. masses --      4.8941                 3.8185                 5.0622
 Frc consts  --      0.2660                 0.3310                 0.4924
 IR Inten    --      8.5138                 0.0300                 6.4136

                     13                     14                     15
                      A                      A                      A
 Frequencies --    431.7703               488.5354               568.2998
 Red. masses --      3.1375                 2.4331                 2.5680
 Frc consts  --      0.3446                 0.3421                 0.4887
 IR Inten    --      3.2840                 6.1098                21.1248

                     16                     17                     18
                      A                      A                      A
 Frequencies --    763.2193               823.4426               860.1899
 Red. masses --      3.1312                 1.9345                 3.0615
 Frc consts  --      1.0746                 0.7728                 1.3347
 IR Inten    --      1.5910                 1.8165                 9.9845

                     19                     20                     21
                      A                      A                      A
 Frequencies --    908.6812              1005.8214              1046.9502
 Red. masses --      1.7641                 2.7596                 2.2035
 Frc consts  --      0.8582                 1.6449                 1.4230
 IR Inten    --      2.3734                 6.5867                45.6124

                     22                     23                     24
                      A                      A                      A
 Frequencies --   1052.7684              1056.8738              1081.8735
 Red. masses --      1.4062                 1.5735                 2.0747
 Frc consts  --      0.9182                 1.0355                 1.4307
 IR Inten    --      0.9003                25.5327                31.0074

                     25                     26                     27
                      A                      A                      A
 Frequencies --   1127.7189              1171.5025              1188.4176
 Red. masses --      3.9727                 3.2634                 1.1189
 Frc consts  --      2.9767                 2.6388                 0.9311
 IR Inten    --     72.0090                 0.1316                12.6276

                     28                     29                     30
                      A                      A                      A
 Frequencies --   1202.8028              1267.6453              1328.1004
 Red. masses --      1.2892                 1.3221                 1.4449
 Frc consts  --      1.0989                 1.2517                 1.5016
 IR Inten    --      1.0404                 0.0773                20.3807

                     31                     32                     33
                      A                      A                      A
 Frequencies --   1348.0991              1372.2369              1413.6799
 Red. masses --      1.3765                 1.5047                 1.2051
 Frc consts  --      1.4739                 1.6694                 1.4190
 IR Inten    --     15.1461                 6.0277                 9.5617

                     34                     35                     36
                      A                      A                      A
 Frequencies --   1415.7906              1422.8199              1448.1890
 Red. masses --      1.2165                 1.2161                 1.0956
 Frc consts  --      1.4367                 1.4505                 1.3537
 IR Inten    --      4.0712                39.7987                 2.4888

                     37                     38                     39
                      A                      A                      A
 Frequencies --   1469.7234              1478.3748              1478.9767
 Red. masses --      1.1010                 1.0396                 1.0397
 Frc consts  --      1.4013                 1.3387                 1.3399
 IR Inten    --      4.5956                 5.3686                 5.4014

                     40                     41                     42
                      A                      A                      A
 Frequencies --   1829.8189              2376.7948              2916.5728
 Red. masses --      9.9003                11.8214                 1.0837
 Frc consts  --     19.5307                39.3463                 5.4313
 IR Inten    --    197.0764                 3.0717                69.9360

                     43                     44                     45
                      A                      A                      A
 Frequencies --   2988.9425              2998.1425              3027.4827
 Red. masses --      1.0668                 1.0670                 1.0348
 Frc consts  --      5.6151                 5.6507                 5.5881
 IR Inten    --     24.8294                11.6046                31.9083

                     46                     47                     48
                      A                      A                      A
 Frequencies --   3038.2672              3058.0401              3087.8278
 Red. masses --      1.0897                 1.0870                 1.1002
 Frc consts  --      5.9269                 5.9893                 6.1804
 IR Inten    --     10.5229                23.5440                10.6656

                     49                     50                     51
                      A                      A                      A
 Frequencies --   3089.1573              3094.9622              3796.0682
 Red. masses --      1.1002                 1.0942                 1.0659
 Frc consts  --      6.1857                 6.1751                 9.0501
 IR Inten    --      9.7513                17.2341                15.9922

 - Thermochemistry -
 -------------------
 Temperature   298.150 Kelvin.  Pressure   1.00000 Atm.
 Atom     1 has atomic number  6 and mass  12.00000

 Molecular mass:   126.06808 amu.
 Principal axes and moments of inertia in atomic units:
                           1         2         3
     Eigenvalues --   335.086673294.025293400.91303
           X            0.99992  -0.00558   0.01131
           Y            0.00609   0.99894  -0.04567
           Z           -0.01105   0.04574   0.99889
 This molecule is an asymmetric top.
 Rotational symmetry number  1.
 Rotational temperatures (Kelvin)      0.25848     0.02629     0.02547
 Rotational constants (GHZ):           5.38589     0.54788     0.53066
 Zero-point vibrational energy     406013.9 (Joules/Mol)
                                   97.03966 (Kcal/Mol)
 Warning -- explicit consideration of  15 degrees of freedom as
           vibrations may cause significant error
 Vibrational temperatures:     36.37    56.57    95.80   115.37   136.32
          (Kelvin)            275.86   307.22   387.47   404.88   436.96
                              551.83   584.59   621.22   702.89   817.66
                             1098.10  1184.75  1237.62  1307.39  1447.15
                             1506.33  1514.70  1520.60  1556.57  1622.53
                             1685.53  1709.87  1730.56  1823.86  1910.84
                             1939.61  1974.34  2033.97  2037.00  2047.12
                             2083.62  2114.60  2127.05  2127.92  2632.70
                             3419.67  4196.29  4300.42  4313.65  4355.87
                             4371.38  4399.83  4442.69  4444.60  4452.95
                             5461.69

 Zero-point correction=                           0.154643 (Hartree/Particle)
 Thermal correction to Energy=                    0.165881
 Thermal correction to Enthalpy=                  0.166826
 Thermal correction to Gibbs Free Energy=         0.115730
 Sum of electronic and zero-point Energies=           -423.009336
 Sum of electronic and thermal Energies=              -422.998098
 Sum of electronic and thermal Enthalpies=            -422.997153
 Sum of electronic and thermal Free Energies=         -423.048249

                     E (Thermal)             CV                S
                      KCal/Mol        Cal/Mol-Kelvin    Cal/Mol-Kelvin
 Total                  104.092             37.435            107.540
 Electronic               0.000              0.000              0.000
 Translational            0.889              2.981             40.409
 Rotational               0.889              2.981             29.708
 Vibrational            102.315             31.474             37.423
 Vibration     1          0.593              1.985              6.169
 Vibration     2          0.594              1.981              5.293
 Vibration     3          0.598              1.970              4.252
 Vibration     4          0.600              1.963              3.886
 Vibration     5          0.603              1.953              3.560
 Vibration     6          0.634              1.851              2.211
 Vibration     7          0.644              1.820              2.013
 Vibration     8          0.674              1.730              1.601
 Vibration     9          0.681              1.708              1.525
 Vibration    10          0.695              1.667              1.396
 Vibration    11          0.753              1.505              1.025
 Vibration    12          0.771              1.457              0.940
 Vibration    13          0.793              1.401              0.853
 Vibration    14          0.844              1.275              0.687
 Vibration    15          0.924              1.100              0.508

 Optimization completed on the basis of negligible forces.
    -- Stationary point found.
 Normal termination of Gaussian 09 at Mon Jan 27 14:33:25 2020.
