 Gaussian 09, Revision D.01,
 Gaussian 09:  ES64L-G09RevD.01 24-Apr-2013

 -----------------------------
 # b3lyp 6-31G(2df,p) opt Freq
 -----------------------------

 -----
 titel
 -----
 Symbolic Z-matrix:
 Charge =  0 Multiplicity = 1

 SCF Done:  E(RB3LYP) =  -423.127762817     A.U. after   14 cycles
 Optimization completed.
    -- Stationary point found.
 Normal termination of Gaussian 09 at Tue Jan 28 09:56:13 2020.

 ----------------------------------------------------------------------
 #N Geom=AllCheck Guess=TCheck SCRF=Check GenChk RB3LYP/6-31G(2df,p) Fr
 eq
 ----------------------------------------------------------------------

 Structure from the checkpoint file:  "/scratch/puck/g09_85c17480-9c07-498d-84cd-ab9ab1f1823a/Gau-21447.chk"
 -----
 titel
 -----
 Charge =  0 Multiplicity = 1

                         Standard orientation:
 ---------------------------------------------------------------------
 Center     Atomic      Atomic             Coordinates (Angstroms)
 Number     Number       Type             X           Y           Z
 ---------------------------------------------------------------------
      1          6           0       -2.629818    0.021799    0.204204
      2          6           0       -1.595680   -0.831319   -0.544685
      3          6           0       -0.185733   -0.423307   -0.239059
      4          8           0        0.176528   -0.513473    1.188270
      5          6           0        1.523356   -0.717098    0.743962
      6          6           0        1.798822    0.267961   -0.394398
      7          6           0        1.170330   -1.106600   -0.645507
      8          6           0        0.448969    0.954305   -0.613340
      9          8           0        0.086766    2.063392    0.156306
     10          1           0       -3.645957   -0.284159   -0.060024
     11          1           0       -2.509884   -0.093744    1.285068
     12          1           0       -2.512821    1.082333   -0.033919
     13          1           0       -1.722869   -1.889478   -0.287187
     14          1           0       -1.744464   -0.748879   -1.628735
     15          1           0        2.258671   -1.086315    1.445832
     16          1           0        2.791412    0.612018   -0.654046
     17          1           0        1.437791   -1.928083   -1.293661
     18          1           0        0.286598    1.199224   -1.666031
     19          1           0        0.073705    1.743288    1.069040
 ---------------------------------------------------------------------

 SCF Done:  E(RB3LYP) =  -423.127762817     A.U. after    1 cycles

 The electronic state is 1-A.
 Alpha  occ. eigenvalues --  -19.14354 -19.13117 -10.24468 -10.24447 -10.23393
 Alpha  occ. eigenvalues --  -10.19868 -10.19509 -10.18852 -10.17291  -1.06855
 Alpha  occ. eigenvalues --   -1.01177  -0.85883  -0.78487  -0.70450  -0.65662
 Alpha  occ. eigenvalues --   -0.60882  -0.57621  -0.55117  -0.51007  -0.50156
 Alpha  occ. eigenvalues --   -0.45954  -0.44783  -0.43517  -0.40600  -0.38942
 Alpha  occ. eigenvalues --   -0.38623  -0.36664  -0.35629  -0.34843  -0.34473
 Alpha  occ. eigenvalues --   -0.29373  -0.27204  -0.26443  -0.23597
 Alpha virt. eigenvalues --    0.07133   0.09794   0.11009   0.11299   0.13265
 Alpha virt. eigenvalues --    0.13551   0.14694   0.15034   0.16290   0.16472
 Alpha virt. eigenvalues --    0.17559   0.17959   0.18969   0.19933   0.21111

 Mulliken charges:
               1
     1  C   -0.389591
     2  C   -0.322756
     3  C    0.386259
     4  O   -0.345395
     5  C    0.087901
     6  C   -0.183997
     7  C   -0.216135
     8  C    0.144959
     9  O   -0.446337
    10  H    0.110893
    11  H    0.134071
    12  H    0.137895
    13  H    0.109626
    14  H    0.104767
    15  H    0.112637
    16  H    0.094318
    17  H    0.103865
    18  H    0.091730
    19  H    0.285287
 Sum of Mulliken charges =   0.00000

 Dipole moment (field-independent basis, Debye):
    X=              0.7934    Y=             -1.5973    Z=             -0.8830  Tot=              1.9901
 Quadrupole moment (field-independent basis, Debye-Ang):
   XX=            -48.8710   YY=            -57.1583   ZZ=            -51.9129
   XY=             -0.6598   XZ=              1.0265   YZ=              1.7552

  Exact polarizability:  83.626  -1.160  70.364   0.641   0.535  66.967
 Approx polarizability: 109.505  -0.314 107.579   0.485   0.304 109.023

                      1                      2                      3
                      A                      A                      A
 Frequencies --     90.0607               154.4560               212.4763
 Red. masses --      2.4520                 3.7897                 1.2051
 Frc consts  --      0.0117                 0.0533                 0.0321
 IR Inten    --      0.4200                 2.7126                 0.2817

                      4                      5                      6
                      A                      A                      A
 Frequencies --    229.2812               296.4685               343.3886
 Red. masses --      4.0842                 2.5554                 2.4495
 Frc consts  --      0.1265                 0.1323                 0.1702
 IR Inten    --      4.8362                 0.5966                 2.4879

                      7                      8                      9
                      A                      A                      A
 Frequencies --    376.2122               516.6284               587.3725
 Red. masses --      3.6867                 1.1456                 3.9877
 Frc consts  --      0.3074                 0.1802                 0.8106
 IR Inten    --      2.3302                75.8397                 5.9424

                     10                     11                     12
                      A                      A                      A
 Frequencies --    598.9963               693.1985               762.7151
 Red. masses --      4.3227                 3.7836                 2.4066
 Frc consts  --      0.9138                 1.0712                 0.8249
 IR Inten    --      2.1538                12.4658                 1.5685

                     13                     14                     15
                      A                      A                      A
 Frequencies --    782.8296               785.3185               790.8368
 Red. masses --      1.6275                 1.6146                 2.7059
 Frc consts  --      0.5876                 0.5867                 0.9971
 IR Inten    --     14.8580                 6.1437                23.0574

                     16                     17                     18
                      A                      A                      A
 Frequencies --    838.0826               895.4767               915.1515
 Red. masses --      2.1454                 2.4500                 2.1208
 Frc consts  --      0.8878                 1.1575                 1.0465
 IR Inten    --      7.9241                22.0510                21.3078

                     19                     20                     21
                      A                      A                      A
 Frequencies --    937.0629               959.7120               984.8464
 Red. masses --      1.6015                 2.5796                 2.3721
 Frc consts  --      0.8285                 1.3999                 1.3556
 IR Inten    --     11.0932                14.1665                14.0525

                     22                     23                     24
                      A                      A                      A
 Frequencies --    996.4663              1025.9755              1030.0937
 Red. masses --      1.9387                 2.5641                 1.4996
 Frc consts  --      1.1342                 1.5902                 0.9375
 IR Inten    --      9.9307                23.7731                 1.5309

                     25                     26                     27
                      A                      A                      A
 Frequencies --   1059.3840              1111.2992              1130.3608
 Red. masses --      2.4197                 2.0245                 2.4743
 Frc consts  --      1.6000                 1.4731                 1.8626
 IR Inten    --     44.1600                16.3438                83.3809

                     28                     29                     30
                      A                      A                      A
 Frequencies --   1146.7040              1178.0569              1196.5699
 Red. masses --      2.2096                 1.8204                 1.6604
 Frc consts  --      1.7119                 1.4885                 1.4007
 IR Inten    --     19.8439                 8.8407                 2.2264

                     31                     32                     33
                      A                      A                      A
 Frequencies --   1263.9481              1294.0356              1307.0163
 Red. masses --      1.3613                 1.4018                 1.9250
 Frc consts  --      1.2814                 1.3830                 1.9375
 IR Inten    --     15.5207                 5.9903                 8.6946

                     34                     35                     36
                      A                      A                      A
 Frequencies --   1324.4174              1357.3048              1400.6088
 Red. masses --      1.6254                 2.3533                 2.4448
 Frc consts  --      1.6798                 2.5544                 2.8257
 IR Inten    --     10.4794                 5.3979                 5.0724

                     37                     38                     39
                      A                      A                      A
 Frequencies --   1412.1398              1442.5570              1477.9680
 Red. masses --      1.2485                 1.3313                 1.0802
 Frc consts  --      1.4669                 1.6323                 1.3902
 IR Inten    --      1.7564                98.2805                 2.0780

                     40                     41                     42
                      A                      A                      A
 Frequencies --   1497.5566              1512.4597              3028.2681
 Red. masses --      1.0408                 1.0732                 1.0596
 Frc consts  --      1.3753                 1.4464                 5.7253
 IR Inten    --      5.2530                 6.1673                20.3033

                     43                     44                     45
                      A                      A                      A
 Frequencies --   3047.1273              3063.8640              3091.9343
 Red. masses --      1.0346                 1.1020                 1.0868
 Frc consts  --      5.6597                 6.0949                 6.1217
 IR Inten    --     22.8971                12.7361                25.0975

                     46                     47                     48
                      A                      A                      A
 Frequencies --   3118.1507              3126.6909              3204.1936
 Red. masses --      1.1020                 1.1024                 1.0921
 Frc consts  --      6.3127                 6.3497                 6.6063
 IR Inten    --     26.3267                19.0679                 7.9614

                     49                     50                     51
                      A                      A                      A
 Frequencies --   3211.2535              3228.7895              3754.6884
 Red. masses --      1.0907                 1.1044                 1.0645
 Frc consts  --      6.6267                 6.7836                 8.8418
 IR Inten    --     14.5957                10.0047                25.3848

 - Thermochemistry -
 -------------------
 Temperature   298.150 Kelvin.  Pressure   1.00000 Atm.
 Atom     1 has atomic number  6 and mass  12.00000

 Molecular mass:   126.06808 amu.
 Principal axes and moments of inertia in atomic units:
                           1         2         3
     Eigenvalues --   674.873021090.918121349.67897
           X            1.00000   0.00115  -0.00170
           Y           -0.00110   0.99961   0.02780
           Z            0.00173  -0.02780   0.99961
 This molecule is an asymmetric top.
 Rotational symmetry number  1.
 Warning -- assumption of classical behavior for rotation
           may cause significant error
 Rotational temperatures (Kelvin)      0.12834     0.07940     0.06417
 Rotational constants (GHZ):           2.67419     1.65433     1.33716
 Zero-point vibrational energy     417439.6 (Joules/Mol)
                                   99.77046 (Kcal/Mol)
 Warning -- explicit consideration of  10 degrees of freedom as
           vibrations may cause significant error
 Vibrational temperatures:    129.58   222.23   305.71   329.88   426.55
          (Kelvin)            494.06   541.28   743.31   845.10   861.82
                              997.36  1097.38  1126.32  1129.90  1137.84
                             1205.81  1288.39  1316.70  1348.22  1380.81
                             1416.97  1433.69  1476.15  1482.07  1524.22
                             1598.91  1626.34  1649.85  1694.96  1721.60
                             1818.54  1861.83  1880.50  1905.54  1952.86
                             2015.16  2031.75  2075.52  2126.46  2154.65
                             2176.09  4357.00  4384.13  4408.21  4448.60
                             4486.32  4498.61  4610.11  4620.27  4645.50
                             5402.15

 Zero-point correction=                           0.158994 (Hartree/Particle)
 Thermal correction to Energy=                    0.167021
 Thermal correction to Enthalpy=                  0.167965
 Thermal correction to Gibbs Free Energy=         0.126625
 Sum of electronic and zero-point Energies=           -422.968768
 Sum of electronic and thermal Energies=              -422.960742
 Sum of electronic and thermal Enthalpies=            -422.959798
 Sum of electronic and thermal Free Energies=         -423.001138

                     E (Thermal)             CV                S
                      KCal/Mol        Cal/Mol-Kelvin    Cal/Mol-Kelvin
 Total                  104.807             31.788             87.006
 Electronic               0.000              0.000              0.000
 Translational            0.889              2.981             40.409
 Rotational               0.889              2.981             28.387
 Vibrational            103.030             25.826             18.210
 Vibration     1          0.602              1.956              3.659
 Vibration     2          0.620              1.898              2.617
 Vibration     3          0.644              1.822              2.022
 Vibration     4          0.652              1.796              1.885
 Vibration     5          0.690              1.680              1.437
 Vibration     6          0.722              1.589              1.196
 Vibration     7          0.747              1.521              1.054
 Vibration     8          0.872              1.213              0.618
 Vibration     9          0.945              1.059              0.472
 Vibration    10          0.957              1.034              0.451

 Optimization completed.
    -- Stationary point found.
 Normal termination of Gaussian 09 at Tue Jan 28 10:41:42 2020.
