 Gaussian 09, Revision D.01,
 Gaussian 09:  ES64L-G09RevD.01 24-Apr-2013

 -----------------------------
 # b3lyp 6-31G(2df,p) opt Freq
 -----------------------------

 -----
 titel
 -----
 Symbolic Z-matrix:
 Charge =  0 Multiplicity = 1

 SCF Done:  E(RB3LYP) =  -423.163642409     A.U. after   13 cycles
 Optimization completed.
    -- Stationary point found.
 Normal termination of Gaussian 09 at Mon Jan 27 11:16:15 2020.

 ----------------------------------------------------------------------
 #N Geom=AllCheck Guess=TCheck SCRF=Check GenChk RB3LYP/6-31G(2df,p) Fr
 eq
 ----------------------------------------------------------------------

 Structure from the checkpoint file:  "/scratch/puck/g09_d7569acf-9057-469e-b2b6-160956627809/Gau-18557.chk"
 -----
 titel
 -----
 Charge =  0 Multiplicity = 1

                         Standard orientation:
 ---------------------------------------------------------------------
 Center     Atomic      Atomic             Coordinates (Angstroms)
 Number     Number       Type             X           Y           Z
 ---------------------------------------------------------------------
      1          6           0       -2.320227    0.958212   -0.149482
      2          6           0       -2.887553   -0.182898    0.670838
      3          6           0       -1.800508   -0.443561   -0.321114
      4          8           0       -0.551993   -0.791410    0.210854
      5          6           0        0.549650   -0.415577   -0.586848
      6          8           0        0.881580    0.957887   -0.451390
      7          6           0        2.086796    1.100263    0.295683
      8          6           0        2.626206   -0.294782    0.429889
      9          6           0        1.765794   -1.155861   -0.097698
     10          1           0       -2.925958    1.384001   -0.942014
     11          1           0       -1.660920    1.656336    0.349638
     12          1           0       -2.603760   -0.232118    1.715850
     13          1           0       -3.885740   -0.545092    0.452205
     14          1           0       -2.050739   -0.977233   -1.238355
     15          1           0        0.297717   -0.589973   -1.644133
     16          1           0        2.763228    1.768729   -0.254506
     17          1           0        1.892054    1.563264    1.275658
     18          1           0        3.571849   -0.521341    0.905552
     19          1           0        1.844618   -2.233168   -0.143222
 ---------------------------------------------------------------------

 SCF Done:  E(RB3LYP) =  -423.163642409     A.U. after    1 cycles

 The electronic state is 1-A.
 Alpha  occ. eigenvalues --  -19.14047 -19.13828 -10.27520 -10.23369 -10.22808
 Alpha  occ. eigenvalues --  -10.19350 -10.18622 -10.17847 -10.17481  -1.06422
 Alpha  occ. eigenvalues --   -1.01042  -0.84049  -0.79054  -0.72720  -0.61758
 Alpha  occ. eigenvalues --   -0.59622  -0.57545  -0.56935  -0.51660  -0.50882
 Alpha  occ. eigenvalues --   -0.48443  -0.45889  -0.43523  -0.42188  -0.40720
 Alpha  occ. eigenvalues --   -0.38376  -0.35950  -0.35539  -0.32460  -0.31296
 Alpha  occ. eigenvalues --   -0.28725  -0.27631  -0.25506  -0.24427
 Alpha virt. eigenvalues --    0.00920   0.10016   0.10912   0.12029   0.13247
 Alpha virt. eigenvalues --    0.14468   0.15269   0.15548   0.16098   0.16817
 Alpha virt. eigenvalues --    0.17457   0.18127   0.19609   0.21864   0.23643

 Mulliken charges:
               1
     1  C   -0.276116
     2  C   -0.290763
     3  C    0.138750
     4  O   -0.258247
     5  C    0.185245
     6  O   -0.260192
     7  C   -0.121523
     8  C   -0.088253
     9  C   -0.107766
    10  H    0.109111
    11  H    0.130321
    12  H    0.124035
    13  H    0.110709
    14  H    0.083388
    15  H    0.072179
    16  H    0.113602
    17  H    0.111800
    18  H    0.111054
    19  H    0.112664
 Sum of Mulliken charges =   0.00000

 Dipole moment (field-independent basis, Debye):
    X=              0.9957    Y=             -0.3192    Z=             -0.1853  Tot=              1.0620
 Quadrupole moment (field-independent basis, Debye-Ang):
   XX=            -46.1208   YY=            -53.1095   ZZ=            -52.4635
   XY=              0.4283   XZ=              3.0309   YZ=              2.3833

  Exact polarizability:  95.140   5.171  74.808   5.825   3.639  62.874
 Approx polarizability: 118.816  12.060 114.815  10.297   6.993  97.021

                      1                      2                      3
                      A                      A                      A
 Frequencies --     45.7644                77.3906               114.6047
 Red. masses --      2.7161                 3.6326                 4.4356
 Frc consts  --      0.0034                 0.0128                 0.0343
 IR Inten    --      0.5428                 1.5904                 4.4758

                      4                      5                      6
                      A                      A                      A
 Frequencies --    187.9673               294.3504               373.2748
 Red. masses --      2.8231                 2.9539                 2.7074
 Frc consts  --      0.0588                 0.1508                 0.2223
 IR Inten    --      0.1383                 0.8357                 2.9501

                      7                      8                      9
                      A                      A                      A
 Frequencies --    380.8764               494.0024               569.2298
 Red. masses --      3.7988                 2.5947                 4.0707
 Frc consts  --      0.3247                 0.3731                 0.7771
 IR Inten    --      3.5169                 5.1809                 3.6149

                     10                     11                     12
                      A                      A                      A
 Frequencies --    715.9642               755.3428               781.3389
 Red. masses --      1.3049                 1.3130                 3.8637
 Frc consts  --      0.3941                 0.4414                 1.3897
 IR Inten    --     14.4109                 0.6279                 3.0302

                     13                     14                     15
                      A                      A                      A
 Frequencies --    813.7655               819.3848               849.6578
 Red. masses --      3.1917                 1.6134                 2.4503
 Frc consts  --      1.2453                 0.6382                 1.0422
 IR Inten    --     24.6501                 2.2831                10.7648

                     16                     17                     18
                      A                      A                      A
 Frequencies --    932.5066               939.0889               958.1401
 Red. masses --      3.4555                 2.1533                 1.2750
 Frc consts  --      1.7704                 1.1189                 0.6896
 IR Inten    --     19.2824                 1.5581                 0.2264

                     19                     20                     21
                      A                      A                      A
 Frequencies --    962.2166               984.9206              1031.4674
 Red. masses --      3.1536                 2.4363                 2.3510
 Frc consts  --      1.7203                 1.3925                 1.4737
 IR Inten    --     22.5003                 9.9695                40.2635

                     22                     23                     24
                      A                      A                      A
 Frequencies --   1038.9961              1042.3065              1065.6975
 Red. masses --      1.7060                 1.9042                 2.2446
 Frc consts  --      1.0851                 1.2189                 1.5019
 IR Inten    --     12.5599                93.5246               176.2791

                     25                     26                     27
                      A                      A                      A
 Frequencies --   1068.7736              1103.3151              1122.7085
 Red. masses --      1.4989                 4.1873                 1.2130
 Frc consts  --      1.0088                 3.0032                 0.9009
 IR Inten    --     51.9828                62.8994                 0.5660

                     28                     29                     30
                      A                      A                      A
 Frequencies --   1129.6031              1191.5950              1196.8491
 Red. masses --      1.3320                 1.3385                 2.0231
 Frc consts  --      1.0014                 1.1197                 1.7074
 IR Inten    --     20.9603                 0.3430                52.4337

                     31                     32                     33
                      A                      A                      A
 Frequencies --   1201.2424              1242.0974              1309.9043
 Red. masses --      1.1827                 1.9873                 1.2889
 Frc consts  --      1.0055                 1.8064                 1.3030
 IR Inten    --      5.9272                32.8366                19.9122

                     34                     35                     36
                      A                      A                      A
 Frequencies --   1365.7595              1370.1217              1386.1325
 Red. masses --      1.4093                 1.6028                 1.4999
 Frc consts  --      1.5488                 1.7727                 1.6979
 IR Inten    --     11.4295                89.8741                 8.8742

                     37                     38                     39
                      A                      A                      A
 Frequencies --   1424.4331              1456.5910              1498.8077
 Red. masses --      1.3018                 1.0915                 1.4487
 Frc consts  --      1.5562                 1.3644                 1.9174
 IR Inten    --     10.3901                 1.1839                15.3603

                     40                     41                     42
                      A                      A                      A
 Frequencies --   1512.0848              1692.2250              2984.9809
 Red. masses --      1.0860                 6.4795                 1.0707
 Frc consts  --      1.4630                10.9322                 5.6211
 IR Inten    --      1.1159                 3.0470               104.6924

                     43                     44                     45
                      A                      A                      A
 Frequencies --   2986.9731              3023.8484              3096.2613
 Red. masses --      1.0780                 1.0961                 1.0866
 Frc consts  --      5.6666                 5.9050                 6.1377
 IR Inten    --      7.8760                42.6196                36.7827

                     46                     47                     48
                      A                      A                      A
 Frequencies --   3139.7149              3146.2665              3214.4534
 Red. masses --      1.0526                 1.0595                 1.0872
 Frc consts  --      6.1137                 6.1794                 6.6187
 IR Inten    --     14.7277                 8.3200                 3.6995

                     49                     50                     51
                      A                      A                      A
 Frequencies --   3225.6454              3242.9589              3244.7786
 Red. masses --      1.1174                 1.1060                 1.1142
 Frc consts  --      6.8497                 6.8533                 6.9120
 IR Inten    --      3.1960                 6.3753                10.1589

 - Thermochemistry -
 -------------------
 Temperature   298.150 Kelvin.  Pressure   1.00000 Atm.
 Atom     1 has atomic number  6 and mass  12.00000

 Molecular mass:   126.06808 amu.
 Principal axes and moments of inertia in atomic units:
                           1         2         3
     Eigenvalues --   424.238941755.408871970.34276
           X            0.99998  -0.00134   0.00608
           Y            0.00112   0.99934   0.03632
           Z           -0.00612  -0.03631   0.99932
 This molecule is an asymmetric top.
 Rotational symmetry number  1.
 Rotational temperatures (Kelvin)      0.20416     0.04934     0.04396
 Rotational constants (GHZ):           4.25407     1.02810     0.91595
 Zero-point vibrational energy     417534.9 (Joules/Mol)
                                   99.79323 (Kcal/Mol)
 Warning -- explicit consideration of   9 degrees of freedom as
           vibrations may cause significant error
 Vibrational temperatures:     65.84   111.35   164.89   270.44   423.50
          (Kelvin)            537.06   548.00   710.76   818.99  1030.11
                             1086.77  1124.17  1170.83  1178.91  1222.47
                             1341.67  1351.14  1378.55  1384.41  1417.08
                             1484.05  1494.88  1499.64  1533.30  1537.72
                             1587.42  1615.33  1625.24  1714.44  1722.00
                             1728.32  1787.10  1884.66  1965.02  1971.30
                             1994.33  2049.44  2095.71  2156.45  2175.55
                             2434.73  4294.72  4297.58  4350.64  4454.82
                             4517.34  4526.77  4624.88  4640.98  4665.89
                             4668.51

 Zero-point correction=                           0.159031 (Hartree/Particle)
 Thermal correction to Energy=                    0.167333
 Thermal correction to Enthalpy=                  0.168277
 Thermal correction to Gibbs Free Energy=         0.125021
 Sum of electronic and zero-point Energies=           -423.004612
 Sum of electronic and thermal Energies=              -422.996310
 Sum of electronic and thermal Enthalpies=            -422.995366
 Sum of electronic and thermal Free Energies=         -423.038621

                     E (Thermal)             CV                S
                      KCal/Mol        Cal/Mol-Kelvin    Cal/Mol-Kelvin
 Total                  105.003             31.043             91.039
 Electronic               0.000              0.000              0.000
 Translational            0.889              2.981             40.409
 Rotational               0.889              2.981             28.775
 Vibrational            103.225             25.081             21.856
 Vibration     1          0.595              1.979              4.993
 Vibration     2          0.599              1.964              3.956
 Vibration     3          0.608              1.937              3.189
 Vibration     4          0.633              1.856              2.248
 Vibration     5          0.689              1.684              1.449
 Vibration     6          0.745              1.527              1.066
 Vibration     7          0.751              1.511              1.036
 Vibration     8          0.850              1.263              0.673
 Vibration     9          0.925              1.098              0.506

 Normal termination of Gaussian 09 at Mon Jan 27 11:53:05 2020.
