 Gaussian 09, Revision D.01,
 Gaussian 09:  ES64L-G09RevD.01 24-Apr-2013

 -----------------------------
 # b3lyp 6-31G(2df,p) opt Freq
 -----------------------------

 -----
 titel
 -----
 Symbolic Z-matrix:
 Charge =  0 Multiplicity = 1

 SCF Done:  E(RB3LYP) =  -423.210098997     A.U. after   14 cycles
 Optimization completed.
    -- Stationary point found.
 Normal termination of Gaussian 09 at Mon Jan 27 22:52:09 2020.

 ----------------------------------------------------------------------
 #N Geom=AllCheck Guess=TCheck SCRF=Check GenChk RB3LYP/6-31G(2df,p) Fr
 eq
 ----------------------------------------------------------------------

 Structure from the checkpoint file:  "/scratch/puck/g09_570f32ac-1c63-4a9a-821c-104340ace7d7/Gau-101119.chk"
 -----
 titel
 -----
 Charge =  0 Multiplicity = 1

                         Standard orientation:
 ---------------------------------------------------------------------
 Center     Atomic      Atomic             Coordinates (Angstroms)
 Number     Number       Type             X           Y           Z
 ---------------------------------------------------------------------
      1          6           0        3.098907    0.182929   -0.347311
      2          6           0        1.612762   -0.082205   -0.447260
      3          6           0        0.898182   -0.777084    0.660759
      4          6           0       -0.409883   -1.503072    0.335089
      5          6           0       -1.246198   -0.488624   -0.468005
      6          8           0       -2.629485   -0.589977   -0.263742
      7          6           0       -0.722370    0.874397    0.029236
      8          8           0       -1.453234    1.831695    0.152967
      9          6           0        0.684644    0.732465    0.459941
     10          1           0        3.400818    0.354307    0.690843
     11          1           0        3.670285   -0.671697   -0.724943
     12          1           0        3.385824    1.064070   -0.930136
     13          1           0        1.259838   -0.263807   -1.459301
     14          1           0        1.482886   -1.119423    1.508031
     15          1           0       -0.247084   -2.443759   -0.199316
     16          1           0       -0.954927   -1.728122    1.257411
     17          1           0       -1.013739   -0.572494   -1.543955
     18          1           0       -2.935023    0.324096   -0.148661
     19          1           0        1.116612    1.490248    1.101533
 ---------------------------------------------------------------------

 SCF Done:  E(RB3LYP) =  -423.210098997     A.U. after    1 cycles

 The electronic state is 1-A.
 Alpha  occ. eigenvalues --  -19.13886 -19.13104 -10.26948 -10.23606 -10.21705
 Alpha  occ. eigenvalues --  -10.21314 -10.20596 -10.19452 -10.19407  -1.05377
 Alpha  occ. eigenvalues --   -1.01134  -0.90142  -0.77358  -0.71670  -0.68636
 Alpha  occ. eigenvalues --   -0.61398  -0.57186  -0.55994  -0.49478  -0.48908
 Alpha  occ. eigenvalues --   -0.48345  -0.45497  -0.43028  -0.41548  -0.40844
 Alpha  occ. eigenvalues --   -0.39497  -0.38672  -0.37370  -0.36811  -0.34383
 Alpha  occ. eigenvalues --   -0.30174  -0.29458  -0.26762  -0.24882
 Alpha virt. eigenvalues --   -0.02112   0.08335   0.08966   0.11015   0.11186
 Alpha virt. eigenvalues --    0.12501   0.14276   0.15070   0.15751   0.16899
 Alpha virt. eigenvalues --    0.17409   0.17904   0.18988   0.20808   0.24402

 Mulliken charges:
               1
     1  C   -0.422060
     2  C   -0.015096
     3  C   -0.060657
     4  C   -0.252186
     5  C    0.038201
     6  O   -0.447552
     7  C    0.388995
     8  O   -0.356887
     9  C   -0.164212
    10  H    0.121894
    11  H    0.127071
    12  H    0.129258
    13  H    0.098129
    14  H    0.097465
    15  H    0.108662
    16  H    0.123116
    17  H    0.089722
    18  H    0.289307
    19  H    0.106829
 Sum of Mulliken charges =   0.00000

 Dipole moment (field-independent basis, Debye):
    X=              3.3160    Y=             -1.1007    Z=             -0.0261  Tot=              3.4940
 Quadrupole moment (field-independent basis, Debye-Ang):
   XX=            -55.8678   YY=            -57.6325   ZZ=            -51.1032
   XY=              0.0757   XZ=              0.0802   YZ=             -0.6532

  Exact polarizability:  92.944  -3.258  74.626  -1.055   0.789  61.529
 Approx polarizability: 122.920 -12.024 118.649  -2.927   2.760  96.685

                      1                      2                      3
                      A                      A                      A
 Frequencies --    106.2998               158.3890               213.0682
 Red. masses --      4.9306                 2.9570                 1.2537
 Frc consts  --      0.0328                 0.0437                 0.0335
 IR Inten    --      1.4606                 0.8064                 0.5017

                      4                      5                      6
                      A                      A                      A
 Frequencies --    224.1690               275.3981               293.6322
 Red. masses --      2.4200                 2.4631                 4.0884
 Frc consts  --      0.0717                 0.1101                 0.2077
 IR Inten    --      1.0632                 4.6680                16.6918

                      7                      8                      9
                      A                      A                      A
 Frequencies --    383.4126               407.9322               437.1924
 Red. masses --      3.8639                 2.0812                 1.7667
 Frc consts  --      0.3347                 0.2040                 0.1990
 IR Inten    --      4.7534                30.9137                18.4166

                     10                     11                     12
                      A                      A                      A
 Frequencies --    476.3505               622.2703               635.9012
 Red. masses --      2.2490                 4.7198                 5.0774
 Frc consts  --      0.3007                 1.0768                 1.2097
 IR Inten    --     28.0312                 1.4200                 5.8466

                     13                     14                     15
                      A                      A                      A
 Frequencies --    728.0959               765.5276               801.8819
 Red. masses --      3.7896                 3.3292                 3.0067
 Frc consts  --      1.1836                 1.1495                 1.1391
 IR Inten    --      5.9473                 2.8828                21.1886

                     16                     17                     18
                      A                      A                      A
 Frequencies --    840.0177               892.9908               959.8107
 Red. masses --      2.5075                 1.3606                 1.9959
 Frc consts  --      1.0425                 0.6392                 1.0833
 IR Inten    --     10.7560                 9.3318                 2.8606

                     19                     20                     21
                      A                      A                      A
 Frequencies --    984.0397              1007.7934              1019.4322
 Red. masses --      1.6104                 1.8072                 1.8640
 Frc consts  --      0.9188                 1.0814                 1.1413
 IR Inten    --     16.5594                 8.1503                 5.1998

                     22                     23                     24
                      A                      A                      A
 Frequencies --   1063.1635              1085.5137              1112.4988
 Red. masses --      2.9838                 1.1160                 2.3006
 Frc consts  --      1.9871                 0.7748                 1.6776
 IR Inten    --      9.3382                 6.0139                69.4425

                     25                     26                     27
                      A                      A                      A
 Frequencies --   1128.3849              1153.8321              1191.7159
 Red. masses --      1.6278                 1.8598                 1.7235
 Frc consts  --      1.2211                 1.4588                 1.4421
 IR Inten    --     57.1936                29.8355                 2.6726

                     28                     29                     30
                      A                      A                      A
 Frequencies --   1208.5207              1221.3042              1253.0441
 Red. masses --      1.6296                 2.2656                 1.2156
 Frc consts  --      1.4023                 1.9911                 1.1246
 IR Inten    --      4.1768                25.4343                28.5949

                     31                     32                     33
                      A                      A                      A
 Frequencies --   1295.2013              1303.4557              1327.7840
 Red. masses --      1.5480                 1.8146                 1.3399
 Frc consts  --      1.5300                 1.8164                 1.3918
 IR Inten    --      6.1042                 5.3861                13.3474

                     34                     35                     36
                      A                      A                      A
 Frequencies --   1387.3653              1418.3150              1421.8511
 Red. masses --      1.4312                 1.2369                 1.4652
 Frc consts  --      1.6231                 1.4660                 1.7453
 IR Inten    --      4.8257                 5.2578                67.9474

                     37                     38                     39
                      A                      A                      A
 Frequencies --   1441.5907              1491.3844              1494.9557
 Red. masses --      2.2225                 1.0507                 1.0835
 Frc consts  --      2.7213                 1.3769                 1.4267
 IR Inten    --      2.7175                 3.1714                 1.5511

                     40                     41                     42
                      A                      A                      A
 Frequencies --   1502.3867              1817.1430              2946.1676
 Red. masses --      1.0834                12.1243                 1.0797
 Frc consts  --      1.4408                23.5877                 5.5217
 IR Inten    --      5.1988               259.4025                35.8256

                     43                     44                     45
                      A                      A                      A
 Frequencies --   3033.0204              3052.3658              3098.0861
 Red. masses --      1.0350                 1.0587                 1.1060
 Frc consts  --      5.6098                 5.8118                 6.2544
 IR Inten    --     28.7942                26.8379                16.2669

                     46                     47                     48
                      A                      A                      A
 Frequencies --   3099.4961              3103.0371              3138.9776
 Red. masses --      1.1012                 1.1004                 1.0897
 Frc consts  --      6.2329                 6.2425                 6.3260
 IR Inten    --     17.8068                13.9896                16.7311

                     49                     50                     51
                      A                      A                      A
 Frequencies --   3168.5535              3198.1834              3689.4590
 Red. masses --      1.0895                 1.0918                 1.0650
 Frc consts  --      6.4446                 6.5794                 8.5411
 IR Inten    --     12.7684                 4.6891                47.4722

 - Thermochemistry -
 -------------------
 Temperature   298.150 Kelvin.  Pressure   1.00000 Atm.
 Atom     1 has atomic number  6 and mass  12.00000

 Molecular mass:   126.06808 amu.
 Principal axes and moments of inertia in atomic units:
                           1         2         3
     Eigenvalues --   556.566741477.308811828.96616
           X            0.99990   0.01396  -0.00290
           Y           -0.01398   0.99987  -0.00771
           Z            0.00279   0.00775   0.99997
 This molecule is an asymmetric top.
 Rotational symmetry number  1.
 Warning -- assumption of classical behavior for rotation
           may cause significant error
 Rotational temperatures (Kelvin)      0.15562     0.05863     0.04736
 Rotational constants (GHZ):           3.24263     1.22164     0.98675
 Zero-point vibrational energy     419173.7 (Joules/Mol)
                                  100.18491 (Kcal/Mol)
 Warning -- explicit consideration of  10 degrees of freedom as
           vibrations may cause significant error
 Vibrational temperatures:    152.94   227.89   306.56   322.53   396.24
          (Kelvin)            422.47   551.64   586.92   629.02   685.36
                              895.31   914.92  1047.57  1101.42  1153.73
                             1208.60  1284.81  1380.95  1415.81  1449.99
                             1466.73  1529.65  1561.81  1600.64  1623.49
                             1660.10  1714.61  1738.79  1757.18  1802.85
                             1863.50  1875.38  1910.38  1996.11  2040.64
                             2045.72  2074.12  2145.77  2150.91  2161.60
                             2614.46  4238.87  4363.83  4391.67  4457.45
                             4459.48  4464.57  4516.28  4558.84  4601.47
                             5308.30

 Zero-point correction=                           0.159655 (Hartree/Particle)
 Thermal correction to Energy=                    0.168021
 Thermal correction to Enthalpy=                  0.168966
 Thermal correction to Gibbs Free Energy=         0.126937
 Sum of electronic and zero-point Energies=           -423.050444
 Sum of electronic and thermal Energies=              -423.042078
 Sum of electronic and thermal Enthalpies=            -423.041133
 Sum of electronic and thermal Free Energies=         -423.083162

                     E (Thermal)             CV                S
                      KCal/Mol        Cal/Mol-Kelvin    Cal/Mol-Kelvin
 Total                  105.435             32.421             88.456
 Electronic               0.000              0.000              0.000
 Translational            0.889              2.981             40.409
 Rotational               0.889              2.981             28.799
 Vibrational            103.658             26.459             19.249
 Vibration     1          0.605              1.944              3.335
 Vibration     2          0.621              1.893              2.569
 Vibration     3          0.644              1.821              2.017
 Vibration     4          0.649              1.804              1.925
 Vibration     5          0.677              1.719              1.562
 Vibration     6          0.688              1.686              1.453
 Vibration     7          0.753              1.506              1.026
 Vibration     8          0.773              1.453              0.934
 Vibration     9          0.798              1.389              0.835
 Vibration    10          0.833              1.303              0.720

 Normal termination of Gaussian 09 at Mon Jan 27 23:34:33 2020.
