 Gaussian 09, Revision D.01,
 Gaussian 09:  ES64L-G09RevD.01 24-Apr-2013

 -----------------------------
 # b3lyp 6-31G(2df,p) opt Freq
 -----------------------------

 -----
 titel
 -----
 Symbolic Z-matrix:
 Charge =  0 Multiplicity = 1

 SCF Done:  E(RB3LYP) =  -423.144417016     A.U. after   13 cycles
 Optimization completed.
    -- Stationary point found.
 Normal termination of Gaussian 09 at Mon Jan 27 23:50:02 2020.

 ----------------------------------------------------------------------
 #N Geom=AllCheck Guess=TCheck SCRF=Check GenChk RB3LYP/6-31G(2df,p) Fr
 eq
 ----------------------------------------------------------------------

 Structure from the checkpoint file:  "/scratch/puck/g09_374d9f63-5722-4161-aca4-03014283982d/Gau-186257.chk"
 -----
 titel
 -----
 Charge =  0 Multiplicity = 1

                         Standard orientation:
 ---------------------------------------------------------------------
 Center     Atomic      Atomic             Coordinates (Angstroms)
 Number     Number       Type             X           Y           Z
 ---------------------------------------------------------------------
      1          6           0        2.422034   -0.454177    0.226476
      2          6           0        1.069987   -0.542290   -0.473995
      3          6           0       -0.051334   -1.309204    0.296033
      4          6           0       -1.224127   -1.237171   -0.702951
      5          6           0       -1.336955    0.293442   -0.594990
      6          8           0       -1.724006    0.452966    0.803850
      7          6           0       -0.378979    0.049072    1.090716
      8          6           0        0.169859    0.670848   -0.224127
      9          8           0        0.648568    1.951969   -0.417555
     10          1           0        2.320017   -0.169782    1.278824
     11          1           0        2.940710   -1.417548    0.189453
     12          1           0        3.058696    0.294356   -0.254524
     13          1           0        1.202207   -0.845290   -1.518755
     14          1           0        0.157885   -2.244548    0.810381
     15          1           0       -0.955875   -1.609434   -1.695069
     16          1           0       -2.147087   -1.713409   -0.364876
     17          1           0       -1.949182    0.864707   -1.292783
     18          1           0       -0.048276    0.206069    2.115114
     19          1           0        0.001492    2.572287   -0.061101
 ---------------------------------------------------------------------

 SCF Done:  E(RB3LYP) =  -423.144417016     A.U. after    1 cycles

 The electronic state is 1-A.
 Alpha  occ. eigenvalues --  -19.15119 -19.13526 -10.23824 -10.23443 -10.22948
 Alpha  occ. eigenvalues --  -10.19188 -10.18862 -10.18348 -10.17527  -1.06108
 Alpha  occ. eigenvalues --   -1.02640  -0.85688  -0.74507  -0.70008  -0.67294
 Alpha  occ. eigenvalues --   -0.60888  -0.57661  -0.54046  -0.52608  -0.49058
 Alpha  occ. eigenvalues --   -0.46964  -0.44622  -0.40971  -0.39550  -0.39201
 Alpha  occ. eigenvalues --   -0.37922  -0.37451  -0.35538  -0.34380  -0.33768
 Alpha  occ. eigenvalues --   -0.31011  -0.29045  -0.25352  -0.23894
 Alpha virt. eigenvalues --    0.07551   0.08765   0.10623   0.11838   0.12119
 Alpha virt. eigenvalues --    0.13689   0.15094   0.15915   0.16251   0.16594
 Alpha virt. eigenvalues --    0.17357   0.18984   0.19699   0.21291   0.22686

 Mulliken charges:
               1
     1  C   -0.420603
     2  C   -0.037494
     3  C   -0.096281
     4  C   -0.217062
     5  C   -0.024422
     6  O   -0.301518
     7  C    0.008830
     8  C    0.421789
     9  O   -0.489701
    10  H    0.116773
    11  H    0.112760
    12  H    0.129906
    13  H    0.066080
    14  H    0.070956
    15  H    0.098991
    16  H    0.106732
    17  H    0.077565
    18  H    0.086518
    19  H    0.290181
 Sum of Mulliken charges =   0.00000

 Dipole moment (field-independent basis, Debye):
    X=              0.3123    Y=             -0.4478    Z=             -0.2975  Tot=              0.6218
 Quadrupole moment (field-independent basis, Debye-Ang):
   XX=            -56.7012   YY=            -50.6637   ZZ=            -52.3761
   XY=             -1.9859   XZ=              3.5833   YZ=              0.8092

  Exact polarizability:  79.634  -0.989  73.585   2.767   0.916  67.608
 Approx polarizability: 110.641  -2.493 109.078  -0.243   1.084 107.487

                      1                      2                      3
                      A                      A                      A
 Frequencies --    195.1062               206.4106               219.4600
 Red. masses --      2.1222                 1.4544                 2.3320
 Frc consts  --      0.0476                 0.0365                 0.0662
 IR Inten    --      1.2638                 0.2800                 2.6537

                      4                      5                      6
                      A                      A                      A
 Frequencies --    282.3286               334.1994               366.6168
 Red. masses --      2.4136                 2.0567                 1.7072
 Frc consts  --      0.1133                 0.1353                 0.1352
 IR Inten    --     17.0882                23.7627                55.0112

                      7                      8                      9
                      A                      A                      A
 Frequencies --    462.8189               492.2873               532.6842
 Red. masses --      2.0918                 3.5463                 4.4511
 Frc consts  --      0.2640                 0.5064                 0.7442
 IR Inten    --      6.6718                 0.4325                 0.7164

                     10                     11                     12
                      A                      A                      A
 Frequencies --    639.7011               695.5803               747.0409
 Red. masses --      5.0006                 3.8633                 3.5760
 Frc consts  --      1.2057                 1.1013                 1.1758
 IR Inten    --      7.0068                 5.6115                 0.0235

                     13                     14                     15
                      A                      A                      A
 Frequencies --    771.7177               842.7943               868.4774
 Red. masses --      2.3467                 3.3856                 2.4160
 Frc consts  --      0.8234                 1.4169                 1.0737
 IR Inten    --      2.3662                17.9340                 1.6866

                     16                     17                     18
                      A                      A                      A
 Frequencies --    923.7464               929.2058               945.0160
 Red. masses --      2.1744                 2.3496                 2.6995
 Frc consts  --      1.0932                 1.1953                 1.4204
 IR Inten    --     10.3969                21.3046                25.9063

                     19                     20                     21
                      A                      A                      A
 Frequencies --    963.9275               984.6216              1003.1159
 Red. masses --      2.3233                 2.8721                 1.6723
 Frc consts  --      1.2719                 1.6406                 0.9915
 IR Inten    --      4.7959                 7.1398                 5.4806

                     22                     23                     24
                      A                      A                      A
 Frequencies --   1025.6357              1055.7855              1081.2351
 Red. masses --      2.3856                 1.2940                 1.6689
 Frc consts  --      1.4785                 0.8498                 1.1496
 IR Inten    --     38.7813                 1.7399                 6.5283

                     25                     26                     27
                      A                      A                      A
 Frequencies --   1089.7900              1119.8870              1148.1202
 Red. masses --      1.8017                 1.7169                 1.8622
 Frc consts  --      1.2607                 1.2687                 1.4462
 IR Inten    --      5.3264                 2.2136                19.9956

                     28                     29                     30
                      A                      A                      A
 Frequencies --   1172.3799              1205.8637              1226.3078
 Red. masses --      1.8601                 1.7586                 1.2807
 Frc consts  --      1.5063                 1.5067                 1.1348
 IR Inten    --      0.7099                29.5800                 0.2643

                     31                     32                     33
                      A                      A                      A
 Frequencies --   1237.3928              1250.6009              1286.5659
 Red. masses --      1.9248                 1.5400                 1.5873
 Frc consts  --      1.7364                 1.4191                 1.5480
 IR Inten    --     19.6147                14.0566                 7.1312

                     34                     35                     36
                      A                      A                      A
 Frequencies --   1315.3656              1351.0472              1355.1842
 Red. masses --      1.6785                 2.2438                 1.4283
 Frc consts  --      1.7111                 2.4131                 1.5455
 IR Inten    --     36.1741               110.8934                 6.3262

                     37                     38                     39
                      A                      A                      A
 Frequencies --   1411.5291              1424.9363              1486.8975
 Red. masses --      1.4702                 1.7746                 1.1035
 Frc consts  --      1.7258                 2.1230                 1.4375
 IR Inten    --      1.4033                 4.0024                 3.9303

                     40                     41                     42
                      A                      A                      A
 Frequencies --   1494.4409              1501.0803              3036.4501
 Red. masses --      1.0522                 1.0686                 1.0371
 Frc consts  --      1.3845                 1.4186                 5.6336
 IR Inten    --      3.0402                 7.1188                25.4888

                     43                     44                     45
                      A                      A                      A
 Frequencies --   3038.8135              3065.3871              3102.9461
 Red. masses --      1.0827                 1.0581                 1.1011
 Frc consts  --      5.8907                 5.8581                 6.2463
 IR Inten    --     24.7517                30.3830                28.3662

                     46                     47                     48
                      A                      A                      A
 Frequencies --   3109.1488              3120.0762              3124.2549
 Red. masses --      1.1011                 1.1066                 1.0918
 Frc consts  --      6.2714                 6.3469                 6.2791
 IR Inten    --     17.4797                22.2064                43.7844

                     49                     50                     51
                      A                      A                      A
 Frequencies --   3139.1328              3148.8500              3789.8232
 Red. masses --      1.0904                 1.0929                 1.0654
 Frc consts  --      6.3307                 6.3848                 9.0159
 IR Inten    --     20.4058                29.2673                27.3564

 - Thermochemistry -
 -------------------
 Temperature   298.150 Kelvin.  Pressure   1.00000 Atm.
 Atom     1 has atomic number  6 and mass  12.00000

 Molecular mass:   126.06808 amu.
 Principal axes and moments of inertia in atomic units:
                           1         2         3
     Eigenvalues --   688.23708 966.811791253.18517
           X            0.99909  -0.02226   0.03643
           Y            0.02165   0.99962   0.01707
           Z           -0.03679  -0.01627   0.99919
 This molecule is an asymmetric top.
 Rotational symmetry number  1.
 Warning -- assumption of classical behavior for rotation
           may cause significant error
 Rotational temperatures (Kelvin)      0.12585     0.08959     0.06911
 Rotational constants (GHZ):           2.62227     1.86669     1.44012
 Zero-point vibrational energy     420617.7 (Joules/Mol)
                                  100.53004 (Kcal/Mol)
 Warning -- explicit consideration of   9 degrees of freedom as
           vibrations may cause significant error
 Vibrational temperatures:    280.71   296.98   315.75   406.21   480.84
          (Kelvin)            527.48   665.89   708.29   766.41   920.39
                             1000.78  1074.82  1110.33  1212.59  1249.54
                             1329.06  1336.92  1359.67  1386.87  1416.65
                             1443.26  1475.66  1519.04  1555.65  1567.96
                             1611.27  1651.89  1686.79  1734.97  1764.38
                             1780.33  1799.33  1851.08  1892.52  1943.85
                             1949.81  2030.87  2050.16  2139.31  2150.16
                             2159.72  4368.77  4372.17  4410.40  4464.44
                             4473.37  4489.09  4495.10  4516.51  4530.49
                             5452.70

 Zero-point correction=                           0.160205 (Hartree/Particle)
 Thermal correction to Energy=                    0.167668
 Thermal correction to Enthalpy=                  0.168612
 Thermal correction to Gibbs Free Energy=         0.128865
 Sum of electronic and zero-point Energies=           -422.984212
 Sum of electronic and thermal Energies=              -422.976749
 Sum of electronic and thermal Enthalpies=            -422.975805
 Sum of electronic and thermal Free Energies=         -423.015552

                     E (Thermal)             CV                S
                      KCal/Mol        Cal/Mol-Kelvin    Cal/Mol-Kelvin
 Total                  105.213             30.696             83.655
 Electronic               0.000              0.000              0.000
 Translational            0.889              2.981             40.409
 Rotational               0.889              2.981             28.213
 Vibrational            103.436             24.735             15.034
 Vibration     1          0.636              1.847              2.179
 Vibration     2          0.641              1.831              2.075
 Vibration     3          0.647              1.811              1.964
 Vibration     4          0.681              1.706              1.520
 Vibration     5          0.716              1.607              1.240
 Vibration     6          0.740              1.541              1.094
 Vibration     7          0.820              1.333              0.758
 Vibration     8          0.848              1.267              0.678
 Vibration     9          0.888              1.178              0.581

 Optimization completed.
    -- Stationary point found.
 Normal termination of Gaussian 09 at Tue Jan 28 00:37:50 2020.
