 Gaussian 09, Revision D.01,
 Gaussian 09:  ES64L-G09RevD.01 24-Apr-2013

 -----------------------------
 # b3lyp 6-31G(2df,p) opt Freq
 -----------------------------

 -----
 titel
 -----
 Symbolic Z-matrix:
 Charge =  0 Multiplicity = 1

 SCF Done:  E(RB3LYP) =  -423.217341557     A.U. after   15 cycles
 Optimization completed.
    -- Stationary point found.
 Normal termination of Gaussian 09 at Tue Jan 28 00:52:01 2020.

 ----------------------------------------------------------------------
 #N Geom=AllCheck Guess=TCheck SCRF=Check GenChk RB3LYP/6-31G(2df,p) Fr
 eq
 ----------------------------------------------------------------------

 Structure from the checkpoint file:  "/scratch/puck/g09_5b9266d0-5ea0-4f23-a769-5bfea4b5cf6c/Gau-38716.chk"
 -----
 titel
 -----
 Charge =  0 Multiplicity = 1

                         Standard orientation:
 ---------------------------------------------------------------------
 Center     Atomic      Atomic             Coordinates (Angstroms)
 Number     Number       Type             X           Y           Z
 ---------------------------------------------------------------------
      1          6           0        2.991475   -0.457342   -0.500742
      2          6           0        1.766957   -0.225640    0.392649
      3          6           0        1.090952    1.161643    0.215191
      4          6           0       -0.420820    0.931309    0.410600
      5          8           0       -1.164124    1.749702   -0.470427
      6          6           0       -0.563651   -0.558360    0.137762
      7          6           0       -1.864274   -1.185202   -0.071203
      8          8           0       -2.910193   -0.562475   -0.091853
      9          6           0        0.623644   -1.178793    0.142804
     10          1           0        3.421783   -1.451311   -0.339507
     11          1           0        2.724800   -0.369926   -1.559149
     12          1           0        3.769488    0.282401   -0.288006
     13          1           0        2.086676   -0.350834    1.439229
     14          1           0        1.500304    1.924004    0.881438
     15          1           0        1.227735    1.506448   -0.815382
     16          1           0       -0.717035    1.132231    1.454859
     17          1           0       -2.077606    1.436477   -0.417907
     18          1           0       -1.856022   -2.285945   -0.222369
     19          1           0        0.768708   -2.247055    0.002669
 ---------------------------------------------------------------------

 SCF Done:  E(RB3LYP) =  -423.217341557     A.U. after    1 cycles

 The electronic state is 1-A.
 Alpha  occ. eigenvalues --  -19.14430 -19.12349 -10.27516 -10.23557 -10.21475
 Alpha  occ. eigenvalues --  -10.20789 -10.19617 -10.18772 -10.18463  -1.04847
 Alpha  occ. eigenvalues --   -1.00897  -0.86057  -0.76608  -0.72428  -0.66849
 Alpha  occ. eigenvalues --   -0.62075  -0.57274  -0.55182  -0.50638  -0.49703
 Alpha  occ. eigenvalues --   -0.46927  -0.44347  -0.42759  -0.41719  -0.40104
 Alpha  occ. eigenvalues --   -0.39235  -0.38203  -0.36454  -0.35400  -0.34458
 Alpha  occ. eigenvalues --   -0.32462  -0.27339  -0.26410  -0.25422
 Alpha virt. eigenvalues --   -0.06566   0.05267   0.08745   0.11286   0.11543
 Alpha virt. eigenvalues --    0.12614   0.13458   0.14531   0.15516   0.16346
 Alpha virt. eigenvalues --    0.17101   0.18024   0.19138   0.21156   0.23947

 Mulliken charges:
               1
     1  C   -0.400351
     2  C   -0.023316
     3  C   -0.245057
     4  C    0.034501
     5  O   -0.442767
     6  C    0.204340
     7  C    0.071975
     8  O   -0.291960
     9  C   -0.157568
    10  H    0.116084
    11  H    0.125014
    12  H    0.124386
    13  H    0.095858
    14  H    0.104817
    15  H    0.120755
    16  H    0.075112
    17  H    0.294953
    18  H    0.083187
    19  H    0.110039
 Sum of Mulliken charges =   0.00000

 Dipole moment (field-independent basis, Debye):
    X=              2.9438    Y=             -2.0018    Z=              0.9339  Tot=              3.6804
 Quadrupole moment (field-independent basis, Debye-Ang):
   XX=            -57.9621   YY=            -53.1868   ZZ=            -53.0948
   XY=              0.1295   XZ=             -0.1066   YZ=              1.6967

  Exact polarizability: 109.634  -3.229  77.765   2.016   1.986  56.088
 Approx polarizability: 168.036 -16.781 113.662   5.896   0.473  88.183

                      1                      2                      3
                      A                      A                      A
 Frequencies --     81.5515               103.5189               184.1526
 Red. masses --      3.0656                 4.4436                 5.5973
 Frc consts  --      0.0120                 0.0281                 0.1118
 IR Inten    --      1.1408                 2.1757                 9.2332

                      4                      5                      6
                      A                      A                      A
 Frequencies --    213.5769               239.4113               289.8697
 Red. masses --      1.7913                 1.4503                 2.8120
 Frc consts  --      0.0481                 0.0490                 0.1392
 IR Inten    --      2.1764                 0.7355                 2.8212

                      7                      8                      9
                      A                      A                      A
 Frequencies --    308.1623               411.0755               435.1694
 Red. masses --      2.5757                 3.0755                 2.8074
 Frc consts  --      0.1441                 0.3062                 0.3132
 IR Inten    --      9.4197                13.5665                 3.5074

                     10                     11                     12
                      A                      A                      A
 Frequencies --    468.0356               513.7757               578.2741
 Red. masses --      4.3402                 1.1150                 2.6782
 Frc consts  --      0.5602                 0.1734                 0.5277
 IR Inten    --      1.2437               115.8783                 0.0582

                     13                     14                     15
                      A                      A                      A
 Frequencies --    623.0364               741.2260               814.8450
 Red. masses --      3.3499                 5.7806                 3.0113
 Frc consts  --      0.7661                 1.8712                 1.1780
 IR Inten    --     12.0095                20.1950                 3.9209

                     16                     17                     18
                      A                      A                      A
 Frequencies --    852.3280               884.6119               941.6171
 Red. masses --      2.5222                 1.3218                 1.5442
 Frc consts  --      1.0795                 0.6094                 0.8067
 IR Inten    --      7.5692                 8.0846                 3.6879

                     19                     20                     21
                      A                      A                      A
 Frequencies --    943.1448               992.4366              1037.0742
 Red. masses --      1.6761                 2.4570                 1.8197
 Frc consts  --      0.8784                 1.4258                 1.1531
 IR Inten    --      4.7270                 4.8053                 0.2792

                     22                     23                     24
                      A                      A                      A
 Frequencies --   1047.0748              1084.9138              1116.6761
 Red. masses --      1.9150                 2.2794                 2.3736
 Frc consts  --      1.2370                 1.5807                 1.7439
 IR Inten    --     17.0892                37.2755                20.9210

                     25                     26                     27
                      A                      A                      A
 Frequencies --   1143.6303              1191.1204              1227.2318
 Red. masses --      1.8883                 1.8576                 1.5021
 Frc consts  --      1.4551                 1.5528                 1.3329
 IR Inten    --     25.6477                 8.2554                15.2003

                     28                     29                     30
                      A                      A                      A
 Frequencies --   1276.6837              1292.5682              1296.2284
 Red. masses --      1.2562                 1.3615                 1.3637
 Frc consts  --      1.2064                 1.3402                 1.3500
 IR Inten    --     12.6434                42.7352                13.2802

                     31                     32                     33
                      A                      A                      A
 Frequencies --   1329.6548              1344.1195              1372.9414
 Red. masses --      1.7675                 1.5011                 1.7821
 Frc consts  --      1.8411                 1.5979                 1.9792
 IR Inten    --     42.6938                 8.4058                39.2099

                     34                     35                     36
                      A                      A                      A
 Frequencies --   1408.6644              1416.7845              1430.1618
 Red. masses --      1.2406                 1.2645                 1.5342
 Frc consts  --      1.4504                 1.4955                 1.8489
 IR Inten    --      1.0860                 0.5688                44.4719

                     37                     38                     39
                      A                      A                      A
 Frequencies --   1487.9719              1497.5435              1499.8128
 Red. masses --      1.0899                 1.0475                 1.0524
 Frc consts  --      1.4218                 1.3841                 1.3948
 IR Inten    --      1.0499                 5.8552                 2.7726

                     40                     41                     42
                      A                      A                      A
 Frequencies --   1684.5354              1757.6473              2901.9565
 Red. masses --      7.8056                 9.6043                 1.0839
 Frc consts  --     13.0502                17.4815                 5.3781
 IR Inten    --     41.0850               264.4097               113.9228

                     43                     44                     45
                      A                      A                      A
 Frequencies --   2944.8668              2979.1809              3032.6347
 Red. masses --      1.0816                 1.0810                 1.0348
 Frc consts  --      5.5265                 5.6531                 5.6071
 IR Inten    --     53.5899                17.3930                27.2658

                     46                     47                     48
                      A                      A                      A
 Frequencies --   3055.7559              3102.3750              3107.3777
 Red. masses --      1.0620                 1.1018                 1.1020
 Frc consts  --      5.8428                 6.2481                 6.2693
 IR Inten    --     16.3289                25.5211                14.0733

                     49                     50                     51
                      A                      A                      A
 Frequencies --   3113.9777              3168.8156              3752.3634
 Red. masses --      1.1027                 1.0930                 1.0654
 Frc consts  --      6.3000                 6.4664                 8.8387
 IR Inten    --     32.1121                11.9497                60.4417

 - Thermochemistry -
 -------------------
 Temperature   298.150 Kelvin.  Pressure   1.00000 Atm.
 Atom     1 has atomic number  6 and mass  12.00000

 Molecular mass:   126.06808 amu.
 Principal axes and moments of inertia in atomic units:
                           1         2         3
     Eigenvalues --   583.467021566.081452005.82357
           X            0.99994  -0.00781  -0.00737
           Y            0.00795   0.99976   0.02024
           Z            0.00721  -0.02030   0.99977
 This molecule is an asymmetric top.
 Rotational symmetry number  1.
 Warning -- assumption of classical behavior for rotation
           may cause significant error
 Rotational temperatures (Kelvin)      0.14845     0.05531     0.04318
 Rotational constants (GHZ):           3.09313     1.15239     0.89975
 Zero-point vibrational energy     417031.1 (Joules/Mol)
                                   99.67283 (Kcal/Mol)
 Warning -- explicit consideration of  12 degrees of freedom as
           vibrations may cause significant error
 Vibrational temperatures:    117.33   148.94   264.95   307.29   344.46
          (Kelvin)            417.06   443.38   591.45   626.11   673.40
                              739.21   832.01   896.41  1066.46  1172.38
                             1226.31  1272.76  1354.78  1356.97  1427.89
                             1492.12  1506.51  1560.95  1606.65  1645.43
                             1713.75  1765.71  1836.86  1859.72  1864.98
                             1913.07  1933.89  1975.35  2026.75  2038.43
                             2057.68  2140.86  2154.63  2157.89  2423.67
                             2528.86  4175.26  4237.00  4286.37  4363.28
                             4396.55  4463.62  4470.82  4480.31  4559.21
                             5398.81

 Zero-point correction=                           0.158839 (Hartree/Particle)
 Thermal correction to Energy=                    0.167690
 Thermal correction to Enthalpy=                  0.168634
 Thermal correction to Gibbs Free Energy=         0.125208
 Sum of electronic and zero-point Energies=           -423.058503
 Sum of electronic and thermal Energies=              -423.049652
 Sum of electronic and thermal Enthalpies=            -423.048708
 Sum of electronic and thermal Free Energies=         -423.092134

                     E (Thermal)             CV                S
                      KCal/Mol        Cal/Mol-Kelvin    Cal/Mol-Kelvin
 Total                  105.227             33.173             91.398
 Electronic               0.000              0.000              0.000
 Translational            0.889              2.981             40.409
 Rotational               0.889              2.981             28.996
 Vibrational            103.449             27.212             21.994
 Vibration     1          0.600              1.962              3.853
 Vibration     2          0.605              1.946              3.387
 Vibration     3          0.631              1.861              2.286
 Vibration     4          0.644              1.820              2.013
 Vibration     5          0.657              1.780              1.807
 Vibration     6          0.686              1.693              1.475
 Vibration     7          0.698              1.658              1.372
 Vibration     8          0.775              1.446              0.923
 Vibration     9          0.796              1.394              0.842
 Vibration    10          0.825              1.321              0.743
 Vibration    11          0.869              1.219              0.625
 Vibration    12          0.935              1.078              0.489

 Optimization completed.
    -- Stationary point found.
 Normal termination of Gaussian 09 at Tue Jan 28 02:53:16 2020.
