 Gaussian 09, Revision D.01,
 Gaussian 09:  ES64L-G09RevD.01 24-Apr-2013

 -----------------------------
 # b3lyp 6-31G(2df,p) opt Freq
 -----------------------------

 -----
 titel
 -----
 Symbolic Z-matrix:
 Charge =  0 Multiplicity = 1

 SCF Done:  E(RB3LYP) =  -423.216591493     A.U. after   14 cycles
 Optimization completed.
    -- Stationary point found.
 Normal termination of Gaussian 09 at Tue Jan 28 12:35:58 2020.

 ----------------------------------------------------------------------
 #N Geom=AllCheck Guess=TCheck SCRF=Check GenChk RB3LYP/6-31G(2df,p) Fr
 eq
 ----------------------------------------------------------------------

 Structure from the checkpoint file:  "/scratch/puck/g09_8ed972d0-c15d-4a97-812d-381a00090487/Gau-158003.chk"
 -----
 titel
 -----
 Charge =  0 Multiplicity = 1

                         Standard orientation:
 ---------------------------------------------------------------------
 Center     Atomic      Atomic             Coordinates (Angstroms)
 Number     Number       Type             X           Y           Z
 ---------------------------------------------------------------------
      1          6           0       -2.298676   -1.319489    0.646810
      2          6           0       -1.404405   -0.642519   -0.403156
      3          6           0        0.016452   -1.136427   -0.481170
      4          6           0        0.928664   -0.165860   -0.358738
      5          6           0        2.417249   -0.333832   -0.385077
      6          8           0        3.040322    0.179099    0.790157
      7          6           0        0.285367    1.185259   -0.161144
      8          6           0       -1.214019    0.863250   -0.117050
      9          8           0       -2.101170    1.640186    0.120816
     10          1           0       -2.489613   -2.364448    0.385257
     11          1           0       -1.828779   -1.297056    1.635225
     12          1           0       -3.254944   -0.793879    0.710990
     13          1           0       -1.904821   -0.728291   -1.380224
     14          1           0        0.258713   -2.184574   -0.629477
     15          1           0        2.673849   -1.390756   -0.552449
     16          1           0        2.853297    0.243305   -1.209778
     17          1           0        2.694329   -0.319547    1.538039
     18          1           0        0.607350    1.693787    0.754435
     19          1           0        0.493603    1.884887   -0.982655
 ---------------------------------------------------------------------

 SCF Done:  E(RB3LYP) =  -423.216591493     A.U. after    1 cycles

 The electronic state is 1-A.
 Alpha  occ. eigenvalues --  -19.14322 -19.13213 -10.26874 -10.23804 -10.20081
 Alpha  occ. eigenvalues --  -10.19695 -10.19379 -10.19189 -10.18443  -1.04282
 Alpha  occ. eigenvalues --   -1.02268  -0.85485  -0.76725  -0.71691  -0.68476
 Alpha  occ. eigenvalues --   -0.63102  -0.54938  -0.53174  -0.51185  -0.47011
 Alpha  occ. eigenvalues --   -0.46586  -0.44399  -0.43806  -0.42418  -0.40714
 Alpha  occ. eigenvalues --   -0.39050  -0.38067  -0.37352  -0.35869  -0.35207
 Alpha  occ. eigenvalues --   -0.33043  -0.28101  -0.25478  -0.24036
 Alpha virt. eigenvalues --   -0.01830   0.00203   0.07965   0.10872   0.11825
 Alpha virt. eigenvalues --    0.12564   0.14161   0.14492   0.16156   0.16945
 Alpha virt. eigenvalues --    0.17385   0.18459   0.18622   0.20726   0.23031

 Mulliken charges:
               1
     1  C   -0.390187
     2  C   -0.139732
     3  C   -0.186788
     4  C    0.272524
     5  C   -0.164964
     6  O   -0.411481
     7  C   -0.414024
     8  C    0.391602
     9  O   -0.311218
    10  H    0.116153
    11  H    0.117181
    12  H    0.141778
    13  H    0.110238
    14  H    0.095665
    15  H    0.093731
    16  H    0.116539
    17  H    0.283333
    18  H    0.143851
    19  H    0.135799
 Sum of Mulliken charges =   0.00000

 Dipole moment (field-independent basis, Debye):
    X=              0.8213    Y=             -2.6542    Z=             -0.4194  Tot=              2.8098
 Quadrupole moment (field-independent basis, Debye-Ang):
   XX=            -62.5290   YY=            -54.6753   ZZ=            -49.9256
   XY=              2.9705   XZ=              0.3582   YZ=             -1.7939

  Exact polarizability:  95.189   6.067  80.343  -1.447   1.628  59.894
 Approx polarizability: 129.716  10.538 124.143   0.393   5.306  92.671

                      1                      2                      3
                      A                      A                      A
 Frequencies --     51.4186                78.1103               129.3135
 Red. masses --      3.2945                 3.7363                 3.4710
 Frc consts  --      0.0051                 0.0134                 0.0342
 IR Inten    --      0.8065                 5.3705                 1.3160

                      4                      5                      6
                      A                      A                      A
 Frequencies --    208.2565               217.7454               237.1355
 Red. masses --      1.6474                 1.4295                 3.4019
 Frc consts  --      0.0421                 0.0399                 0.1127
 IR Inten    --      2.0183                 1.8352                 2.5720

                      7                      8                      9
                      A                      A                      A
 Frequencies --    308.1255               384.0848               409.5096
 Red. masses --      1.7077                 1.4672                 3.6542
 Frc consts  --      0.0955                 0.1275                 0.3611
 IR Inten    --     35.0637                94.2732                 2.8446

                     10                     11                     12
                      A                      A                      A
 Frequencies --    463.0141               504.9410               580.1377
 Red. masses --      2.4698                 3.2465                 3.6052
 Frc consts  --      0.3120                 0.4877                 0.7149
 IR Inten    --      4.5367                 0.8235                 3.4434

                     13                     14                     15
                      A                      A                      A
 Frequencies --    616.6062               680.9866               740.0110
 Red. masses --      3.5398                 3.5241                 2.8141
 Frc consts  --      0.7929                 0.9629                 0.9080
 IR Inten    --     11.2973                 2.1071                 6.5639

                     16                     17                     18
                      A                      A                      A
 Frequencies --    869.5726               884.9009               913.7281
 Red. masses --      1.5044                 3.7604                 1.9677
 Frc consts  --      0.6702                 1.7349                 0.9679
 IR Inten    --     18.8166                 3.1068                 5.0105

                     19                     20                     21
                      A                      A                      A
 Frequencies --    921.5746               975.2421              1016.8707
 Red. masses --      1.5823                 1.6100                 1.8803
 Frc consts  --      0.7918                 0.9022                 1.1455
 IR Inten    --      0.7341                22.9016                 4.5520

                     22                     23                     24
                      A                      A                      A
 Frequencies --   1052.9949              1071.5903              1098.4226
 Red. masses --      5.1962                 1.9296                 1.4293
 Frc consts  --      3.3946                 1.3055                 1.0161
 IR Inten    --     64.6796                 6.3484                19.0750

                     25                     26                     27
                      A                      A                      A
 Frequencies --   1131.0794              1157.8137              1182.3819
 Red. masses --      2.7404                 1.4058                 1.7101
 Frc consts  --      2.0656                 1.1103                 1.4086
 IR Inten    --     52.1390                 9.0269                 8.2783

                     28                     29                     30
                      A                      A                      A
 Frequencies --   1200.8642              1262.0005              1284.9641
 Red. masses --      1.2488                 1.5041                 1.7486
 Frc consts  --      1.0611                 1.4114                 1.7010
 IR Inten    --      5.6459                 2.3644                13.4581

                     31                     32                     33
                      A                      A                      A
 Frequencies --   1312.9225              1346.0406              1378.5771
 Red. masses --      1.8658                 2.1337                 1.3732
 Frc consts  --      1.8949                 2.2777                 1.5376
 IR Inten    --      2.1134                 1.5355                 1.3268

                     34                     35                     36
                      A                      A                      A
 Frequencies --   1402.3697              1414.9317              1442.1659
 Red. masses --      1.2345                 1.2403                 1.0873
 Frc consts  --      1.4304                 1.4630                 1.3324
 IR Inten    --      1.7498                67.2251                 4.7235

                     37                     38                     39
                      A                      A                      A
 Frequencies --   1495.1033              1496.9763              1499.8003
 Red. masses --      1.0466                 1.0877                 1.0519
 Frc consts  --      1.3784                 1.4361                 1.3941
 IR Inten    --      6.0032                 1.5650                 2.2883

                     40                     41                     42
                      A                      A                      A
 Frequencies --   1706.6758              1849.3598              2989.2339
 Red. masses --      7.5715                12.7577                 1.0804
 Frc consts  --     12.9937                25.7079                 5.6882
 IR Inten    --      0.2731               194.4329                14.7311

                     43                     44                     45
                      A                      A                      A
 Frequencies --   2991.0329              3023.4002              3039.4978
 Red. masses --      1.0654                 1.0673                 1.0343
 Frc consts  --      5.6156                 5.7480                 5.6301
 IR Inten    --     56.8150                 9.8663                26.2655

                     46                     47                     48
                      A                      A                      A
 Frequencies --   3052.1696              3070.3226              3109.0601
 Red. masses --      1.0965                 1.0922                 1.1023
 Frc consts  --      6.0182                 6.0661                 6.2778
 IR Inten    --     27.2681                 4.2300                23.8923

                     49                     50                     51
                      A                      A                      A
 Frequencies --   3125.2059              3175.5106              3808.6995
 Red. masses --      1.1019                 1.0928                 1.0662
 Frc consts  --      6.3410                 6.4926                 9.1130
 IR Inten    --     12.5129                13.6406                15.3263

 - Thermochemistry -
 -------------------
 Temperature   298.150 Kelvin.  Pressure   1.00000 Atm.
 Atom     1 has atomic number  6 and mass  12.00000

 Molecular mass:   126.06808 amu.
 Principal axes and moments of inertia in atomic units:
                           1         2         3
     Eigenvalues --   602.963791740.700132093.20399
           X            0.99949   0.03000  -0.01139
           Y           -0.03021   0.99936  -0.01933
           Z            0.01080   0.01966   0.99975
 This molecule is an asymmetric top.
 Rotational symmetry number  1.
 Warning -- assumption of classical behavior for rotation
           may cause significant error
 Rotational temperatures (Kelvin)      0.14365     0.04976     0.04138
 Rotational constants (GHZ):           2.99312     1.03679     0.86219
 Zero-point vibrational energy     414879.6 (Joules/Mol)
                                   99.15860 (Kcal/Mol)
 Warning -- explicit consideration of  13 degrees of freedom as
           vibrations may cause significant error
 Vibrational temperatures:     73.98   112.38   186.05   299.63   313.29
          (Kelvin)            341.18   443.32   552.61   589.19   666.17
                              726.50   834.69   887.16   979.79  1064.71
                             1251.12  1273.17  1314.65  1325.94  1403.15
                             1463.05  1515.02  1541.78  1580.38  1627.37
                             1665.83  1701.18  1727.77  1815.73  1848.77
                             1889.00  1936.65  1983.46  2017.69  2035.77
                             2074.95  2151.12  2153.81  2157.88  2455.52
                             2660.81  4300.84  4303.42  4349.99  4373.15
                             4391.39  4417.50  4473.24  4496.47  4568.85
                             5479.86

 Zero-point correction=                           0.158019 (Hartree/Particle)
 Thermal correction to Energy=                    0.167322
 Thermal correction to Enthalpy=                  0.168266
 Thermal correction to Gibbs Free Energy=         0.123269
 Sum of electronic and zero-point Energies=           -423.058572
 Sum of electronic and thermal Energies=              -423.049270
 Sum of electronic and thermal Enthalpies=            -423.048326
 Sum of electronic and thermal Free Energies=         -423.093323

                     E (Thermal)             CV                S
                      KCal/Mol        Cal/Mol-Kelvin    Cal/Mol-Kelvin
 Total                  104.996             34.015             94.704
 Electronic               0.000              0.000              0.000
 Translational            0.889              2.981             40.409
 Rotational               0.889              2.981             29.176
 Vibrational            103.218             28.054             25.120
 Vibration     1          0.596              1.977              4.762
 Vibration     2          0.599              1.964              3.938
 Vibration     3          0.612              1.924              2.956
 Vibration     4          0.642              1.828              2.059
 Vibration     5          0.646              1.814              1.978
 Vibration     6          0.656              1.784              1.824
 Vibration     7          0.698              1.658              1.372
 Vibration     8          0.753              1.504              1.023
 Vibration     9          0.774              1.450              0.928
 Vibration    10          0.821              1.332              0.757
 Vibration    11          0.860              1.239              0.646
 Vibration    12          0.937              1.074              0.485
 Vibration    13          0.976              0.997              0.422

 Optimization completed.
    -- Stationary point found.
 Normal termination of Gaussian 09 at Tue Jan 28 13:17:28 2020.
