 Gaussian 09, Revision D.01,
 Gaussian 09:  ES64L-G09RevD.01 24-Apr-2013

 -----------------------------
 # b3lyp 6-31G(2df,p) opt Freq
 -----------------------------

 -----
 titel
 -----
 Symbolic Z-matrix:
 Charge =  0 Multiplicity = 1

 SCF Done:  E(RB3LYP) =  -423.217438037     A.U. after   14 cycles
 SCF Done:  E(RB3LYP) =  -423.217438202     A.U. after    6 cycles
 SCF Done:  E(RB3LYP) =  -423.217438107     A.U. after    7 cycles
 Optimization completed.
    -- Stationary point found.
 Normal termination of Gaussian 09 at Tue Jan 28 12:43:38 2020.

 ----------------------------------------------------------------------
 #N Geom=AllCheck Guess=TCheck SCRF=Check GenChk RB3LYP/6-31G(2df,p) Fr
 eq
 ----------------------------------------------------------------------

 Structure from the checkpoint file:  "/scratch/puck/g09_3765f490-c797-44ab-9ab2-7df43074362a/Gau-141943.chk"
 -----
 titel
 -----
 Charge =  0 Multiplicity = 1

                         Standard orientation:
 ---------------------------------------------------------------------
 Center     Atomic      Atomic             Coordinates (Angstroms)
 Number     Number       Type             X           Y           Z
 ---------------------------------------------------------------------
      1          6           0        3.096242    0.237237    0.808528
      2          6           0        2.376743   -0.418405   -0.383717
      3          6           0        0.887429   -0.239217   -0.360488
      4          6           0       -0.029833   -1.209442   -0.258483
      5          6           0       -1.441477   -0.696048   -0.339315
      6          8           0       -2.322421   -1.215636    0.630284
      7          6           0       -1.220303    0.815143   -0.156148
      8          8           0       -2.061906    1.557968    0.279837
      9          6           0        0.239337    1.129813   -0.472049
     10          1           0        2.736911   -0.175527    1.756024
     11          1           0        4.174460    0.062937    0.748298
     12          1           0        2.937330    1.319690    0.831863
     13          1           0        2.778261    0.005286   -1.315151
     14          1           0        2.606046   -1.489549   -0.404919
     15          1           0        0.192080   -2.267380   -0.176544
     16          1           0       -1.852754   -0.863685   -1.354246
     17          1           0       -2.904443   -0.482356    0.875437
     18          1           0        0.323921    1.550186   -1.484961
     19          1           0        0.633981    1.887256    0.213256
 ---------------------------------------------------------------------

 SCF Done:  E(RB3LYP) =  -423.217438107     A.U. after    1 cycles

 The electronic state is 1-A.
 Alpha  occ. eigenvalues --  -19.14803 -19.13444 -10.27713 -10.23943 -10.20351
 Alpha  occ. eigenvalues --  -10.20300 -10.19750 -10.18668 -10.18571  -1.06099
 Alpha  occ. eigenvalues --   -1.01546  -0.85533  -0.77550  -0.71811  -0.68577
 Alpha  occ. eigenvalues --   -0.61980  -0.56640  -0.53458  -0.49820  -0.48212
 Alpha  occ. eigenvalues --   -0.46493  -0.45293  -0.44590  -0.42435  -0.40900
 Alpha  occ. eigenvalues --   -0.38808  -0.38580  -0.36993  -0.35615  -0.35265
 Alpha  occ. eigenvalues --   -0.33996  -0.27658  -0.25726  -0.24751
 Alpha virt. eigenvalues --   -0.02674   0.00682   0.08486   0.11153   0.11851
 Alpha virt. eigenvalues --    0.12455   0.13800   0.14859   0.15686   0.16017
 Alpha virt. eigenvalues --    0.17389   0.18382   0.19916   0.21211   0.23647

 Mulliken charges:
               1
     1  C   -0.377742
     2  C   -0.285633
     3  C    0.321278
     4  C   -0.207926
     5  C    0.024352
     6  O   -0.441721
     7  C    0.359417
     8  O   -0.315507
     9  C   -0.422380
    10  H    0.127439
    11  H    0.119880
    12  H    0.121594
    13  H    0.106320
    14  H    0.108307
    15  H    0.104740
    16  H    0.091371
    17  H    0.292206
    18  H    0.136300
    19  H    0.137704
 Sum of Mulliken charges =   0.00000

 Dipole moment (field-independent basis, Debye):
    X=              2.5739    Y=              0.0639    Z=             -1.3563  Tot=              2.9101
 Quadrupole moment (field-independent basis, Debye-Ang):
   XX=            -54.3360   YY=            -56.9024   ZZ=            -52.5347
   XY=              0.8605   XZ=              1.4266   YZ=              0.0148

  Exact polarizability:  97.973   3.754  78.113  -2.602   0.476  59.271
 Approx polarizability: 130.413   7.698 124.038  -8.643   0.362  91.628

                      1                      2                      3
                      A                      A                      A
 Frequencies --     57.8632                78.0776               128.1535
 Red. masses --      2.9811                 3.4169                 2.9221
 Frc consts  --      0.0059                 0.0123                 0.0283
 IR Inten    --      0.5492                 0.7486                 1.6377

                      4                      5                      6
                      A                      A                      A
 Frequencies --    209.1986               247.2465               252.7293
 Red. masses --      1.5678                 1.9225                 3.7597
 Frc consts  --      0.0404                 0.0692                 0.1415
 IR Inten    --      0.7910                10.1535                15.3974

                      7                      8                      9
                      A                      A                      A
 Frequencies --    334.6493               356.9310               415.1895
 Red. masses --      2.3740                 1.2386                 3.7281
 Frc consts  --      0.1566                 0.0930                 0.3786
 IR Inten    --      2.3521                73.1732                 3.4427

                     10                     11                     12
                      A                      A                      A
 Frequencies --    459.2437               523.3656               583.6418
 Red. masses --      2.5037                 2.8004                 3.2800
 Frc consts  --      0.3111                 0.4519                 0.6583
 IR Inten    --      3.7603                 5.0424                 7.7680

                     13                     14                     15
                      A                      A                      A
 Frequencies --    599.3682               707.6893               777.7794
 Red. masses --      4.4475                 3.4738                 2.5726
 Frc consts  --      0.9414                 1.0250                 0.9169
 IR Inten    --      4.2641                 4.5211                 5.4879

                     16                     17                     18
                      A                      A                      A
 Frequencies --    789.7878               860.2904               866.2968
 Red. masses --      1.1937                 2.5274                 2.0000
 Frc consts  --      0.4387                 1.1021                 0.8843
 IR Inten    --      1.5485                 2.6582                 7.4414

                     19                     20                     21
                      A                      A                      A
 Frequencies --    953.9801               974.2933              1024.4904
 Red. masses --      2.0783                 2.2616                 2.2084
 Frc consts  --      1.1144                 1.2649                 1.3657
 IR Inten    --      2.9199                 3.3978                 4.2367

                     22                     23                     24
                      A                      A                      A
 Frequencies --   1063.9181              1075.8688              1099.4879
 Red. masses --      2.0579                 1.8289                 1.9924
 Frc consts  --      1.3724                 1.2473                 1.4191
 IR Inten    --      1.7865                40.6734                50.7449

                     25                     26                     27
                      A                      A                      A
 Frequencies --   1136.1839              1159.0532              1192.5232
 Red. masses --      2.1153                 1.6561                 1.7605
 Frc consts  --      1.6089                 1.3108                 1.4751
 IR Inten    --      8.2979                88.4399                16.2078

                     28                     29                     30
                      A                      A                      A
 Frequencies --   1224.0677              1267.0229              1282.2093
 Red. masses --      1.4398                 1.4317                 1.4081
 Frc consts  --      1.2711                 1.3541                 1.3639
 IR Inten    --     17.3902                 8.1276                10.2669

                     31                     32                     33
                      A                      A                      A
 Frequencies --   1336.8675              1351.4303              1362.1871
 Red. masses --      1.4563                 1.7513                 1.5994
 Frc consts  --      1.5335                 1.8845                 1.7486
 IR Inten    --      9.9909                 3.5899                21.1316

                     34                     35                     36
                      A                      A                      A
 Frequencies --   1407.1721              1414.6014              1450.6602
 Red. masses --      1.2850                 1.5160                 1.0886
 Frc consts  --      1.4992                 1.7874                 1.3498
 IR Inten    --      5.0231                21.5617                 5.8892

                     37                     38                     39
                      A                      A                      A
 Frequencies --   1479.1567              1499.9225              1507.5527
 Red. masses --      1.0736                 1.0403                 1.0661
 Frc consts  --      1.3839                 1.3789                 1.4276
 IR Inten    --      2.9415                 5.7539                 2.5704

                     40                     41                     42
                      A                      A                      A
 Frequencies --   1701.2312              1849.4851              2904.9246
 Red. masses --      7.4412                12.6265                 1.0778
 Frc consts  --     12.6889                25.4469                 5.3588
 IR Inten    --     11.3028               204.0342                46.0302

                     43                     44                     45
                      A                      A                      A
 Frequencies --   3008.4772              3011.9954              3041.2320
 Red. masses --      1.0657                 1.0678                 1.0347
 Frc consts  --      5.6829                 5.7073                 5.6388
 IR Inten    --     19.5756                18.1918                22.3352

                     46                     47                     48
                      A                      A                      A
 Frequencies --   3063.4251              3074.7488              3112.5960
 Red. masses --      1.0954                 1.0911                 1.1012
 Frc consts  --      6.0568                 6.0778                 6.2861
 IR Inten    --     12.9135                 9.4060                35.0203

                     49                     50                     51
                      A                      A                      A
 Frequencies --   3115.1104              3199.1220              3741.3810
 Red. masses --      1.1027                 1.0939                 1.0654
 Frc consts  --      6.3047                 6.5960                 8.7867
 IR Inten    --     26.8893                 7.4449                35.2812

 - Thermochemistry -
 -------------------
 Temperature   298.150 Kelvin.  Pressure   1.00000 Atm.
 Atom     1 has atomic number  6 and mass  12.00000

 Molecular mass:   126.06808 amu.
 Principal axes and moments of inertia in atomic units:
                           1         2         3
     Eigenvalues --   584.928861732.358562066.92087
           X            0.99985   0.01227   0.01254
           Y           -0.01236   0.99989   0.00773
           Z           -0.01244  -0.00789   0.99989
 This molecule is an asymmetric top.
 Rotational symmetry number  1.
 Warning -- assumption of classical behavior for rotation
           may cause significant error
 Rotational temperatures (Kelvin)      0.14808     0.05000     0.04190
 Rotational constants (GHZ):           3.08540     1.04178     0.87315
 Zero-point vibrational energy     414708.7 (Joules/Mol)
                                   99.11776 (Kcal/Mol)
 Warning -- explicit consideration of  13 degrees of freedom as
           vibrations may cause significant error
 Vibrational temperatures:     83.25   112.34   184.38   300.99   355.73
          (Kelvin)            363.62   481.49   513.54   597.36   660.75
                              753.01   839.73   862.36  1018.21  1119.05
                             1136.33  1237.76  1246.41  1372.56  1401.79
                             1474.01  1530.74  1547.93  1581.92  1634.71
                             1667.62  1715.77  1761.16  1822.96  1844.81
                             1923.45  1944.40  1959.88  2024.60  2035.29
                             2087.17  2128.17  2158.05  2169.03  2447.69
                             2660.99  4179.53  4328.52  4333.58  4375.65
                             4407.58  4423.87  4478.33  4481.94  4602.82
                             5383.01

 Zero-point correction=                           0.157954 (Hartree/Particle)
 Thermal correction to Energy=                    0.167168
 Thermal correction to Enthalpy=                  0.168113
 Thermal correction to Gibbs Free Energy=         0.123431
 Sum of electronic and zero-point Energies=           -423.059484
 Sum of electronic and thermal Energies=              -423.050270
 Sum of electronic and thermal Enthalpies=            -423.049326
 Sum of electronic and thermal Free Energies=         -423.094007

                     E (Thermal)             CV                S
                      KCal/Mol        Cal/Mol-Kelvin    Cal/Mol-Kelvin
 Total                  104.900             33.938             94.041
 Electronic               0.000              0.000              0.000
 Translational            0.889              2.981             40.409
 Rotational               0.889              2.981             29.128
 Vibrational            103.122             27.976             24.504
 Vibration     1          0.596              1.974              4.529
 Vibration     2          0.599              1.964              3.939
 Vibration     3          0.611              1.925              2.974
 Vibration     4          0.642              1.827              2.051
 Vibration     5          0.661              1.767              1.750
 Vibration     6          0.664              1.758              1.711
 Vibration     7          0.716              1.606              1.238
 Vibration     8          0.732              1.561              1.135
 Vibration     9          0.779              1.437              0.908
 Vibration    10          0.817              1.340              0.768
 Vibration    11          0.878              1.198              0.602
 Vibration    12          0.941              1.067              0.479
 Vibration    13          0.957              1.033              0.451

 Normal termination of Gaussian 09 at Tue Jan 28 13:22:52 2020.
