 Gaussian 09, Revision D.01,
 Gaussian 09:  ES64L-G09RevD.01 24-Apr-2013

 -----------------------------
 # b3lyp 6-31G(2df,p) opt Freq
 -----------------------------

 -----
 titel
 -----
 Symbolic Z-matrix:
 Charge =  0 Multiplicity = 1

 SCF Done:  E(RB3LYP) =  -423.113217953     A.U. after   13 cycles
 Optimization completed.
    -- Stationary point found.
 Normal termination of Gaussian 09 at Mon Jan 27 22:52:05 2020.

 ----------------------------------------------------------------------
 #N Geom=AllCheck Guess=TCheck SCRF=Check GenChk RB3LYP/6-31G(2df,p) Fr
 eq
 ----------------------------------------------------------------------

 Structure from the checkpoint file:  "/scratch/puck/g09_9922a4b9-8f6c-4956-bf16-a17be19f1e05/Gau-101183.chk"
 -----
 titel
 -----
 Charge =  0 Multiplicity = 1

                         Standard orientation:
 ---------------------------------------------------------------------
 Center     Atomic      Atomic             Coordinates (Angstroms)
 Number     Number       Type             X           Y           Z
 ---------------------------------------------------------------------
      1          6           0        3.337010   -0.679906    0.001516
      2          6           0        2.025239   -0.081890   -0.457830
      3          6           0        1.280655    0.795624    0.498760
      4          8           0        0.162665    1.422573   -0.133327
      5          6           0       -0.452336    0.118600   -0.372803
      6          6           0       -1.721161   -0.035650    0.414329
      7          6           0       -2.741316   -1.015455    0.015925
      8          8           0       -2.927939    0.377295   -0.226916
      9          6           0        0.763787   -0.597487    0.214757
     10          1           0        3.534817   -1.635428   -0.495711
     11          1           0        4.172942   -0.007016   -0.215571
     12          1           0        3.330869   -0.865671    1.081270
     13          1           0        1.969013    0.183180   -1.512411
     14          1           0        1.700519    1.266165    1.381125
     15          1           0       -0.659608   -0.037534   -1.438990
     16          1           0       -1.646477    0.246365    1.464837
     17          1           0       -2.584769   -1.627580   -0.871883
     18          1           0       -3.387960   -1.454910    0.773785
     19          1           0        0.741586   -1.489534    0.827568
 ---------------------------------------------------------------------

 SCF Done:  E(RB3LYP) =  -423.113217953     A.U. after    1 cycles

 The electronic state is 1-A.
 Alpha  occ. eigenvalues --  -19.15327 -19.13902 -10.24280 -10.23992 -10.23934
 Alpha  occ. eigenvalues --  -10.23813 -10.19884 -10.19818 -10.18744  -1.07562
 Alpha  occ. eigenvalues --   -1.05130  -0.84367  -0.74417  -0.71056  -0.66306
 Alpha  occ. eigenvalues --   -0.61529  -0.58403  -0.55529  -0.51291  -0.49615
 Alpha  occ. eigenvalues --   -0.49099  -0.47066  -0.43569  -0.41715  -0.40310
 Alpha  occ. eigenvalues --   -0.38775  -0.38115  -0.37006  -0.33935  -0.33075
 Alpha  occ. eigenvalues --   -0.30457  -0.27927  -0.26887  -0.23438
 Alpha virt. eigenvalues --    0.06928   0.09719   0.10039   0.10741   0.11045
 Alpha virt. eigenvalues --    0.11917   0.13258   0.14320   0.15167   0.15687
 Alpha virt. eigenvalues --    0.16526   0.17196   0.18426   0.19210   0.20655

 Mulliken charges:
               1
     1  C   -0.424462
     2  C   -0.040296
     3  C    0.093274
     4  O   -0.302006
     5  C    0.080716
     6  C    0.080619
     7  C   -0.186360
     8  O   -0.230022
     9  C   -0.150177
    10  H    0.123885
    11  H    0.125825
    12  H    0.116693
    13  H    0.091788
    14  H    0.102416
    15  H    0.088419
    16  H    0.100324
    17  H    0.114580
    18  H    0.117949
    19  H    0.096834
 Sum of Mulliken charges =   0.00000

 Dipole moment (field-independent basis, Debye):
    X=              1.7108    Y=             -2.7799    Z=              1.0028  Tot=              3.4147
 Quadrupole moment (field-independent basis, Debye-Ang):
   XX=            -54.1089   YY=            -55.3187   ZZ=            -50.8242
   XY=              4.8362   XZ=             -1.0227   YZ=              1.2552

  Exact polarizability:  97.146   4.565  67.463   0.530   2.285  64.662
 Approx polarizability: 117.745   5.086 109.563   3.118   2.799  99.087

                      1                      2                      3
                      A                      A                      A
 Frequencies --     74.9191               113.8763               158.0081
 Red. masses --      4.1205                 3.4175                 2.3513
 Frc consts  --      0.0136                 0.0261                 0.0346
 IR Inten    --      0.8354                 0.8123                 1.1650

                      4                      5                      6
                      A                      A                      A
 Frequencies --    218.4152               259.7570               286.0231
 Red. masses --      1.1999                 2.5936                 3.3126
 Frc consts  --      0.0337                 0.1031                 0.1597
 IR Inten    --      0.2735                 0.6458                 0.6367

                      7                      8                      9
                      A                      A                      A
 Frequencies --    329.1778               395.0475               488.1412
 Red. masses --      5.1591                 3.0362                 3.5759
 Frc consts  --      0.3294                 0.2792                 0.5020
 IR Inten    --      1.6320                 5.0206                 3.7841

                     10                     11                     12
                      A                      A                      A
 Frequencies --    512.4791               780.1097               825.9062
 Red. masses --      4.9343                 1.6945                 4.6093
 Frc consts  --      0.7635                 0.6076                 1.8525
 IR Inten    --     12.7411                14.2890                 2.8057

                     13                     14                     15
                      A                      A                      A
 Frequencies --    852.1275               862.2526               880.0056
 Red. masses --      1.7891                 1.8495                 4.5219
 Frc consts  --      0.7654                 0.8102                 2.0632
 IR Inten    --      3.9875                15.3783                22.4516

                     16                     17                     18
                      A                      A                      A
 Frequencies --    894.9668               937.4003               953.9268
 Red. masses --      1.9621                 3.9957                 2.5892
 Frc consts  --      0.9259                 2.0687                 1.3882
 IR Inten    --      6.2322                44.7080                 3.4959

                     19                     20                     21
                      A                      A                      A
 Frequencies --   1002.0048              1024.2645              1031.3674
 Red. masses --      2.1791                 2.1016                 1.2888
 Frc consts  --      1.2890                 1.2990                 0.8077
 IR Inten    --     72.9758                19.6343                 6.1597

                     22                     23                     24
                      A                      A                      A
 Frequencies --   1059.7594              1067.9246              1091.8031
 Red. masses --      1.5990                 2.4458                 1.2826
 Frc consts  --      1.0581                 1.6434                 0.9008
 IR Inten    --      1.3409                14.7897                 0.8762

                     25                     26                     27
                      A                      A                      A
 Frequencies --   1110.6578              1143.0711              1152.2717
 Red. masses --      2.1398                 1.6642                 1.5274
 Frc consts  --      1.5552                 1.2812                 1.1949
 IR Inten    --      0.8993                 5.8721                 5.8323

                     28                     29                     30
                      A                      A                      A
 Frequencies --   1160.9805              1182.4413              1210.2253
 Red. masses --      1.4215                 1.9518                 1.3504
 Frc consts  --      1.1289                 1.6078                 1.1653
 IR Inten    --      3.2082                 4.7438                 0.2623

                     31                     32                     33
                      A                      A                      A
 Frequencies --   1219.3773              1273.1116              1283.9414
 Red. masses --      2.0421                 1.3565                 1.4878
 Frc consts  --      1.7890                 1.2954                 1.4451
 IR Inten    --      4.4045                 8.4542                 2.7210

                     34                     35                     36
                      A                      A                      A
 Frequencies --   1298.0952              1317.5720              1417.8691
 Red. masses --      1.7619                 1.4534                 1.4055
 Frc consts  --      1.7492                 1.4866                 1.6647
 IR Inten    --     24.2762                10.4900                 2.8126

                     37                     38                     39
                      A                      A                      A
 Frequencies --   1420.0987              1451.2993              1493.5228
 Red. masses --      2.0604                 1.7492                 1.0462
 Frc consts  --      2.4482                 2.1708                 1.3750
 IR Inten    --      1.0710                 3.2712                 2.2985

                     40                     41                     42
                      A                      A                      A
 Frequencies --   1504.6321              1530.7146              3029.8623
 Red. masses --      1.0742                 1.3602                 1.0355
 Frc consts  --      1.4328                 1.8778                 5.6005
 IR Inten    --      5.0515                 2.0884                35.7519

                     43                     44                     45
                      A                      A                      A
 Frequencies --   3034.1747              3082.5035              3092.6976
 Red. masses --      1.0844                 1.0500                 1.0993
 Frc consts  --      5.8818                 5.8781                 6.1950
 IR Inten    --     29.7117                26.0422                14.8853

                     46                     47                     48
                      A                      A                      A
 Frequencies --   3098.0512              3114.1329              3120.9631
 Red. masses --      1.1013                 1.0888                 1.0901
 Frc consts  --      6.2279                 6.2212                 6.2557
 IR Inten    --     19.4775                17.2590                25.0713

                     49                     50                     51
                      A                      A                      A
 Frequencies --   3168.8375              3171.0322              3194.2512
 Red. masses --      1.1190                 1.0906                 1.0962
 Frc consts  --      6.6204                 6.4613                 6.5902
 IR Inten    --     25.2686                22.8307                 8.3579

 - Thermochemistry -
 -------------------
 Temperature   298.150 Kelvin.  Pressure   1.00000 Atm.
 Atom     1 has atomic number  6 and mass  12.00000

 Molecular mass:   126.06808 amu.
 Principal axes and moments of inertia in atomic units:
                           1         2         3
     Eigenvalues --   355.591012028.054732220.21725
           X            1.00000   0.00249  -0.00156
           Y           -0.00246   0.99989   0.01434
           Z            0.00159  -0.01434   0.99990
 This molecule is an asymmetric top.
 Rotational symmetry number  1.
 Rotational temperatures (Kelvin)      0.24358     0.04271     0.03901
 Rotational constants (GHZ):           5.07533     0.88989     0.81287
 Zero-point vibrational energy     414960.9 (Joules/Mol)
                                   99.17804 (Kcal/Mol)
 Warning -- explicit consideration of  10 degrees of freedom as
           vibrations may cause significant error
 Vibrational temperatures:    107.79   163.84   227.34   314.25   373.73
          (Kelvin)            411.52   473.61   568.38   702.33   737.34
                             1122.40  1188.29  1226.02  1240.59  1266.13
                             1287.66  1348.71  1372.49  1441.66  1473.69
                             1483.91  1524.76  1536.50  1570.86  1597.99
                             1644.62  1657.86  1670.39  1701.27  1741.24
                             1754.41  1831.72  1847.30  1867.67  1895.69
                             2039.99  2043.20  2088.09  2148.84  2164.83
                             2202.35  4359.29  4365.50  4435.03  4449.70
                             4457.40  4480.54  4490.36  4559.24  4562.40
                             4595.81

 Zero-point correction=                           0.158050 (Hartree/Particle)
 Thermal correction to Energy=                    0.166482
 Thermal correction to Enthalpy=                  0.167426
 Thermal correction to Gibbs Free Energy=         0.124653
 Sum of electronic and zero-point Energies=           -422.955168
 Sum of electronic and thermal Energies=              -422.946736
 Sum of electronic and thermal Enthalpies=            -422.945792
 Sum of electronic and thermal Free Energies=         -422.988565

                     E (Thermal)             CV                S
                      KCal/Mol        Cal/Mol-Kelvin    Cal/Mol-Kelvin
 Total                  104.469             31.635             90.024
 Electronic               0.000              0.000              0.000
 Translational            0.889              2.981             40.409
 Rotational               0.889              2.981             28.861
 Vibrational            102.692             25.673             20.755
 Vibration     1          0.599              1.966              4.020
 Vibration     2          0.607              1.938              3.202
 Vibration     3          0.621              1.894              2.574
 Vibration     4          0.646              1.813              1.972
 Vibration     5          0.668              1.746              1.663
 Vibration     6          0.684              1.700              1.497
 Vibration     7          0.712              1.617              1.264
 Vibration     8          0.762              1.481              0.981
 Vibration     9          0.844              1.276              0.688
 Vibration    10          0.868              1.222              0.628

 Optimization completed.
    -- Stationary point found.
 Normal termination of Gaussian 09 at Mon Jan 27 23:29:58 2020.
