 Gaussian 09, Revision D.01,
 Gaussian 09:  ES64L-G09RevD.01 24-Apr-2013

 -----------------------------
 # b3lyp 6-31G(2df,p) opt Freq
 -----------------------------

 -----
 titel
 -----
 Symbolic Z-matrix:
 Charge =  0 Multiplicity = 1

 SCF Done:  E(RB3LYP) =  -423.111319018     A.U. after   13 cycles
 Optimization completed.
    -- Stationary point found.
 Normal termination of Gaussian 09 at Tue Jan 28 14:05:46 2020.

 ----------------------------------------------------------------------
 #N Geom=AllCheck Guess=TCheck SCRF=Check GenChk RB3LYP/6-31G(2df,p) Fr
 eq
 ----------------------------------------------------------------------

 Structure from the checkpoint file:  "/scratch/puck/g09_426e75ca-1ff8-4a1a-9f41-df020a00bda0/Gau-43878.chk"
 -----
 titel
 -----
 Charge =  0 Multiplicity = 1

                         Standard orientation:
 ---------------------------------------------------------------------
 Center     Atomic      Atomic             Coordinates (Angstroms)
 Number     Number       Type             X           Y           Z
 ---------------------------------------------------------------------
      1          6           0        2.579278   -0.556191    0.160554
      2          8           0        1.363636   -1.094973   -0.324760
      3          6           0        0.238529   -0.703645    0.410113
      4          6           0       -1.025954   -1.331748   -0.188756
      5          6           0       -2.249293   -0.760458    0.465055
      6          6           0       -1.559235    0.043090   -0.608207
      7          6           0       -0.333705    0.691178   -0.000932
      8          6           0       -0.135658    2.037251    0.540919
      9          8           0        0.464587    1.621096   -0.701740
     10          1           0        2.737026   -0.818618    1.218771
     11          1           0        3.381962   -0.998931   -0.434065
     12          1           0        2.610769    0.533439    0.050506
     13          1           0        0.402051   -0.866596    1.488864
     14          1           0       -1.022301   -2.263429   -0.738536
     15          1           0       -3.189536   -1.215550    0.171408
     16          1           0       -2.221912   -0.430908    1.501524
     17          1           0       -2.045157    0.352328   -1.524912
     18          1           0       -0.925826    2.780812    0.446103
     19          1           0        0.563364    2.201602    1.359863
 ---------------------------------------------------------------------

 SCF Done:  E(RB3LYP) =  -423.111319018     A.U. after    1 cycles

 The electronic state is 1-A.
 Alpha  occ. eigenvalues --  -19.15349 -19.13969 -10.24109 -10.23637 -10.23116
 Alpha  occ. eigenvalues --  -10.21763 -10.19634 -10.19586 -10.19563  -1.07445
 Alpha  occ. eigenvalues --   -1.03211  -0.89566  -0.72700  -0.67590  -0.65710
 Alpha  occ. eigenvalues --   -0.62780  -0.58838  -0.53495  -0.51806  -0.49856
 Alpha  occ. eigenvalues --   -0.48738  -0.45836  -0.44454  -0.42365  -0.41764
 Alpha  occ. eigenvalues --   -0.39106  -0.36435  -0.35457  -0.33414  -0.30586
 Alpha  occ. eigenvalues --   -0.29746  -0.27883  -0.26820  -0.23549
 Alpha virt. eigenvalues --    0.07213   0.09282   0.10380   0.11647   0.12039
 Alpha virt. eigenvalues --    0.12771   0.14552   0.15146   0.15970   0.16152
 Alpha virt. eigenvalues --    0.17196   0.18111   0.18754   0.20690   0.21333

 Mulliken charges:
               1
     1  C   -0.242115
     2  O   -0.238748
     3  C    0.033590
     4  C   -0.070985
     5  C   -0.300915
     6  C   -0.141802
     7  C    0.431812
     8  C   -0.276529
     9  O   -0.269064
    10  H    0.098037
    11  H    0.126260
    12  H    0.129619
    13  H    0.059701
    14  H    0.101911
    15  H    0.119930
    16  H    0.109362
    17  H    0.100657
    18  H    0.116923
    19  H    0.112355
 Sum of Mulliken charges =   0.00000

 Dipole moment (field-independent basis, Debye):
    X=             -0.9945    Y=              0.0637    Z=              1.7331  Tot=              1.9992
 Quadrupole moment (field-independent basis, Debye-Ang):
   XX=            -48.7498   YY=            -53.7290   ZZ=            -53.3473
   XY=              0.1388   XZ=              2.7386   YZ=              2.3776

  Exact polarizability:  85.840   1.335  78.032   1.439   2.606  64.267
 Approx polarizability: 110.881   1.326 112.376  -1.520   2.585 102.929

                      1                      2                      3
                      A                      A                      A
 Frequencies --    106.0444               130.4944               174.2942
 Red. masses --      3.1109                 2.1000                 1.5078
 Frc consts  --      0.0206                 0.0211                 0.0270
 IR Inten    --      1.3176                 3.4452                 1.5856

                      4                      5                      6
                      A                      A                      A
 Frequencies --    215.3574               245.0534               288.1169
 Red. masses --      2.8448                 3.3188                 2.5399
 Frc consts  --      0.0777                 0.1174                 0.1242
 IR Inten    --      1.5433                 1.8544                 2.4301

                      7                      8                      9
                      A                      A                      A
 Frequencies --    359.9461               378.2564               476.3235
 Red. masses --      3.3101                 4.0440                 3.8091
 Frc consts  --      0.2527                 0.3409                 0.5092
 IR Inten    --      2.2498                 0.2948                 2.4747

                     10                     11                     12
                      A                      A                      A
 Frequencies --    571.4218               587.1983               775.0941
 Red. masses --      3.3425                 4.7166                 1.7874
 Frc consts  --      0.6430                 0.9582                 0.6327
 IR Inten    --      5.5308                 9.4643                 7.2530

                     13                     14                     15
                      A                      A                      A
 Frequencies --    800.4815               839.4100               891.9240
 Red. masses --      1.7635                 1.7857                 3.4209
 Frc consts  --      0.6658                 0.7413                 1.6034
 IR Inten    --     22.4668                 7.7351                 5.1774

                     16                     17                     18
                      A                      A                      A
 Frequencies --    931.9502               938.3998               952.5331
 Red. masses --      2.5493                 2.6298                 1.8425
 Frc consts  --      1.3046                 1.3644                 0.9850
 IR Inten    --      3.4719                 5.4597                23.9397

                     19                     20                     21
                      A                      A                      A
 Frequencies --    968.3363               999.1303              1045.3533
 Red. masses --      4.4068                 1.9452                 1.7067
 Frc consts  --      2.4346                 1.1441                 1.0989
 IR Inten    --     30.5638                 3.1660                 9.3806

                     22                     23                     24
                      A                      A                      A
 Frequencies --   1063.0248              1077.0795              1090.7484
 Red. masses --      1.2238                 2.2492                 1.3681
 Frc consts  --      0.8148                 1.5373                 0.9590
 IR Inten    --      1.5110                16.5808                 2.3365

                     25                     26                     27
                      A                      A                      A
 Frequencies --   1123.7362              1147.3404              1156.3296
 Red. masses --      1.2694                 1.6787                 2.0037
 Frc consts  --      0.9445                 1.3020                 1.5785
 IR Inten    --      4.8416                30.0083                55.0106

                     28                     29                     30
                      A                      A                      A
 Frequencies --   1177.5420              1179.7445              1198.2246
 Red. masses --      1.9944                 1.3549                 2.1322
 Frc consts  --      1.6294                 1.1110                 1.8036
 IR Inten    --     24.9415                 1.3413                 5.8433

                     31                     32                     33
                      A                      A                      A
 Frequencies --   1228.7277              1254.9393              1284.0559
 Red. masses --      1.7200                 1.7730                 1.7570
 Frc consts  --      1.5300                 1.6452                 1.7068
 IR Inten    --     51.9351                 5.8895                 5.4446

                     34                     35                     36
                      A                      A                      A
 Frequencies --   1322.2400              1377.1870              1441.5347
 Red. masses --      2.3475                 1.4648                 2.3192
 Frc consts  --      2.4181                 1.6369                 2.8395
 IR Inten    --      2.1022                34.0304                28.4922

                     37                     38                     39
                      A                      A                      A
 Frequencies --   1476.0416              1483.3856              1490.5340
 Red. masses --      1.1589                 1.0660                 1.1955
 Frc consts  --      1.4876                 1.3820                 1.5649
 IR Inten    --      2.3027                 1.7685                 2.2957

                     40                     41                     42
                      A                      A                      A
 Frequencies --   1515.4015              1533.7025              2953.7636
 Red. masses --      1.0530                 1.5784                 1.0826
 Frc consts  --      1.4248                 2.1876                 5.5651
 IR Inten    --      2.9874                11.8372                50.2367

                     43                     44                     45
                      A                      A                      A
 Frequencies --   2981.0210              3067.5111              3081.2221
 Red. masses --      1.0474                 1.0872                 1.0502
 Frc consts  --      5.4842                 6.0274                 5.8742
 IR Inten    --     76.9807                31.8976                24.3980

                     46                     47                     48
                      A                      A                      A
 Frequencies --   3106.6644              3119.7213              3168.8337
 Red. masses --      1.0578                 1.1015                 1.1194
 Frc consts  --      6.0150                 6.3166                 6.6227
 IR Inten    --     21.1040                26.4197                19.2891

                     49                     50                     51
                      A                      A                      A
 Frequencies --   3193.2694              3198.7511              3211.4139
 Red. masses --      1.0961                 1.1046                 1.0990
 Frc consts  --      6.5854                 6.6589                 6.6782
 IR Inten    --      6.1698                 6.7182                13.1863

 - Thermochemistry -
 -------------------
 Temperature   298.150 Kelvin.  Pressure   1.00000 Atm.
 Atom     1 has atomic number  6 and mass  12.00000

 Molecular mass:   126.06808 amu.
 Principal axes and moments of inertia in atomic units:
                           1         2         3
     Eigenvalues --   753.210211069.451221580.80300
           X            0.99991   0.00514   0.01265
           Y           -0.00537   0.99981   0.01849
           Z           -0.01256  -0.01856   0.99975
 This molecule is an asymmetric top.
 Rotational symmetry number  1.
 Warning -- assumption of classical behavior for rotation
           may cause significant error
 Rotational temperatures (Kelvin)      0.11499     0.08099     0.05479
 Rotational constants (GHZ):           2.39607     1.68754     1.14166
 Zero-point vibrational energy     414977.4 (Joules/Mol)
                                   99.18199 (Kcal/Mol)
 Warning -- explicit consideration of  11 degrees of freedom as
           vibrations may cause significant error
 Vibrational temperatures:    152.57   187.75   250.77   309.85   352.58
          (Kelvin)            414.54   517.88   544.23   685.32   822.15
                              844.85  1115.19  1151.71  1207.72  1283.28
                             1340.87  1350.15  1370.48  1393.22  1437.52
                             1504.03  1529.45  1549.68  1569.34  1616.80
                             1650.76  1663.70  1694.22  1697.39  1723.98
                             1767.86  1805.58  1847.47  1902.41  1981.46
                             2074.04  2123.69  2134.26  2144.54  2180.32
                             2206.65  4249.80  4289.02  4413.46  4433.19
                             4469.79  4488.58  4559.24  4594.40  4602.28
                             4620.50

 Zero-point correction=                           0.158057 (Hartree/Particle)
 Thermal correction to Energy=                    0.166449
 Thermal correction to Enthalpy=                  0.167394
 Thermal correction to Gibbs Free Energy=         0.125143
 Sum of electronic and zero-point Energies=           -422.953262
 Sum of electronic and thermal Energies=              -422.944870
 Sum of electronic and thermal Enthalpies=            -422.943925
 Sum of electronic and thermal Free Energies=         -422.986176

                     E (Thermal)             CV                S
                      KCal/Mol        Cal/Mol-Kelvin    Cal/Mol-Kelvin
 Total                  104.449             31.935             88.925
 Electronic               0.000              0.000              0.000
 Translational            0.889              2.981             40.409
 Rotational               0.889              2.981             28.634
 Vibrational            102.671             25.973             19.882
 Vibration     1          0.605              1.944              3.340
 Vibration     2          0.612              1.923              2.939
 Vibration     3          0.627              1.874              2.389
 Vibration     4          0.645              1.818              1.998
 Vibration     5          0.660              1.771              1.766
 Vibration     6          0.685              1.696              1.485
 Vibration     7          0.734              1.555              1.122
 Vibration     8          0.749              1.516              1.046
 Vibration     9          0.833              1.303              0.720
 Vibration    10          0.928              1.093              0.502
 Vibration    11          0.944              1.059              0.472

 Normal termination of Gaussian 09 at Tue Jan 28 14:52:42 2020.
