 Gaussian 09, Revision D.01,
 Gaussian 09:  ES64L-G09RevD.01 24-Apr-2013

 -----------------------------
 # b3lyp 6-31G(2df,p) opt Freq
 -----------------------------

 -----
 titel
 -----
 Symbolic Z-matrix:
 Charge =  0 Multiplicity = 1

 SCF Done:  E(RB3LYP) =  -423.199833108     A.U. after   14 cycles
 Optimization completed.
    -- Stationary point found.
 Normal termination of Gaussian 09 at Tue Jan 28 08:14:15 2020.

 ----------------------------------------------------------------------
 #N Geom=AllCheck Guess=TCheck SCRF=Check GenChk RB3LYP/6-31G(2df,p) Fr
 eq
 ----------------------------------------------------------------------

 Structure from the checkpoint file:  "/scratch/puck/g09_62d7cca3-582e-4718-a2cd-f56aaf3e1746/Gau-17771.chk"
 -----
 titel
 -----
 Charge =  0 Multiplicity = 1

                         Standard orientation:
 ---------------------------------------------------------------------
 Center     Atomic      Atomic             Coordinates (Angstroms)
 Number     Number       Type             X           Y           Z
 ---------------------------------------------------------------------
      1          8           0       -0.795338    2.016950   -0.261954
      2          6           0       -0.763978    0.863885    0.576884
      3          6           0       -1.967757   -0.076738    0.341965
      4          6           0       -1.512701   -1.065149   -0.759870
      5          6           0       -0.009223   -1.198132   -0.567057
      6          6           0        0.499413   -1.414344    0.814295
      7          6           0        0.462726    0.008212    0.274065
      8          6           0        1.764428    0.651422   -0.026537
      9          8           0        2.779765    0.041113   -0.278738
     10          1           0       -0.807225    1.719028   -1.178673
     11          1           0       -0.760788    1.269335    1.593427
     12          1           0       -2.209956   -0.614494    1.263437
     13          1           0       -2.852685    0.500995    0.065732
     14          1           0       -2.032692   -2.026077   -0.691307
     15          1           0       -1.722212   -0.664032   -1.758876
     16          1           0        0.614825   -1.523440   -1.391875
     17          1           0       -0.188208   -1.677875    1.610825
     18          1           0        1.499279   -1.822948    0.907880
     19          1           0        1.746796    1.760075   -0.017506
 ---------------------------------------------------------------------

 SCF Done:  E(RB3LYP) =  -423.199833108     A.U. after    1 cycles

 The electronic state is 1-A.
 Alpha  occ. eigenvalues --  -19.14640 -19.12847 -10.26253 -10.24376 -10.20984
 Alpha  occ. eigenvalues --  -10.20323 -10.20001 -10.19936 -10.19200  -1.03630
 Alpha  occ. eigenvalues --   -1.02797  -0.89356  -0.77342  -0.72189  -0.66027
 Alpha  occ. eigenvalues --   -0.61600  -0.57811  -0.55305  -0.52005  -0.48388
 Alpha  occ. eigenvalues --   -0.47644  -0.44783  -0.43881  -0.41479  -0.40390
 Alpha  occ. eigenvalues --   -0.39506  -0.38652  -0.36360  -0.35052  -0.34052
 Alpha  occ. eigenvalues --   -0.31074  -0.28312  -0.27775  -0.24331
 Alpha virt. eigenvalues --   -0.02191   0.06175   0.08883   0.09815   0.12386
 Alpha virt. eigenvalues --    0.12994   0.14632   0.14916   0.15686   0.17025
 Alpha virt. eigenvalues --    0.18061   0.18853   0.19801   0.21539   0.22332

 Mulliken charges:
               1
     1  O   -0.428311
     2  C    0.042484
     3  C   -0.261989
     4  C   -0.237141
     5  C   -0.051530
     6  C   -0.331617
     7  C    0.215948
     8  C    0.059180
     9  O   -0.282104
    10  H    0.281232
    11  H    0.093460
    12  H    0.111525
    13  H    0.113101
    14  H    0.111904
    15  H    0.101755
    16  H    0.108753
    17  H    0.117020
    18  H    0.143051
    19  H    0.093281
 Sum of Mulliken charges =   0.00000

 Dipole moment (field-independent basis, Debye):
    X=             -2.9009    Y=             -1.0136    Z=             -0.0866  Tot=              3.0741
 Quadrupole moment (field-independent basis, Debye-Ang):
   XX=            -61.6476   YY=            -55.8918   ZZ=            -49.1501
   XY=              2.2452   XZ=              1.8276   YZ=             -1.2378

  Exact polarizability:  84.495   2.134  76.702  -0.212  -0.531  65.213
 Approx polarizability: 120.260   0.549 115.534  -1.639  -0.651 102.703

                      1                      2                      3
                      A                      A                      A
 Frequencies --     97.9651               134.3653               190.9050
 Red. masses --      4.0486                 3.0859                 4.2005
 Frc consts  --      0.0229                 0.0328                 0.0902
 IR Inten    --      4.9518                 9.7535                 3.1637

                      4                      5                      6
                      A                      A                      A
 Frequencies --    228.8620               275.4117               322.8237
 Red. masses --      2.4980                 2.6800                 1.1123
 Frc consts  --      0.0771                 0.1198                 0.0683
 IR Inten    --      3.7490                 2.5187                82.5532

                      7                      8                      9
                      A                      A                      A
 Frequencies --    385.4914               410.9930               442.6524
 Red. masses --      2.8606                 2.2101                 4.6443
 Frc consts  --      0.2505                 0.2200                 0.5362
 IR Inten    --      2.3085                 1.3256                 4.3330

                     10                     11                     12
                      A                      A                      A
 Frequencies --    506.5212               640.7577               725.8960
 Red. masses --      3.4936                 2.6381                 3.3998
 Frc consts  --      0.5281                 0.6382                 1.0555
 IR Inten    --      8.6333                 3.5107                12.7915

                     13                     14                     15
                      A                      A                      A
 Frequencies --    758.2990               810.8796               815.9768
 Red. masses --      3.9351                 2.2005                 2.5053
 Frc consts  --      1.3332                 0.8525                 0.9828
 IR Inten    --     15.8887                 0.6147                 9.3004

                     16                     17                     18
                      A                      A                      A
 Frequencies --    854.8837               902.6139               929.6917
 Red. masses --      3.0416                 1.7612                 1.5264
 Frc consts  --      1.3097                 0.8454                 0.7773
 IR Inten    --      8.0855                 7.7933                21.5712

                     19                     20                     21
                      A                      A                      A
 Frequencies --    971.1036               990.3371              1026.4822
 Red. masses --      2.2002                 1.7215                 1.9116
 Frc consts  --      1.2225                 0.9948                 1.1867
 IR Inten    --      8.7341                 5.3710                23.9476

                     22                     23                     24
                      A                      A                      A
 Frequencies --   1057.7072              1066.6465              1085.5065
 Red. masses --      1.7720                 1.8433                 1.7175
 Frc consts  --      1.1680                 1.2356                 1.1924
 IR Inten    --      8.9219                16.0403                35.7750

                     25                     26                     27
                      A                      A                      A
 Frequencies --   1092.5691              1106.9172              1177.1875
 Red. masses --      1.2884                 1.9459                 1.2684
 Frc consts  --      0.9061                 1.4048                 1.0356
 IR Inten    --      2.6198                42.6221                34.8610

                     28                     29                     30
                      A                      A                      A
 Frequencies --   1204.5976              1249.1506              1259.7411
 Red. masses --      1.4664                 1.7281                 1.4482
 Frc consts  --      1.2537                 1.5887                 1.3540
 IR Inten    --     11.3662                 1.7189                34.2020

                     31                     32                     33
                      A                      A                      A
 Frequencies --   1296.6116              1309.5650              1330.2674
 Red. masses --      1.8680                 1.9009                 1.4877
 Frc consts  --      1.8503                 1.9207                 1.5511
 IR Inten    --     19.7942                 5.3983                 3.4729

                     34                     35                     36
                      A                      A                      A
 Frequencies --   1334.8753              1390.1640              1426.6967
 Red. masses --      1.5274                 1.8790                 1.2930
 Frc consts  --      1.6036                 2.1395                 1.5507
 IR Inten    --      8.0008                18.6509                12.6765

                     37                     38                     39
                      A                      A                      A
 Frequencies --   1429.3971              1473.1600              1489.4247
 Red. masses --      1.2710                 1.2672                 1.0906
 Frc consts  --      1.5300                 1.6204                 1.4254
 IR Inten    --     56.2529                15.0997                 6.9060

                     40                     41                     42
                      A                      A                      A
 Frequencies --   1505.7569              1794.2152              2929.6483
 Red. masses --      1.1079                 9.7591                 1.0838
 Frc consts  --      1.4799                18.5102                 5.4804
 IR Inten    --      0.6776               174.6672                82.3564

                     43                     44                     45
                      A                      A                      A
 Frequencies --   3033.2652              3056.6092              3069.5222
 Red. masses --      1.0641                 1.0716                 1.0860
 Frc consts  --      5.7685                 5.8985                 6.0289
 IR Inten    --     35.5834                 3.5799                34.9167

                     46                     47                     48
                      A                      A                      A
 Frequencies --   3078.8319              3112.5414              3135.9317
 Red. masses --      1.0910                 1.1020                 1.0544
 Frc consts  --      6.0932                 6.2902                 6.1091
 IR Inten    --     31.6960                18.6164                12.9100

                     49                     50                     51
                      A                      A                      A
 Frequencies --   3179.1587              3228.6959              3797.1342
 Red. masses --      1.0906                 1.1166                 1.0659
 Frc consts  --      6.4946                 6.8579                 9.0546
 IR Inten    --      6.1664                 2.1131                11.7470

 - Thermochemistry -
 -------------------
 Temperature   298.150 Kelvin.  Pressure   1.00000 Atm.
 Atom     1 has atomic number  8 and mass  15.99491

 Molecular mass:   126.06808 amu.
 Principal axes and moments of inertia in atomic units:
                           1         2         3
     Eigenvalues --   704.742291165.952621571.07396
           X            0.99977   0.02088   0.00544
           Y           -0.02086   0.99977  -0.00388
           Z           -0.00552   0.00377   0.99998
 This molecule is an asymmetric top.
 Rotational symmetry number  1.
 Warning -- assumption of classical behavior for rotation
           may cause significant error
 Rotational temperatures (Kelvin)      0.12290     0.07429     0.05513
 Rotational constants (GHZ):           2.56085     1.54787     1.14873
 Zero-point vibrational energy     419437.1 (Joules/Mol)
                                  100.24787 (Kcal/Mol)
 Warning -- explicit consideration of  10 degrees of freedom as
           vibrations may cause significant error
 Vibrational temperatures:    140.95   193.32   274.67   329.28   396.26
          (Kelvin)            464.47   554.64   591.33   636.88   728.77
                              921.91  1044.40  1091.02  1166.67  1174.01
                             1229.99  1298.66  1337.62  1397.20  1424.87
                             1476.88  1521.80  1534.66  1561.80  1571.96
                             1592.60  1693.71  1733.15  1797.25  1812.48
                             1865.53  1884.17  1913.96  1920.59  2000.13
                             2052.70  2056.58  2119.55  2142.95  2166.45
                             2581.47  4215.11  4364.19  4397.77  4416.35
                             4429.75  4478.25  4511.90  4574.09  4645.37
                             5463.22

 Zero-point correction=                           0.159755 (Hartree/Particle)
 Thermal correction to Energy=                    0.168081
 Thermal correction to Enthalpy=                  0.169026
 Thermal correction to Gibbs Free Energy=         0.126979
 Sum of electronic and zero-point Energies=           -423.040078
 Sum of electronic and thermal Energies=              -423.031752
 Sum of electronic and thermal Enthalpies=            -423.030808
 Sum of electronic and thermal Free Energies=         -423.072854

                     E (Thermal)             CV                S
                      KCal/Mol        Cal/Mol-Kelvin    Cal/Mol-Kelvin
 Total                  105.473             32.133             88.494
 Electronic               0.000              0.000              0.000
 Translational            0.889              2.981             40.409
 Rotational               0.889              2.981             28.647
 Vibrational            103.695             26.172             19.438
 Vibration     1          0.603              1.951              3.494
 Vibration     2          0.613              1.919              2.883
 Vibration     3          0.634              1.852              2.219
 Vibration     4          0.652              1.797              1.888
 Vibration     5          0.677              1.719              1.562
 Vibration     6          0.708              1.630              1.296
 Vibration     7          0.754              1.501              1.018
 Vibration     8          0.775              1.446              0.923
 Vibration     9          0.802              1.377              0.818
 Vibration    10          0.862              1.236              0.642

 Normal termination of Gaussian 09 at Tue Jan 28 09:01:16 2020.
