 Gaussian 09, Revision D.01,
 Gaussian 09:  ES64L-G09RevD.01 24-Apr-2013

 -----------------------------
 # b3lyp 6-31G(2df,p) opt Freq
 -----------------------------

 -----
 titel
 -----
 Symbolic Z-matrix:
 Charge =  0 Multiplicity = 1

 SCF Done:  E(RB3LYP) =  -423.175368613     A.U. after   14 cycles
 Optimization completed.
    -- Stationary point found.
 Normal termination of Gaussian 09 at Tue Jan 28 00:05:17 2020.

 ----------------------------------------------------------------------
 #N Geom=AllCheck Guess=TCheck SCRF=Check GenChk RB3LYP/6-31G(2df,p) Fr
 eq
 ----------------------------------------------------------------------

 Structure from the checkpoint file:  "/scratch/puck/g09_ceb33945-fd5a-42a0-ba0a-c00a2a4ebab5/Gau-82557.chk"
 -----
 titel
 -----
 Charge =  0 Multiplicity = 1

                         Standard orientation:
 ---------------------------------------------------------------------
 Center     Atomic      Atomic             Coordinates (Angstroms)
 Number     Number       Type             X           Y           Z
 ---------------------------------------------------------------------
      1          6           0        2.324240   -0.110605    0.824033
      2          6           0        1.319983    0.203072   -0.302467
      3          6           0        0.795280   -1.076166   -0.915099
      4          6           0       -0.349619   -1.650582   -0.543402
      5          6           0       -1.199042   -1.040699    0.509509
      6          8           0       -2.075751    0.046666    0.115749
      7          6           0       -0.924706    0.343681    0.918582
      8          6           0        0.172476    1.126284    0.172938
      9          8           0       -0.389873    1.830865   -0.916659
     10          1           0        3.129970   -0.757296    0.463310
     11          1           0        2.776358    0.808684    1.211093
     12          1           0        1.834639   -0.629753    1.654985
     13          1           0        1.843542    0.768938   -1.081211
     14          1           0        1.416502   -1.552529   -1.670140
     15          1           0       -0.686391   -2.580908   -0.991009
     16          1           0       -1.669598   -1.720012    1.218916
     17          1           0       -1.163778    0.661418    1.931433
     18          1           0        0.594352    1.875251    0.854183
     19          1           0       -1.182283    1.336048   -1.168845
 ---------------------------------------------------------------------

 SCF Done:  E(RB3LYP) =  -423.175368613     A.U. after    1 cycles

 The electronic state is 1-A.
 Alpha  occ. eigenvalues --  -19.16170 -19.12276 -10.24580 -10.24081 -10.23381
 Alpha  occ. eigenvalues --  -10.19541 -10.19256 -10.18999 -10.18350  -1.07855
 Alpha  occ. eigenvalues --   -1.00691  -0.82571  -0.75758  -0.71061  -0.67150
 Alpha  occ. eigenvalues --   -0.62005  -0.60343  -0.54282  -0.51465  -0.48680
 Alpha  occ. eigenvalues --   -0.46610  -0.45636  -0.43095  -0.42271  -0.40459
 Alpha  occ. eigenvalues --   -0.39285  -0.37026  -0.35719  -0.34832  -0.32868
 Alpha  occ. eigenvalues --   -0.30572  -0.28189  -0.26546  -0.24855
 Alpha virt. eigenvalues --   -0.00638   0.07543   0.08442   0.11744   0.12288
 Alpha virt. eigenvalues --    0.12769   0.14389   0.15463   0.16097   0.16293
 Alpha virt. eigenvalues --    0.18007   0.19070   0.19603   0.21548   0.23587

 Mulliken charges:
               1
     1  C   -0.402588
     2  C   -0.055784
     3  C   -0.068236
     4  C   -0.089917
     5  C    0.025681
     6  O   -0.265074
     7  C   -0.013651
     8  C    0.096380
     9  O   -0.442831
    10  H    0.119894
    11  H    0.118433
    12  H    0.120147
    13  H    0.094514
    14  H    0.098765
    15  H    0.096676
    16  H    0.099793
    17  H    0.100668
    18  H    0.074888
    19  H    0.292245
 Sum of Mulliken charges =   0.00000

 Dipole moment (field-independent basis, Debye):
    X=              1.2821    Y=             -1.9076    Z=              1.2512  Tot=              2.6170
 Quadrupole moment (field-independent basis, Debye-Ang):
   XX=            -54.4555   YY=            -54.8613   ZZ=            -51.4438
   XY=              1.6780   XZ=             -1.2480   YZ=              2.9758

  Exact polarizability:  83.009   6.134  75.718  -3.809   4.173  66.578
 Approx polarizability: 126.261  11.788 112.472  -5.978   2.496 100.704

                      1                      2                      3
                      A                      A                      A
 Frequencies --     69.3978               158.6235               218.3574
 Red. masses --      3.9672                 3.9013                 1.2389
 Frc consts  --      0.0113                 0.0578                 0.0348
 IR Inten    --      0.3251                 0.6236                 0.3594

                      4                      5                      6
                      A                      A                      A
 Frequencies --    259.8900               300.2389               359.5102
 Red. masses --      2.0492                 4.1263                 3.2507
 Frc consts  --      0.0815                 0.2192                 0.2475
 IR Inten    --      1.3431                 6.3017                 3.6189

                      7                      8                      9
                      A                      A                      A
 Frequencies --    418.2346               454.3609               492.1567
 Red. masses --      2.4879                 1.3282                 4.3346
 Frc consts  --      0.2564                 0.1615                 0.6186
 IR Inten    --     25.2882                37.5503                 4.2034

                     10                     11                     12
                      A                      A                      A
 Frequencies --    527.8908               585.2616               673.7644
 Red. masses --      4.9253                 3.7179                 3.6703
 Frc consts  --      0.8087                 0.7503                 0.9817
 IR Inten    --      2.2712                 3.4020                20.3894

                     13                     14                     15
                      A                      A                      A
 Frequencies --    743.4244               771.2160               815.4230
 Red. masses --      2.8048                 2.1528                 2.9150
 Frc consts  --      0.9133                 0.7544                 1.1420
 IR Inten    --     13.3548                 7.5188                10.7159

                     16                     17                     18
                      A                      A                      A
 Frequencies --    848.1459               893.3279               920.4257
 Red. masses --      2.4391                 2.6621                 2.8641
 Frc consts  --      1.0337                 1.2517                 1.4296
 IR Inten    --      3.3642                33.4472                 6.1954

                     19                     20                     21
                      A                      A                      A
 Frequencies --    968.8521               997.3213              1010.6433
 Red. masses --      2.6234                 1.6076                 1.7807
 Frc consts  --      1.4509                 0.9421                 1.0716
 IR Inten    --     23.7549                14.1026                14.9386

                     22                     23                     24
                      A                      A                      A
 Frequencies --   1027.6155              1069.8574              1082.4727
 Red. masses --      2.0899                 3.1953                 1.4490
 Frc consts  --      1.3003                 2.1548                 1.0003
 IR Inten    --      1.4224                44.0434                 9.0960

                     25                     26                     27
                      A                      A                      A
 Frequencies --   1107.0121              1137.4628              1171.3279
 Red. masses --      2.6001                 1.3547                 1.4755
 Frc consts  --      1.8773                 1.0327                 1.1928
 IR Inten    --     27.1121                 0.6450                12.4847

                     28                     29                     30
                      A                      A                      A
 Frequencies --   1191.4998              1277.7319              1281.6348
 Red. masses --      1.1600                 1.4298                 1.2423
 Frc consts  --      0.9703                 1.3753                 1.2023
 IR Inten    --      0.8572                13.8561                10.1094

                     31                     32                     33
                      A                      A                      A
 Frequencies --   1309.9329              1328.1641              1353.2225
 Red. masses --      1.3250                 1.5262                 1.2350
 Frc consts  --      1.3396                 1.5862                 1.3325
 IR Inten    --      0.5732                10.9601                 2.4096

                     34                     35                     36
                      A                      A                      A
 Frequencies --   1386.1155              1398.5387              1427.2680
 Red. masses --      1.3748                 1.2662                 1.4857
 Frc consts  --      1.5563                 1.4591                 1.7831
 IR Inten    --      1.5203                 0.5621                 2.8549

                     37                     38                     39
                      A                      A                      A
 Frequencies --   1449.3980              1462.4655              1494.2377
 Red. masses --      1.7872                 1.9232                 1.0478
 Frc consts  --      2.2120                 2.4235                 1.3784
 IR Inten    --     68.5296                27.9920                 5.2949

                     40                     41                     42
                      A                      A                      A
 Frequencies --   1498.4956              1708.3056              3027.2558
 Red. masses --      1.0605                 6.7337                 1.0652
 Frc consts  --      1.4030                11.5780                 5.7514
 IR Inten    --      2.7230                 6.4493                 9.6374

                     43                     44                     45
                      A                      A                      A
 Frequencies --   3032.0074              3045.2475              3101.6261
 Red. masses --      1.0534                 1.0838                 1.1018
 Frc consts  --      5.7058                 5.9219                 6.2449
 IR Inten    --     49.8428                11.5602                31.5127

                     46                     47                     48
                      A                      A                      A
 Frequencies --   3105.1171              3117.6955              3131.1821
 Red. masses --      1.1012                 1.0858                 1.0917
 Frc consts  --      6.2557                 6.2185                 6.3065
 IR Inten    --     20.4061                15.4486                40.2246

                     49                     50                     51
                      A                      A                      A
 Frequencies --   3149.8728              3178.3229              3734.2630
 Red. masses --      1.0852                 1.0965                 1.0650
 Frc consts  --      6.3440                 6.5261                 8.7500
 IR Inten    --     10.4492                23.0388                51.3348

 - Thermochemistry -
 -------------------
 Temperature   298.150 Kelvin.  Pressure   1.00000 Atm.
 Atom     1 has atomic number  6 and mass  12.00000

 Molecular mass:   126.06808 amu.
 Principal axes and moments of inertia in atomic units:
                           1         2         3
     Eigenvalues --   776.506101047.362551347.38218
           X            0.99981   0.01537   0.01212
           Y           -0.01581   0.99920   0.03662
           Z           -0.01155  -0.03680   0.99926
 This molecule is an asymmetric top.
 Rotational symmetry number  1.
 Warning -- assumption of classical behavior for rotation
           may cause significant error
 Rotational temperatures (Kelvin)      0.11154     0.08270     0.06428
 Rotational constants (GHZ):           2.32418     1.72313     1.33944
 Zero-point vibrational energy     420318.8 (Joules/Mol)
                                  100.45860 (Kcal/Mol)
 Warning -- explicit consideration of  11 degrees of freedom as
           vibrations may cause significant error
 Vibrational temperatures:     99.85   228.22   314.17   373.92   431.98
          (Kelvin)            517.25   601.75   653.72   708.10   759.52
                              842.06   969.40  1069.62  1109.61  1173.21
                             1220.29  1285.30  1324.29  1393.96  1434.92
                             1454.09  1478.51  1539.28  1557.43  1592.74
                             1636.55  1685.28  1714.30  1838.37  1843.98
                             1884.70  1910.93  1946.98  1994.31  2012.18
                             2053.52  2085.36  2104.16  2149.87  2156.00
                             2457.87  4355.54  4362.38  4381.43  4462.54
                             4467.57  4485.66  4505.07  4531.96  4572.89
                             5372.76

 Zero-point correction=                           0.160091 (Hartree/Particle)
 Thermal correction to Energy=                    0.168214
 Thermal correction to Enthalpy=                  0.169158
 Thermal correction to Gibbs Free Energy=         0.127510
 Sum of electronic and zero-point Energies=           -423.015278
 Sum of electronic and thermal Energies=              -423.007155
 Sum of electronic and thermal Enthalpies=            -423.006211
 Sum of electronic and thermal Free Energies=         -423.047859

                     E (Thermal)             CV                S
                      KCal/Mol        Cal/Mol-Kelvin    Cal/Mol-Kelvin
 Total                  105.556             31.885             87.656
 Electronic               0.000              0.000              0.000
 Translational            0.889              2.981             40.409
 Rotational               0.889              2.981             28.485
 Vibrational            103.778             25.923             18.763
 Vibration     1          0.598              1.969              4.170
 Vibration     2          0.621              1.893              2.566
 Vibration     3          0.646              1.813              1.973
 Vibration     4          0.668              1.746              1.663
 Vibration     5          0.693              1.673              1.416
 Vibration     6          0.734              1.556              1.124
 Vibration     7          0.781              1.431              0.898
 Vibration     8          0.813              1.351              0.783
 Vibration     9          0.848              1.267              0.678
 Vibration    10          0.883              1.188              0.592
 Vibration    11          0.942              1.063              0.476

 Optimization completed.
    -- Stationary point found.
 Normal termination of Gaussian 09 at Tue Jan 28 00:48:09 2020.
