 Gaussian 09, Revision D.01,
 Gaussian 09:  ES64L-G09RevD.01 24-Apr-2013

 -----------------------------
 # b3lyp 6-31G(2df,p) opt Freq
 -----------------------------

 -----
 titel
 -----
 Symbolic Z-matrix:
 Charge =  0 Multiplicity = 1

 SCF Done:  E(RB3LYP) =  -423.164234079     A.U. after   13 cycles
 Optimization completed.
    -- Stationary point found.
 Normal termination of Gaussian 09 at Mon Jan 27 16:59:35 2020.

 ----------------------------------------------------------------------
 #N Geom=AllCheck Guess=TCheck SCRF=Check GenChk RB3LYP/6-31G(2df,p) Fr
 eq
 ----------------------------------------------------------------------

 Structure from the checkpoint file:  "/scratch/puck/g09_f08b3192-d417-4271-9e4c-bfd1b89ff508/Gau-85057.chk"
 -----
 titel
 -----
 Charge =  0 Multiplicity = 1

                         Standard orientation:
 ---------------------------------------------------------------------
 Center     Atomic      Atomic             Coordinates (Angstroms)
 Number     Number       Type             X           Y           Z
 ---------------------------------------------------------------------
      1          6           0       -1.939737   -1.211526   -0.421453
      2          6           0       -0.762710   -0.335199   -0.083343
      3          6           0       -0.766709    1.038644    0.653969
      4          6           0       -0.108554    1.713646   -0.563732
      5          6           0        0.143978    0.301877   -1.184191
      6          8           0        1.463868   -0.198146   -1.041927
      7          6           0        1.600913   -0.917999    0.184854
      8          6           0        0.304858   -0.729640    0.958568
      9          8           0        0.215763    0.564714    1.604179
     10          1           0       -2.633513   -0.703569   -1.100117
     11          1           0       -1.612646   -2.133607   -0.916604
     12          1           0       -2.499228   -1.494011    0.476785
     13          1           0       -1.624586    1.503410    1.145126
     14          1           0       -0.833064    2.285380   -1.153039
     15          1           0        0.773879    2.325390   -0.366575
     16          1           0       -0.159398    0.181460   -2.227538
     17          1           0        1.775218   -1.982730   -0.029340
     18          1           0        2.458029   -0.529674    0.746885
     19          1           0        0.086038   -1.543415    1.658365
 ---------------------------------------------------------------------

 SCF Done:  E(RB3LYP) =  -423.164234079     A.U. after    1 cycles

 The electronic state is 1-A.
 Alpha  occ. eigenvalues --  -19.13481 -19.13358 -10.23483 -10.23195 -10.23125
 Alpha  occ. eigenvalues --  -10.22480 -10.19744 -10.18900 -10.17768  -1.05433
 Alpha  occ. eigenvalues --   -1.01671  -0.82367  -0.76270  -0.71547  -0.66781
 Alpha  occ. eigenvalues --   -0.63412  -0.57086  -0.54096  -0.50232  -0.48531
 Alpha  occ. eigenvalues --   -0.46127  -0.44413  -0.43299  -0.41851  -0.40911
 Alpha  occ. eigenvalues --   -0.40317  -0.38567  -0.37292  -0.34735  -0.31677
 Alpha  occ. eigenvalues --   -0.29500  -0.27887  -0.24806  -0.24235
 Alpha virt. eigenvalues --    0.06975   0.08804   0.10545   0.12003   0.12578
 Alpha virt. eigenvalues --    0.13434   0.14185   0.14835   0.15491   0.16677
 Alpha virt. eigenvalues --    0.17165   0.18808   0.19189   0.19871   0.21380

 Mulliken charges:
               1
     1  C   -0.531548
     2  C    0.272322
     3  C    0.056912
     4  C   -0.256854
     5  C    0.058666
     6  O   -0.275523
     7  C   -0.092562
     8  C    0.053884
     9  O   -0.315106
    10  H    0.123179
    11  H    0.126649
    12  H    0.125511
    13  H    0.076317
    14  H    0.098324
    15  H    0.112423
    16  H    0.080116
    17  H    0.094714
    18  H    0.115141
    19  H    0.077433
 Sum of Mulliken charges =   0.00000

 Dipole moment (field-independent basis, Debye):
    X=             -1.8219    Y=             -0.9337    Z=             -0.4263  Tot=              2.0911
 Quadrupole moment (field-independent basis, Debye-Ang):
   XX=            -53.0623   YY=            -50.6321   ZZ=            -56.6274
   XY=             -1.4959   XZ=              2.3116   YZ=             -2.5055

  Exact polarizability:  75.357  -3.313  77.579   2.436  -3.013  68.750
 Approx polarizability: 105.613  -5.419 109.701   2.720  -2.531 105.164

                      1                      2                      3
                      A                      A                      A
 Frequencies --    102.7363               199.8293               203.0022
 Red. masses --      3.2731                 2.5572                 1.0854
 Frc consts  --      0.0204                 0.0602                 0.0264
 IR Inten    --      4.3644                 0.0801                 0.0232

                      4                      5                      6
                      A                      A                      A
 Frequencies --    245.6092               365.9842               374.1258
 Red. masses --      2.3579                 3.4281                 2.4972
 Frc consts  --      0.0838                 0.2705                 0.2059
 IR Inten    --      0.5582                 3.3204                 0.8642

                      7                      8                      9
                      A                      A                      A
 Frequencies --    396.2506               579.4729               654.9723
 Red. masses --      2.2751                 3.3282                 4.2648
 Frc consts  --      0.2105                 0.6585                 1.0779
 IR Inten    --      1.8166                 1.0764                 1.8127

                     10                     11                     12
                      A                      A                      A
 Frequencies --    677.8730               749.3854               796.4181
 Red. masses --      4.4867                 4.5426                 2.9096
 Frc consts  --      1.2147                 1.5030                 1.0874
 IR Inten    --      7.7412                 2.4513                 7.9197

                     13                     14                     15
                      A                      A                      A
 Frequencies --    859.8082               872.0492               878.2924
 Red. masses --      2.5895                 1.9337                 2.6222
 Frc consts  --      1.1279                 0.8664                 1.1918
 IR Inten    --     25.7134                 2.3401                16.1174

                     16                     17                     18
                      A                      A                      A
 Frequencies --    925.2982               927.9654               963.3993
 Red. masses --      2.2620                 1.9851                 2.2707
 Frc consts  --      1.1411                 1.0072                 1.2417
 IR Inten    --      4.5722                16.4272                11.9813

                     19                     20                     21
                      A                      A                      A
 Frequencies --    979.1819              1026.6349              1053.7291
 Red. masses --      2.2308                 2.4479                 2.4935
 Frc consts  --      1.2602                 1.5201                 1.6313
 IR Inten    --      5.2334                 6.5556                 2.5844

                     22                     23                     24
                      A                      A                      A
 Frequencies --   1084.1638              1101.8064              1146.5233
 Red. masses --      2.9749                 2.6120                 1.8314
 Frc consts  --      2.0602                 1.8683                 1.4184
 IR Inten    --     28.9178               119.4778                14.8923

                     25                     26                     27
                      A                      A                      A
 Frequencies --   1163.0712              1177.2742              1184.6859
 Red. masses --      2.2961                 1.6755                 2.0803
 Frc consts  --      1.8300                 1.3682                 1.7203
 IR Inten    --      5.0642                13.2482                 5.9921

                     28                     29                     30
                      A                      A                      A
 Frequencies --   1214.4150              1218.6449              1242.3820
 Red. masses --      2.5949                 1.4051                 1.4279
 Frc consts  --      2.2548                 1.2295                 1.2985
 IR Inten    --      6.0463                11.8481                 0.8226

                     31                     32                     33
                      A                      A                      A
 Frequencies --   1267.8613              1297.6513              1344.5053
 Red. masses --      1.7081                 1.2011                 1.2724
 Frc consts  --      1.6177                 1.1916                 1.3552
 IR Inten    --      7.0601                 5.3490                 9.8181

                     34                     35                     36
                      A                      A                      A
 Frequencies --   1345.8883              1364.9370              1400.2467
 Red. masses --      1.4800                 1.9300                 1.6832
 Frc consts  --      1.5796                 2.1185                 1.9444
 IR Inten    --      5.4865                 1.2995                 2.2336

                     37                     38                     39
                      A                      A                      A
 Frequencies --   1413.4310              1451.8326              1490.5709
 Red. masses --      1.3019                 1.1213                 1.0493
 Frc consts  --      1.5325                 1.3926                 1.3736
 IR Inten    --      0.7256                 4.0346                 4.9306

                     40                     41                     42
                      A                      A                      A
 Frequencies --   1494.2095              1504.7037              2997.0155
 Red. masses --      1.0491                 1.0900                 1.0656
 Frc consts  --      1.3801                 1.4540                 5.6393
 IR Inten    --      5.2387                 1.7683                55.6519

                     43                     44                     45
                      A                      A                      A
 Frequencies --   3023.3433              3050.2811              3052.1348
 Red. masses --      1.0357                 1.0628                 1.0871
 Frc consts  --      5.5780                 5.8259                 5.9667
 IR Inten    --     24.5390                15.2352                67.6556

                     46                     47                     48
                      A                      A                      A
 Frequencies --   3061.7263              3073.0335              3085.9982
 Red. masses --      1.0983                 1.0875                 1.0912
 Frc consts  --      6.0662                 6.0507                 6.1226
 IR Inten    --     28.8800                43.0069                29.9777

                     49                     50                     51
                      A                      A                      A
 Frequencies --   3087.5223              3094.6168              3124.6349
 Red. masses --      1.0990                 1.1013                 1.1047
 Frc consts  --      6.1725                 6.2138                 6.3549
 IR Inten    --     39.6827                23.8390                15.6266

 - Thermochemistry -
 -------------------
 Temperature   298.150 Kelvin.  Pressure   1.00000 Atm.
 Atom     1 has atomic number  6 and mass  12.00000

 Molecular mass:   126.06808 amu.
 Principal axes and moments of inertia in atomic units:
                           1         2         3
     Eigenvalues --   815.24861 949.42503 979.95722
           X            0.99394   0.07946   0.07590
           Y           -0.04775   0.93443  -0.35292
           Z           -0.09896   0.34716   0.93257
 This molecule is an asymmetric top.
 Rotational symmetry number  1.
 Warning -- assumption of classical behavior for rotation
           may cause significant error
 Rotational temperatures (Kelvin)      0.10624     0.09123     0.08839
 Rotational constants (GHZ):           2.21373     1.90088     1.84165
 Zero-point vibrational energy     421032.4 (Joules/Mol)
                                  100.62917 (Kcal/Mol)
 Warning -- explicit consideration of   8 degrees of freedom as
           vibrations may cause significant error
 Vibrational temperatures:    147.81   287.51   292.07   353.38   526.57
          (Kelvin)            538.28   570.12   833.73   942.36   975.31
                             1078.20  1145.87  1237.07  1254.68  1263.67
                             1331.30  1335.13  1386.11  1408.82  1477.10
                             1516.08  1559.87  1585.25  1649.59  1673.40
                             1693.83  1704.50  1747.27  1753.36  1787.51
                             1824.17  1867.03  1934.44  1936.43  1963.84
                             2014.64  2033.61  2088.86  2144.60  2149.83
                             2164.93  4312.03  4349.91  4388.67  4391.34
                             4405.14  4421.40  4440.06  4442.25  4452.46
                             4495.65

 Zero-point correction=                           0.160363 (Hartree/Particle)
 Thermal correction to Energy=                    0.167811
 Thermal correction to Enthalpy=                  0.168755
 Thermal correction to Gibbs Free Energy=         0.128631
 Sum of electronic and zero-point Energies=           -423.003871
 Sum of electronic and thermal Energies=              -422.996424
 Sum of electronic and thermal Enthalpies=            -422.995479
 Sum of electronic and thermal Free Energies=         -423.035603

                     E (Thermal)             CV                S
                      KCal/Mol        Cal/Mol-Kelvin    Cal/Mol-Kelvin
 Total                  105.303             29.467             84.446
 Electronic               0.000              0.000              0.000
 Translational            0.889              2.981             40.409
 Rotational               0.889              2.981             28.119
 Vibrational            103.525             23.505             15.919
 Vibration     1          0.605              1.947              3.402
 Vibration     2          0.638              1.840              2.135
 Vibration     3          0.639              1.836              2.106
 Vibration     4          0.660              1.770              1.762
 Vibration     5          0.739              1.542              1.097
 Vibration     6          0.745              1.525              1.063
 Vibration     7          0.763              1.478              0.977
 Vibration     8          0.936              1.076              0.486

 Optimization completed.
    -- Stationary point found.
 Normal termination of Gaussian 09 at Mon Jan 27 17:47:08 2020.
