 Gaussian 09, Revision D.01,
 Gaussian 09:  ES64L-G09RevD.01 24-Apr-2013

 -----------------------------
 # b3lyp 6-31G(2df,p) opt Freq
 -----------------------------

 -----
 titel
 -----
 Symbolic Z-matrix:
 Charge =  0 Multiplicity = 1

 SCF Done:  E(RB3LYP) =  -423.219665937     A.U. after   14 cycles
 Optimization completed.
    -- Stationary point found.
 Normal termination of Gaussian 09 at Mon Jan 27 15:34:56 2020.

 ----------------------------------------------------------------------
 #N Geom=AllCheck Guess=TCheck SCRF=Check GenChk RB3LYP/6-31G(2df,p) Fr
 eq
 ----------------------------------------------------------------------

 Structure from the checkpoint file:  "/scratch/puck/g09_9b1eee7b-7082-4b62-a006-049c55ff3571/Gau-175587.chk"
 -----
 titel
 -----
 Charge =  0 Multiplicity = 1

                         Standard orientation:
 ---------------------------------------------------------------------
 Center     Atomic      Atomic             Coordinates (Angstroms)
 Number     Number       Type             X           Y           Z
 ---------------------------------------------------------------------
      1          6           0        2.476684   -0.377063   -1.140785
      2          6           0        1.830301    0.324864    0.051575
      3          8           0        2.270972   -0.379874    1.216883
      4          6           0        0.327300    0.348585   -0.012778
      5          6           0       -0.438878    1.445123   -0.033460
      6          6           0       -1.910447    1.141774   -0.064070
      7          6           0       -1.951576   -0.396533   -0.015694
      8          8           0       -2.943995   -1.074110    0.011476
      9          6           0       -0.504259   -0.912723   -0.009827
     10          1           0        2.210854    0.126821   -2.074079
     11          1           0        3.564128   -0.365154   -1.029585
     12          1           0        2.153364   -1.420180   -1.198249
     13          1           0        2.188440    1.366353    0.082059
     14          1           0        1.891591    0.061318    1.984263
     15          1           0       -0.049979    2.458292   -0.029614
     16          1           0       -2.470753    1.561337    0.781448
     17          1           0       -2.418332    1.499253   -0.969769
     18          1           0       -0.320873   -1.548866    0.863847
     19          1           0       -0.338997   -1.551462   -0.886957
 ---------------------------------------------------------------------

 SCF Done:  E(RB3LYP) =  -423.219665937     A.U. after    1 cycles

 The electronic state is 1-A.
 Alpha  occ. eigenvalues --  -19.14089 -19.13101 -10.27152 -10.24232 -10.19699
 Alpha  occ. eigenvalues --  -10.19554 -10.19381 -10.19310 -10.17969  -1.04248
 Alpha  occ. eigenvalues --   -1.02193  -0.85225  -0.76511  -0.72335  -0.69319
 Alpha  occ. eigenvalues --   -0.61283  -0.54637  -0.54271  -0.51890  -0.47261
 Alpha  occ. eigenvalues --   -0.47086  -0.43114  -0.41935  -0.41230  -0.40993
 Alpha  occ. eigenvalues --   -0.39656  -0.38675  -0.38387  -0.36163  -0.35353
 Alpha  occ. eigenvalues --   -0.33011  -0.27980  -0.25319  -0.24155
 Alpha virt. eigenvalues --   -0.01760   0.00555   0.07552   0.10432   0.11775
 Alpha virt. eigenvalues --    0.12034   0.14375   0.15695   0.16395   0.17396
 Alpha virt. eigenvalues --    0.17752   0.18081   0.19267   0.21354   0.22372

 Mulliken charges:
               1
     1  C   -0.387783
     2  C    0.022024
     3  O   -0.429320
     4  C    0.318507
     5  C   -0.206850
     6  C   -0.368105
     7  C    0.392216
     8  O   -0.300606
     9  C   -0.417485
    10  H    0.118985
    11  H    0.127644
    12  H    0.127814
    13  H    0.066540
    14  H    0.282162
    15  H    0.096368
    16  H    0.137063
    17  H    0.138945
    18  H    0.143140
    19  H    0.138741
 Sum of Mulliken charges =   0.00000

 Dipole moment (field-independent basis, Debye):
    X=              1.4734    Y=              2.4333    Z=             -0.0232  Tot=              2.8447
 Quadrupole moment (field-independent basis, Debye-Ang):
   XX=            -64.8459   YY=            -52.9742   ZZ=            -49.7047
   XY=             -3.4016   XZ=             -1.0482   YZ=              1.6248

  Exact polarizability:  94.509  -5.709  79.748  -1.047   0.087  60.638
 Approx polarizability: 127.330 -10.126 127.050   0.986  -1.581  91.725

                      1                      2                      3
                      A                      A                      A
 Frequencies --     54.8749                68.4243               154.4608
 Red. masses --      3.5525                 3.1566                 2.5869
 Frc consts  --      0.0063                 0.0087                 0.0364
 IR Inten    --      1.1039                 4.8037                 2.2997

                      4                      5                      6
                      A                      A                      A
 Frequencies --    178.8879               227.4564               315.1148
 Red. masses --      3.9986                 1.1342                 2.2976
 Frc consts  --      0.0754                 0.0346                 0.1344
 IR Inten    --      1.9802                 3.6018                 0.7846

                      7                      8                      9
                      A                      A                      A
 Frequencies --    331.8416               354.6870               463.5369
 Red. masses --      2.1681                 1.3339                 2.0244
 Frc consts  --      0.1407                 0.0989                 0.2563
 IR Inten    --     27.2677                91.6093                 1.8936

                     10                     11                     12
                      A                      A                      A
 Frequencies --    466.7316               500.2905               541.8311
 Red. masses --      3.8650                 3.5992                 2.5550
 Frc consts  --      0.4961                 0.5308                 0.4419
 IR Inten    --      9.3857                 4.1697                11.3007

                     13                     14                     15
                      A                      A                      A
 Frequencies --    606.5903               683.7815               784.2122
 Red. masses --      4.8099                 3.7917                 3.2700
 Frc consts  --      1.0428                 1.0445                 1.1849
 IR Inten    --      6.2539                 1.1753                 4.7530

                     16                     17                     18
                      A                      A                      A
 Frequencies --    807.0076               858.6615               867.4937
 Red. masses --      1.3417                 3.9905                 1.5892
 Frc consts  --      0.5148                 1.7335                 0.7046
 IR Inten    --      5.8970                 1.8105                 8.8789

                     19                     20                     21
                      A                      A                      A
 Frequencies --    914.2303               991.1597               997.5117
 Red. masses --      2.2888                 1.6329                 1.9823
 Frc consts  --      1.1271                 0.9451                 1.1621
 IR Inten    --     17.3133                19.2839                19.2656

                     22                     23                     24
                      A                      A                      A
 Frequencies --   1004.7782              1063.6989              1113.3238
 Red. masses --      2.0852                 1.8501                 2.3346
 Frc consts  --      1.2403                 1.2334                 1.7050
 IR Inten    --      2.8047                29.6534                12.2294

                     25                     26                     27
                      A                      A                      A
 Frequencies --   1122.4774              1128.5691              1179.3674
 Red. masses --      1.2284                 3.7145                 1.2860
 Frc consts  --      0.9119                 2.7875                 1.0539
 IR Inten    --      3.1484                73.9629                 4.6033

                     28                     29                     30
                      A                      A                      A
 Frequencies --   1194.4440              1262.0432              1280.9003
 Red. masses --      1.8212                 1.6389                 1.3089
 Frc consts  --      1.5309                 1.5379                 1.2653
 IR Inten    --      4.1324                24.6510                59.4229

                     31                     32                     33
                      A                      A                      A
 Frequencies --   1283.7583              1336.3521              1384.0122
 Red. masses --      1.4994                 2.5790                 1.4145
 Frc consts  --      1.4559                 2.7136                 1.5964
 IR Inten    --      5.8852                 7.1444                 1.3948

                     34                     35                     36
                      A                      A                      A
 Frequencies --   1392.2122              1416.7669              1441.2645
 Red. masses --      1.2733                 1.4892                 1.0856
 Frc consts  --      1.4541                 1.7612                 1.3286
 IR Inten    --     13.6096                25.2478                11.0712

                     37                     38                     39
                      A                      A                      A
 Frequencies --   1445.7162              1484.1359              1498.4414
 Red. masses --      1.0940                 1.0524                 1.0505
 Frc consts  --      1.3472                 1.3658                 1.3898
 IR Inten    --      0.2344                 3.7333                 0.9919

                     40                     41                     42
                      A                      A                      A
 Frequencies --   1704.5814              1854.8400              2971.5621
 Red. masses --      7.3111                12.8389                 1.0834
 Frc consts  --     12.5160                26.0249                 5.6363
 IR Inten    --      0.2379               231.3080                48.5787

                     43                     44                     45
                      A                      A                      A
 Frequencies --   3024.4207              3034.7063              3047.3861
 Red. masses --      1.0602                 1.0624                 1.0347
 Frc consts  --      5.7140                 5.7649                 5.6611
 IR Inten    --     18.7760                 7.1275                13.4388

                     46                     47                     48
                      A                      A                      A
 Frequencies --   3051.7688              3068.5665              3123.5629
 Red. masses --      1.0998                 1.0967                 1.1020
 Frc consts  --      6.0349                 6.0841                 6.3345
 IR Inten    --      8.1120                 5.0642                22.8014

                     49                     50                     51
                      A                      A                      A
 Frequencies --   3126.6552              3183.1140              3811.0384
 Red. masses --      1.1024                 1.0929                 1.0662
 Frc consts  --      6.3498                 6.5241                 9.1242
 IR Inten    --     18.1024                13.0456                14.9982

 - Thermochemistry -
 -------------------
 Temperature   298.150 Kelvin.  Pressure   1.00000 Atm.
 Atom     1 has atomic number  6 and mass  12.00000

 Molecular mass:   126.06808 amu.
 Principal axes and moments of inertia in atomic units:
                           1         2         3
     Eigenvalues --   537.500891882.735852040.88493
           X            0.99969  -0.01885  -0.01621
           Y            0.01951   0.99895   0.04147
           Z            0.01541  -0.04177   0.99901
 This molecule is an asymmetric top.
 Rotational symmetry number  1.
 Warning -- assumption of classical behavior for rotation
           may cause significant error
 Rotational temperatures (Kelvin)      0.16114     0.04600     0.04244
 Rotational constants (GHZ):           3.35765     0.95857     0.88429
 Zero-point vibrational energy     413927.4 (Joules/Mol)
                                   98.93101 (Kcal/Mol)
 Warning -- explicit consideration of  13 degrees of freedom as
           vibrations may cause significant error
 Vibrational temperatures:     78.95    98.45   222.23   257.38   327.26
          (Kelvin)            453.38   477.45   510.31   666.93   671.52
                              719.81   779.57   872.75   983.81  1128.31
                             1161.10  1235.42  1248.13  1315.37  1426.06
                             1435.20  1445.65  1530.42  1601.82  1614.99
                             1623.76  1696.84  1718.54  1815.80  1842.93
                             1847.04  1922.71  1991.28  2003.08  2038.41
                             2073.66  2080.06  2135.34  2155.92  2452.51
                             2668.70  4275.41  4351.46  4366.26  4384.50
                             4390.81  4414.98  4494.10  4498.55  4579.79
                             5483.23

 Zero-point correction=                           0.157657 (Hartree/Particle)
 Thermal correction to Energy=                    0.166871
 Thermal correction to Enthalpy=                  0.167815
 Thermal correction to Gibbs Free Energy=         0.123081
 Sum of electronic and zero-point Energies=           -423.062009
 Sum of electronic and thermal Energies=              -423.052795
 Sum of electronic and thermal Enthalpies=            -423.051851
 Sum of electronic and thermal Free Energies=         -423.096585

                     E (Thermal)             CV                S
                      KCal/Mol        Cal/Mol-Kelvin    Cal/Mol-Kelvin
 Total                  104.713             34.130             94.150
 Electronic               0.000              0.000              0.000
 Translational            0.889              2.981             40.409
 Rotational               0.889              2.981             29.114
 Vibrational            102.935             28.168             24.627
 Vibration     1          0.596              1.976              4.634
 Vibration     2          0.598              1.969              4.198
 Vibration     3          0.620              1.898              2.617
 Vibration     4          0.629              1.868              2.340
 Vibration     5          0.651              1.799              1.899
 Vibration     6          0.702              1.645              1.335
 Vibration     7          0.714              1.612              1.251
 Vibration     8          0.731              1.566              1.145
 Vibration     9          0.821              1.331              0.756
 Vibration    10          0.824              1.324              0.747
 Vibration    11          0.856              1.249              0.657
 Vibration    12          0.897              1.158              0.561
 Vibration    13          0.965              1.018              0.438

 Optimization completed.
    -- Stationary point found.
 Normal termination of Gaussian 09 at Mon Jan 27 16:15:15 2020.
