 Gaussian 09, Revision D.01,
 Gaussian 09:  ES64L-G09RevD.01 24-Apr-2013

 -----------------------------
 # b3lyp 6-31G(2df,p) opt Freq
 -----------------------------

 -----
 titel
 -----
 Symbolic Z-matrix:
 Charge =  0 Multiplicity = 1

 SCF Done:  E(RB3LYP) =  -423.132020439     A.U. after   14 cycles
 Optimization completed.
    -- Stationary point found.
 Normal termination of Gaussian 09 at Tue Jan 28 12:07:25 2020.

 ----------------------------------------------------------------------
 #N Geom=AllCheck Guess=TCheck SCRF=Check GenChk RB3LYP/6-31G(2df,p) Fr
 eq
 ----------------------------------------------------------------------

 Structure from the checkpoint file:  "/scratch/puck/g09_df202c1b-a158-4121-9e4a-fa1ff0b3bb28/Gau-1147.chk"
 -----
 titel
 -----
 Charge =  0 Multiplicity = 1

                         Standard orientation:
 ---------------------------------------------------------------------
 Center     Atomic      Atomic             Coordinates (Angstroms)
 Number     Number       Type             X           Y           Z
 ---------------------------------------------------------------------
      1          6           0        4.154512   -0.452979    0.300023
      2          6           0        2.792088   -0.280125   -0.317971
      3          8           0        2.365169    1.053911   -0.583588
      4          6           0        1.658269    0.308178    0.427877
      5          6           0        0.292371   -0.051060    0.161251
      6          6           0       -0.854920   -0.357909   -0.044010
      7          6           0       -2.256645   -0.677190   -0.275102
      8          6           0       -3.209943    0.403992    0.275572
      9          8           0       -4.568140    0.059855    0.081300
     10          1           0        4.936322   -0.304668   -0.452217
     11          1           0        4.311922    0.271658    1.103392
     12          1           0        4.266501   -1.462890    0.708398
     13          1           0        2.535316   -0.986416   -1.108706
     14          1           0        1.859583    0.655450    1.441543
     15          1           0       -2.434759   -0.797071   -1.352926
     16          1           0       -2.515199   -1.636620    0.189165
     17          1           0       -3.068595    0.496206    1.356232
     18          1           0       -2.961394    1.376436   -0.172594
     19          1           0       -4.760315    0.120354   -0.859820
 ---------------------------------------------------------------------

 SCF Done:  E(RB3LYP) =  -423.132020439     A.U. after    1 cycles

 The electronic state is 1-A.
 Alpha  occ. eigenvalues --  -19.15155 -19.14180 -10.25452 -10.24345 -10.23575
 Alpha  occ. eigenvalues --  -10.20950 -10.18719 -10.18355 -10.17640  -1.07199
 Alpha  occ. eigenvalues --   -1.02357  -0.79723  -0.74865  -0.74305  -0.67181
 Alpha  occ. eigenvalues --   -0.63427  -0.60213  -0.53217  -0.51419  -0.47902
 Alpha  occ. eigenvalues --   -0.47727  -0.45661  -0.43608  -0.41308  -0.40800
 Alpha  occ. eigenvalues --   -0.39672  -0.38591  -0.37643  -0.33585  -0.32746
 Alpha  occ. eigenvalues --   -0.28312  -0.27422  -0.26163  -0.24489
 Alpha virt. eigenvalues --    0.02677   0.04203   0.07075   0.10966   0.11935
 Alpha virt. eigenvalues --    0.12389   0.13405   0.13879   0.15094   0.15849
 Alpha virt. eigenvalues --    0.16596   0.17229   0.18109   0.21231   0.21956

 Mulliken charges:
               1
     1  C   -0.419166
     2  C    0.093782
     3  O   -0.243534
     4  C   -0.168764
     5  C    0.086021
     6  C    0.103107
     7  C   -0.362221
     8  C   -0.055958
     9  O   -0.407839
    10  H    0.132548
    11  H    0.128818
    12  H    0.126275
    13  H    0.098800
    14  H    0.109876
    15  H    0.122372
    16  H    0.140264
    17  H    0.125350
    18  H    0.105287
    19  H    0.284982
 Sum of Mulliken charges =   0.00000

 Dipole moment (field-independent basis, Debye):
    X=              0.4475    Y=             -1.2667    Z=             -0.3389  Tot=              1.3855
 Quadrupole moment (field-independent basis, Debye-Ang):
   XX=            -51.5433   YY=            -54.7203   ZZ=            -50.7635
   XY=             -4.3285   XZ=              8.8601   YZ=              1.9468

  Exact polarizability: 129.122   2.931  61.618   3.291   3.014  62.774
 Approx polarizability: 163.451  12.505  95.063   4.032   2.460  95.380

                      1                      2                      3
                      A                      A                      A
 Frequencies --     19.7845                61.9125                75.9356
 Red. masses --      3.2063                 4.7771                 2.5502
 Frc consts  --      0.0007                 0.0108                 0.0087
 IR Inten    --      2.8222                 0.3904                 5.7185

                      4                      5                      6
                      A                      A                      A
 Frequencies --    132.0510               144.8700               205.7518
 Red. masses --      3.4911                 3.7232                 1.1407
 Frc consts  --      0.0359                 0.0460                 0.0285
 IR Inten    --      1.8011                 0.1375                 0.1500

                      7                      8                      9
                      A                      A                      A
 Frequencies --    274.1614               299.5771               330.3737
 Red. masses --      2.8580                 1.2590                 2.9491
 Frc consts  --      0.1266                 0.0666                 0.1896
 IR Inten    --      1.6344                80.3865                23.1339

                     10                     11                     12
                      A                      A                      A
 Frequencies --    359.9869               401.3601               480.1689
 Red. masses --      3.4986                 4.1044                 5.7304
 Frc consts  --      0.2671                 0.3896                 0.7784
 IR Inten    --     24.7883                 7.4605                 2.5172

                     13                     14                     15
                      A                      A                      A
 Frequencies --    501.7779               571.7538               775.8828
 Red. masses --      4.9765                 8.2137                 3.6934
 Frc consts  --      0.7382                 1.5820                 1.3100
 IR Inten    --      0.5352                10.8386                 6.7147

                     16                     17                     18
                      A                      A                      A
 Frequencies --    778.6113               817.6326               885.0676
 Red. masses --      1.2517                 2.8060                 3.5658
 Frc consts  --      0.4471                 1.1052                 1.6457
 IR Inten    --      3.8652                11.4363                27.6664

                     19                     20                     21
                      A                      A                      A
 Frequencies --    960.6314              1008.3854              1040.8346
 Red. masses --      2.4307                 3.2419                 1.5321
 Frc consts  --      1.3216                 1.9422                 0.9779
 IR Inten    --     22.8355                 5.0065                11.4503

                     22                     23                     24
                      A                      A                      A
 Frequencies --   1048.8796              1066.8857              1083.2379
 Red. masses --      1.8610                 1.4527                 4.1353
 Frc consts  --      1.2063                 0.9742                 2.8589
 IR Inten    --     86.7811                 0.5107                92.9953

                     25                     26                     27
                      A                      A                      A
 Frequencies --   1160.8130              1167.4045              1170.4168
 Red. masses --      1.8000                 1.1703                 1.4710
 Frc consts  --      1.4291                 0.9397                 1.1873
 IR Inten    --      5.5818                11.5388                 2.4642

                     28                     29                     30
                      A                      A                      A
 Frequencies --   1181.6976              1276.1175              1294.0659
 Red. masses --      3.1728                 1.4599                 1.3695
 Frc consts  --      2.6104                 1.4008                 1.3512
 IR Inten    --     10.5199                 6.4614                 0.0513

                     31                     32                     33
                      A                      A                      A
 Frequencies --   1311.5794              1355.9288              1395.2442
 Red. masses --      1.1972                 1.2165                 1.2769
 Frc consts  --      1.2134                 1.3177                 1.4646
 IR Inten    --     15.9558                36.7913                14.3323

                     34                     35                     36
                      A                      A                      A
 Frequencies --   1409.7425              1412.0629              1460.2416
 Red. masses --      1.2576                 1.2401                 1.8718
 Frc consts  --      1.4725                 1.4568                 2.3516
 IR Inten    --      8.7092                39.4840                13.3724

                     37                     38                     39
                      A                      A                      A
 Frequencies --   1470.1689              1485.4111              1499.7538
 Red. masses --      1.0883                 1.1019                 1.2170
 Frc consts  --      1.3859                 1.4324                 1.6128
 IR Inten    --      2.5432                 6.6782                 3.5756

                     40                     41                     42
                      A                      A                      A
 Frequencies --   1509.3011              2363.0327              3006.8539
 Red. masses --      1.0888                11.8801                 1.0669
 Frc consts  --      1.4614                39.0849                 5.6832
 IR Inten    --      0.5835                 8.6320                27.5768

                     43                     44                     45
                      A                      A                      A
 Frequencies --   3012.4197              3037.2968              3055.9000
 Red. masses --      1.0652                 1.0354                 1.0935
 Frc consts  --      5.6952                 5.6276                 6.0164
 IR Inten    --     34.1445                20.4352                10.4970

                     46                     47                     48
                      A                      A                      A
 Frequencies --   3095.7312              3099.4881              3103.3159
 Red. masses --      1.0985                 1.0890                 1.1003
 Frc consts  --      6.2024                 6.1641                 6.2433
 IR Inten    --     28.1700                 3.4569                14.6280

                     49                     50                     51
                      A                      A                      A
 Frequencies --   3106.2208              3126.1365              3818.0792
 Red. masses --      1.0867                 1.0996                 1.0662
 Frc consts  --      6.1775                 6.3316                 9.1578
 IR Inten    --     24.8335                34.3428                23.9588

 - Thermochemistry -
 -------------------
 Temperature   298.150 Kelvin.  Pressure   1.00000 Atm.
 Atom     1 has atomic number  6 and mass  12.00000

 Molecular mass:   126.06808 amu.
 Principal axes and moments of inertia in atomic units:
                           1         2         3
     Eigenvalues --   223.013263922.032013990.84314
           X            0.99994  -0.00866   0.00714
           Y            0.00768   0.99180   0.12753
           Z           -0.00819  -0.12747   0.99181
 This molecule is an asymmetric top.
 Rotational symmetry number  1.
 Rotational temperatures (Kelvin)      0.38838     0.02208     0.02170
 Rotational constants (GHZ):           8.09253     0.46015     0.45222
 Zero-point vibrational energy     410976.7 (Joules/Mol)
                                   98.22579 (Kcal/Mol)
 Warning -- explicit consideration of  14 degrees of freedom as
           vibrations may cause significant error
 Vibrational temperatures:     28.47    89.08   109.25   189.99   208.44
          (Kelvin)            296.03   394.46   431.02   475.33   517.94
                              577.47   690.86   721.95   822.63  1116.32
                             1120.25  1176.39  1273.41  1382.13  1450.84
                             1497.53  1509.10  1535.01  1558.54  1670.15
                             1679.63  1683.97  1700.20  1836.05  1861.87
                             1887.07  1950.88  2007.44  2028.30  2031.64
                             2100.96  2115.24  2137.17  2157.81  2171.54
                             3399.87  4326.19  4334.19  4369.99  4396.75
                             4454.06  4459.47  4464.97  4469.15  4497.81
                             5493.36

 Zero-point correction=                           0.156533 (Hartree/Particle)
 Thermal correction to Energy=                    0.166954
 Thermal correction to Enthalpy=                  0.167898
 Thermal correction to Gibbs Free Energy=         0.119096
 Sum of electronic and zero-point Energies=           -422.975488
 Sum of electronic and thermal Energies=              -422.965066
 Sum of electronic and thermal Enthalpies=            -422.964122
 Sum of electronic and thermal Free Energies=         -423.012925

                     E (Thermal)             CV                S
                      KCal/Mol        Cal/Mol-Kelvin    Cal/Mol-Kelvin
 Total                  104.765             35.977            102.713
 Electronic               0.000              0.000              0.000
 Translational            0.889              2.981             40.409
 Rotational               0.889              2.981             29.636
 Vibrational            102.988             30.015             32.669
 Vibration     1          0.593              1.986              6.656
 Vibration     2          0.597              1.972              4.395
 Vibration     3          0.599              1.965              3.993
 Vibration     4          0.612              1.921              2.916
 Vibration     5          0.616              1.908              2.739
 Vibration     6          0.640              1.832              2.081
 Vibration     7          0.676              1.721              1.570
 Vibration     8          0.692              1.674              1.419
 Vibration     9          0.713              1.615              1.258
 Vibration    10          0.734              1.555              1.122
 Vibration    11          0.767              1.467              0.958
 Vibration    12          0.837              1.294              0.710
 Vibration    13          0.857              1.246              0.654
 Vibration    14          0.928              1.092              0.501

 Optimization completed.
    -- Stationary point found.
 Normal termination of Gaussian 09 at Tue Jan 28 12:42:39 2020.
