 Gaussian 09, Revision D.01,
 Gaussian 09:  ES64L-G09RevD.01 24-Apr-2013

 -----------------------------
 # b3lyp 6-31G(2df,p) opt Freq
 -----------------------------

 -----
 titel
 -----
 Symbolic Z-matrix:
 Charge =  0 Multiplicity = 1

 SCF Done:  E(RB3LYP) =  -423.146207847     A.U. after   12 cycles
 Optimization completed.
    -- Stationary point found.
 Normal termination of Gaussian 09 at Mon Jan 27 18:11:22 2020.

 ----------------------------------------------------------------------
 #N Geom=AllCheck Guess=TCheck SCRF=Check GenChk RB3LYP/6-31G(2df,p) Fr
 eq
 ----------------------------------------------------------------------

 Structure from the checkpoint file:  "/scratch/puck/g09_ae50a440-158d-4165-83b2-32af5006ffcc/Gau-89301.chk"
 -----
 titel
 -----
 Charge =  0 Multiplicity = 1

                         Standard orientation:
 ---------------------------------------------------------------------
 Center     Atomic      Atomic             Coordinates (Angstroms)
 Number     Number       Type             X           Y           Z
 ---------------------------------------------------------------------
      1          6           0        2.133434   -0.778527    0.187433
      2          6           0        0.684603   -0.512011   -0.124775
      3          6           0        0.049166   -0.625672   -1.521792
      4          6           0       -1.123287    0.113303   -0.844542
      5          8           0       -1.622650   -0.873400    0.071174
      6          6           0       -0.455002   -0.936504    0.904494
      7          6           0       -0.426650    0.480384    1.531109
      8          6           0       -0.085743    0.865880    0.086507
      9          8           0        0.318714    2.109633   -0.368833
     10          1           0        2.384121   -1.833136    0.023312
     11          1           0        2.791930   -0.182222   -0.454371
     12          1           0        2.380803   -0.544962    1.229573
     13          1           0        0.583439    0.008319   -2.234454
     14          1           0       -0.166998   -1.607363   -1.951017
     15          1           0       -1.928330    0.616806   -1.376597
     16          1           0       -0.426004   -1.852828    1.490986
     17          1           0       -1.350851    0.834921    1.993446
     18          1           0        0.428181    0.632697    2.197521
     19          1           0        1.076085    2.396783    0.152267
 ---------------------------------------------------------------------

 SCF Done:  E(RB3LYP) =  -423.146207847     A.U. after    1 cycles

 The electronic state is 1-A.
 Alpha  occ. eigenvalues --  -19.15297 -19.13337 -10.23846 -10.23366 -10.22918
 Alpha  occ. eigenvalues --  -10.19331 -10.18415 -10.18024 -10.17589  -1.05588
 Alpha  occ. eigenvalues --   -1.03101  -0.84387  -0.76356  -0.72863  -0.65688
 Alpha  occ. eigenvalues --   -0.61054  -0.56756  -0.55410  -0.50404  -0.47064
 Alpha  occ. eigenvalues --   -0.46674  -0.45399  -0.42287  -0.40442  -0.39786
 Alpha  occ. eigenvalues --   -0.38628  -0.36960  -0.35874  -0.34435  -0.32791
 Alpha  occ. eigenvalues --   -0.32588  -0.28072  -0.24566  -0.23577
 Alpha virt. eigenvalues --    0.06415   0.09626   0.10980   0.12281   0.12907
 Alpha virt. eigenvalues --    0.14140   0.14703   0.15418   0.16115   0.17123
 Alpha virt. eigenvalues --    0.18381   0.19510   0.19902   0.20046   0.21564

 Mulliken charges:
               1
     1  C   -0.521333
     2  C    0.249346
     3  C   -0.298033
     4  C    0.045390
     5  O   -0.268658
     6  C    0.037339
     7  C   -0.322523
     8  C    0.352010
     9  O   -0.481786
    10  H    0.126962
    11  H    0.120002
    12  H    0.114532
    13  H    0.107186
    14  H    0.095413
    15  H    0.082342
    16  H    0.079716
    17  H    0.104499
    18  H    0.092541
    19  H    0.285057
 Sum of Mulliken charges =   0.00000

 Dipole moment (field-independent basis, Debye):
    X=              2.2777    Y=              0.3073    Z=              0.9055  Tot=              2.4703
 Quadrupole moment (field-independent basis, Debye-Ang):
   XX=            -53.9204   YY=            -53.8165   ZZ=            -51.6452
   XY=              0.1322   XZ=              1.4912   YZ=              1.5516

  Exact polarizability:  74.960  -1.374  71.572   0.748   1.082  76.225
 Approx polarizability: 109.416   0.998 109.262   1.640  -1.224 110.984

                      1                      2                      3
                      A                      A                      A
 Frequencies --    173.5526               195.4087               253.4140
 Red. masses --      2.1798                 1.1751                 2.0909
 Frc consts  --      0.0387                 0.0264                 0.0791
 IR Inten    --      1.1328                 0.7251                 9.9569

                      4                      5                      6
                      A                      A                      A
 Frequencies --    286.1924               329.1977               343.9428
 Red. masses --      1.8527                 1.6964                 3.5633
 Frc consts  --      0.0894                 0.1083                 0.2484
 IR Inten    --     12.8890                83.3749                 3.3744

                      7                      8                      9
                      A                      A                      A
 Frequencies --    446.2158               485.6944               531.6359
 Red. masses --      1.8864                 2.5236                 3.7157
 Frc consts  --      0.2213                 0.3508                 0.6187
 IR Inten    --      1.6985                 2.8934                 4.9193

                     10                     11                     12
                      A                      A                      A
 Frequencies --    585.4152               630.9307               667.2575
 Red. masses --      4.5990                 3.5184                 3.5079
 Frc consts  --      0.9286                 0.8252                 0.9202
 IR Inten    --      0.7476                 1.8167                 0.3572

                     13                     14                     15
                      A                      A                      A
 Frequencies --    724.5411               819.0546               865.6745
 Red. masses --      3.8446                 3.1147                 3.0174
 Frc consts  --      1.1891                 1.2311                 1.3323
 IR Inten    --      3.2328                 2.7976                 0.4617

                     16                     17                     18
                      A                      A                      A
 Frequencies --    893.3752               923.1743               932.8419
 Red. masses --      2.0911                 2.2190                 2.3570
 Frc consts  --      0.9833                 1.1142                 1.2084
 IR Inten    --     11.4925                15.5339                17.1496

                     19                     20                     21
                      A                      A                      A
 Frequencies --    944.8397               967.2779               995.6557
 Red. masses --      2.2953                 2.1857                 1.8029
 Frc consts  --      1.2073                 1.2049                 1.0530
 IR Inten    --      7.3685                24.6637                14.4701

                     22                     23                     24
                      A                      A                      A
 Frequencies --   1039.8781              1051.2735              1094.3903
 Red. masses --      1.8105                 2.1740                 1.5568
 Frc consts  --      1.1535                 1.4156                 1.0986
 IR Inten    --      1.6697                18.9097                50.1275

                     25                     26                     27
                      A                      A                      A
 Frequencies --   1115.5456              1137.9776              1167.1891
 Red. masses --      1.5910                 1.6700                 1.8245
 Frc consts  --      1.1665                 1.2742                 1.4645
 IR Inten    --      1.4608                 5.4945                16.5199

                     28                     29                     30
                      A                      A                      A
 Frequencies --   1192.8204              1208.0191              1221.2823
 Red. masses --      1.6461                 2.0054                 1.6378
 Frc consts  --      1.3800                 1.7242                 1.4392
 IR Inten    --      3.4100                 1.8456                16.9095

                     31                     32                     33
                      A                      A                      A
 Frequencies --   1244.3254              1259.3645              1291.2500
 Red. masses --      1.5822                 1.6327                 2.3878
 Frc consts  --      1.4434                 1.5256                 2.3457
 IR Inten    --      7.2188                14.0049               130.1971

                     34                     35                     36
                      A                      A                      A
 Frequencies --   1311.2281              1352.1770              1375.7576
 Red. masses --      2.7036                 1.9353                 1.9555
 Frc consts  --      2.7387                 2.0849                 2.1807
 IR Inten    --     40.5854                14.1025                 2.5478

                     37                     38                     39
                      A                      A                      A
 Frequencies --   1410.0408              1476.1439              1484.4994
 Red. masses --      1.3227                 1.1455                 1.1579
 Frc consts  --      1.5495                 1.4707                 1.5035
 IR Inten    --      0.8614                 2.7086                 0.7836

                     40                     41                     42
                      A                      A                      A
 Frequencies --   1491.6579              1496.5220              3019.1662
 Red. masses --      1.0715                 1.0513                 1.0353
 Frc consts  --      1.4046                 1.3872                 5.5601
 IR Inten    --      6.7523                 5.8048                31.2239

                     43                     44                     45
                      A                      A                      A
 Frequencies --   3054.4671              3058.7525              3081.2596
 Red. masses --      1.0570                 1.0559                 1.0998
 Frc consts  --      5.8101                 5.8206                 6.1519
 IR Inten    --     29.1326                24.3716                23.0820

                     46                     47                     48
                      A                      A                      A
 Frequencies --   3084.5954              3118.2835              3121.9685
 Red. masses --      1.1006                 1.1083                 1.1091
 Frc consts  --      6.1698                 6.3497                 6.3692
 IR Inten    --     23.9192                24.5655                22.7491

                     49                     50                     51
                      A                      A                      A
 Frequencies --   3139.2331              3141.8655              3805.1073
 Red. masses --      1.0903                 1.0937                 1.0659
 Frc consts  --      6.3304                 6.3610                 9.0931
 IR Inten    --     53.3246                17.8579                22.3959

 - Thermochemistry -
 -------------------
 Temperature   298.150 Kelvin.  Pressure   1.00000 Atm.
 Atom     1 has atomic number  6 and mass  12.00000

 Molecular mass:   126.06808 amu.
 Principal axes and moments of inertia in atomic units:
                           1         2         3
     Eigenvalues --   847.40688 902.620581030.56130
           X            0.94779  -0.31834   0.01882
           Y            0.31681   0.94670   0.05823
           Z           -0.03635  -0.04923   0.99813
 This molecule is an asymmetric top.
 Rotational symmetry number  1.
 Warning -- assumption of classical behavior for rotation
           may cause significant error
 Rotational temperatures (Kelvin)      0.10221     0.09596     0.08405
 Rotational constants (GHZ):           2.12972     1.99945     1.75122
 Zero-point vibrational energy     418940.2 (Joules/Mol)
                                  100.12911 (Kcal/Mol)
 Warning -- explicit consideration of  10 degrees of freedom as
           vibrations may cause significant error
 Vibrational temperatures:    249.70   281.15   364.61   411.77   473.64
          (Kelvin)            494.86   642.00   698.81   764.90   842.28
                              907.77   960.03  1042.45  1178.44  1245.51
                             1285.37  1328.24  1342.15  1359.41  1391.70
                             1432.52  1496.15  1512.55  1574.58  1605.02
                             1637.29  1679.32  1716.20  1738.07  1757.15
                             1790.30  1811.94  1857.82  1886.56  1945.48
                             1979.41  2028.73  2123.84  2135.86  2146.16
                             2153.16  4343.90  4394.69  4400.86  4433.24
                             4438.04  4486.51  4491.81  4516.65  4520.44
                             5474.69

 Zero-point correction=                           0.159566 (Hartree/Particle)
 Thermal correction to Energy=                    0.167194
 Thermal correction to Enthalpy=                  0.168138
 Thermal correction to Gibbs Free Energy=         0.128142
 Sum of electronic and zero-point Energies=           -422.986642
 Sum of electronic and thermal Energies=              -422.979014
 Sum of electronic and thermal Enthalpies=            -422.978070
 Sum of electronic and thermal Free Energies=         -423.018066

                     E (Thermal)             CV                S
                      KCal/Mol        Cal/Mol-Kelvin    Cal/Mol-Kelvin
 Total                  104.916             31.310             84.179
 Electronic               0.000              0.000              0.000
 Translational            0.889              2.981             40.409
 Rotational               0.889              2.981             28.157
 Vibrational            103.138             25.348             15.613
 Vibration     1          0.627              1.875              2.397
 Vibration     2          0.636              1.846              2.176
 Vibration     3          0.665              1.757              1.707
 Vibration     4          0.684              1.699              1.496
 Vibration     5          0.712              1.617              1.264
 Vibration     6          0.723              1.588              1.194
 Vibration     7          0.805              1.369              0.807
 Vibration     8          0.842              1.282              0.695
 Vibration     9          0.887              1.180              0.584
 Vibration    10          0.942              1.063              0.475

 Optimization completed.
    -- Stationary point found.
 Normal termination of Gaussian 09 at Mon Jan 27 19:00:09 2020.
