 Gaussian 09, Revision D.01,
 Gaussian 09:  ES64L-G09RevD.01 24-Apr-2013

 -----------------------------
 # b3lyp 6-31G(2df,p) opt Freq
 -----------------------------

 -----
 titel
 -----
 Symbolic Z-matrix:
 Charge =  0 Multiplicity = 1

 SCF Done:  E(RB3LYP) =  -423.114486267     A.U. after   13 cycles
 Optimization completed.
    -- Stationary point found.
 Normal termination of Gaussian 09 at Mon Jan 27 22:52:16 2020.

 ----------------------------------------------------------------------
 #N Geom=AllCheck Guess=TCheck SCRF=Check GenChk RB3LYP/6-31G(2df,p) Fr
 eq
 ----------------------------------------------------------------------

 Structure from the checkpoint file:  "/scratch/puck/g09_cdc99458-9859-480b-b314-43220a102e9a/Gau-101184.chk"
 -----
 titel
 -----
 Charge =  0 Multiplicity = 1

                         Standard orientation:
 ---------------------------------------------------------------------
 Center     Atomic      Atomic             Coordinates (Angstroms)
 Number     Number       Type             X           Y           Z
 ---------------------------------------------------------------------
      1          8           0       -3.239518   -0.807933    0.105104
      2          6           0       -2.041678   -0.172095    0.448304
      3          6           0       -1.444458    0.817592   -0.506171
      4          6           0       -0.233382    1.508887    0.124778
      5          6           0        0.440540    0.108569    0.359566
      6          6           0        1.715964   -0.085697   -0.411869
      7          6           0        2.755682   -1.030772    0.014646
      8          8           0        2.918468    0.375761    0.209156
      9          6           0       -0.784833   -0.564647   -0.276396
     10          1           0       -3.272143   -0.910556   -0.851996
     11          1           0       -2.028226    0.011459    1.521123
     12          1           0       -2.014835    1.181345   -1.354470
     13          1           0        0.336465    2.116078   -0.582867
     14          1           0       -0.431686    2.110749    1.017428
     15          1           0        0.619311   -0.151513    1.409315
     16          1           0        1.651208    0.147593   -1.477468
     17          1           0        2.609484   -1.613212    0.923726
     18          1           0        3.417687   -1.481867   -0.723413
     19          1           0       -0.765882   -1.443728   -0.912614
 ---------------------------------------------------------------------

 SCF Done:  E(RB3LYP) =  -423.114486267     A.U. after    1 cycles

 The electronic state is 1-A.
 Alpha  occ. eigenvalues --  -19.14910 -19.14656 -10.23956 -10.23794 -10.23312
 Alpha  occ. eigenvalues --  -10.19859 -10.19469 -10.19407 -10.19027  -1.06907
 Alpha  occ. eigenvalues --   -1.03275  -0.89199  -0.74503  -0.68613  -0.65382
 Alpha  occ. eigenvalues --   -0.61349  -0.60350  -0.54857  -0.52062  -0.50514
 Alpha  occ. eigenvalues --   -0.47735  -0.46241  -0.44693  -0.40640  -0.40023
 Alpha  occ. eigenvalues --   -0.38005  -0.36540  -0.35900  -0.35437  -0.33070
 Alpha  occ. eigenvalues --   -0.29806  -0.26948  -0.26052  -0.23913
 Alpha virt. eigenvalues --    0.07003   0.09225   0.09801   0.10564   0.11214
 Alpha virt. eigenvalues --    0.11739   0.12271   0.13180   0.14681   0.16377
 Alpha virt. eigenvalues --    0.16804   0.18273   0.18764   0.19910   0.23082

 Mulliken charges:
               1
     1  O   -0.443871
     2  C    0.148727
     3  C   -0.108342
     4  C   -0.264860
     5  C   -0.024015
     6  C    0.091688
     7  C   -0.190062
     8  O   -0.242613
     9  C   -0.125543
    10  H    0.283566
    11  H    0.101104
    12  H    0.082899
    13  H    0.113764
    14  H    0.102543
    15  H    0.074360
    16  H    0.089656
    17  H    0.113892
    18  H    0.114380
    19  H    0.082729
 Sum of Mulliken charges =   0.00000

 Dipole moment (field-independent basis, Debye):
    X=             -0.3123    Y=             -0.8272    Z=             -1.6664  Tot=              1.8864
 Quadrupole moment (field-independent basis, Debye-Ang):
   XX=            -62.3856   YY=            -52.6573   ZZ=            -49.7602
   XY=             -5.5487   XZ=              2.8106   YZ=              0.9502

  Exact polarizability:  90.332  -4.258  71.577   1.440  -0.500  65.969
 Approx polarizability: 115.276  -2.787 109.886   3.070  -1.082 102.731

                      1                      2                      3
                      A                      A                      A
 Frequencies --     66.5363               106.6274               153.7666
 Red. masses --      4.2210                 2.9493                 1.4374
 Frc consts  --      0.0110                 0.0198                 0.0200
 IR Inten    --      2.3924                 5.5180                66.7869

                      4                      5                      6
                      A                      A                      A
 Frequencies --    159.2355               262.9823               311.3421
 Red. masses --      2.0843                 2.7103                 6.9173
 Frc consts  --      0.0311                 0.1104                 0.3951
 IR Inten    --     20.8619                 6.9432                 1.9881

                      7                      8                      9
                      A                      A                      A
 Frequencies --    332.1355               362.4059               477.8340
 Red. masses --      4.2418                 2.5458                 2.8568
 Frc consts  --      0.2757                 0.1970                 0.3843
 IR Inten    --      2.6787                 3.2904                 2.5890

                     10                     11                     12
                      A                      A                      A
 Frequencies --    506.9092               739.2618               792.9427
 Red. masses --      3.5260                 2.8594                 1.8812
 Frc consts  --      0.5338                 0.9207                 0.6969
 IR Inten    --      8.8057                 2.9501                 5.3193

                     13                     14                     15
                      A                      A                      A
 Frequencies --    806.7734               861.7723               876.7525
 Red. masses --      2.4693                 3.6613                 2.5054
 Frc consts  --      0.9469                 1.6020                 1.1347
 IR Inten    --      1.0336                39.9529                 7.8236

                     16                     17                     18
                      A                      A                      A
 Frequencies --    905.3937               925.6196               955.1614
 Red. masses --      1.8357                 4.1295                 1.7089
 Frc consts  --      0.8866                 2.0846                 0.9186
 IR Inten    --      0.5713                46.3697                 5.2242

                     19                     20                     21
                      A                      A                      A
 Frequencies --    981.4546               996.8263              1017.1335
 Red. masses --      1.7409                 1.2267                 2.5016
 Frc consts  --      0.9880                 0.7182                 1.5248
 IR Inten    --      7.3843                 3.6185                 4.9294

                     22                     23                     24
                      A                      A                      A
 Frequencies --   1043.5028              1094.2819              1101.2932
 Red. masses --      2.0228                 1.4630                 1.3820
 Frc consts  --      1.2977                 1.0322                 0.9876
 IR Inten    --      1.8656                 2.9617                18.9707

                     25                     26                     27
                      A                      A                      A
 Frequencies --   1115.5487              1142.5153              1155.5180
 Red. masses --      1.8766                 1.7728                 1.5189
 Frc consts  --      1.3760                 1.3635                 1.1949
 IR Inten    --     53.9723                17.0454                 8.7635

                     28                     29                     30
                      A                      A                      A
 Frequencies --   1156.4763              1174.8931              1192.2653
 Red. masses --      1.6317                 1.3599                 1.6732
 Frc consts  --      1.2858                 1.1060                 1.4013
 IR Inten    --      6.9895                 3.6131                16.1452

                     31                     32                     33
                      A                      A                      A
 Frequencies --   1229.6758              1246.8417              1271.6420
 Red. masses --      1.4238                 1.5138                 1.5620
 Frc consts  --      1.2685                 1.3866                 1.4882
 IR Inten    --      5.6224                 7.1961                 5.2067

                     34                     35                     36
                      A                      A                      A
 Frequencies --   1285.7309              1292.4690              1313.9187
 Red. masses --      1.4177                 1.6685                 1.5878
 Frc consts  --      1.3808                 1.6422                 1.6150
 IR Inten    --      1.1775                 5.0523                 9.2642

                     37                     38                     39
                      A                      A                      A
 Frequencies --   1355.1994              1450.6604              1453.9655
 Red. masses --      1.6034                 1.7903                 1.7718
 Frc consts  --      1.7350                 2.2198                 2.2068
 IR Inten    --      2.3902               108.9895                 0.7500

                     40                     41                     42
                      A                      A                      A
 Frequencies --   1491.0194              1530.5009              3036.5183
 Red. masses --      1.1123                 1.3826                 1.0821
 Frc consts  --      1.4569                 1.9082                 5.8788
 IR Inten    --      4.1554                 4.1177                20.8308

                     43                     44                     45
                      A                      A                      A
 Frequencies --   3049.5910              3079.1170              3083.5934
 Red. masses --      1.0626                 1.0614                 1.0763
 Frc consts  --      5.8227                 5.9289                 6.0296
 IR Inten    --     43.2395                36.1303                15.9190

                     46                     47                     48
                      A                      A                      A
 Frequencies --   3104.2232              3125.3068              3156.5187
 Red. masses --      1.1050                 1.0898                 1.0879
 Frc consts  --      6.2737                 6.2715                 6.3866
 IR Inten    --     22.7781                23.4722                16.7440

                     49                     50                     51
                      A                      A                      A
 Frequencies --   3167.0047              3167.9573              3811.3716
 Red. masses --      1.1188                 1.0963                 1.0658
 Frc consts  --      6.6113                 6.4825                 9.1218
 IR Inten    --     25.8691                24.1290                19.0454

 - Thermochemistry -
 -------------------
 Temperature   298.150 Kelvin.  Pressure   1.00000 Atm.
 Atom     1 has atomic number  8 and mass  15.99491

 Molecular mass:   126.06808 amu.
 Principal axes and moments of inertia in atomic units:
                           1         2         3
     Eigenvalues --   382.394282076.811172289.45480
           X            0.99987  -0.01596   0.00148
           Y            0.01594   0.99983   0.00938
           Z           -0.00163  -0.00936   0.99995
 This molecule is an asymmetric top.
 Rotational symmetry number  1.
 Rotational temperatures (Kelvin)      0.22650     0.04171     0.03783
 Rotational constants (GHZ):           4.71958     0.86900     0.78828
 Zero-point vibrational energy     415570.6 (Joules/Mol)
                                   99.32377 (Kcal/Mol)
 Warning -- explicit consideration of  10 degrees of freedom as
           vibrations may cause significant error
 Vibrational temperatures:     95.73   153.41   221.24   229.10   378.37
          (Kelvin)            447.95   477.87   521.42   687.50   729.33
                             1063.63  1140.87  1160.77  1239.90  1261.45
                             1302.66  1331.76  1374.26  1412.09  1434.21
                             1463.43  1501.37  1574.43  1584.51  1605.02
                             1643.82  1662.53  1663.91  1690.41  1715.40
                             1769.23  1793.92  1829.61  1849.88  1859.57
                             1890.43  1949.83  2087.17  2091.93  2145.24
                             2202.05  4368.87  4387.68  4430.16  4436.60
                             4466.28  4496.61  4541.52  4556.61  4557.98
                             5483.71

 Zero-point correction=                           0.158282 (Hartree/Particle)
 Thermal correction to Energy=                    0.166907
 Thermal correction to Enthalpy=                  0.167851
 Thermal correction to Gibbs Free Energy=         0.124476
 Sum of electronic and zero-point Energies=           -422.956204
 Sum of electronic and thermal Energies=              -422.947580
 Sum of electronic and thermal Enthalpies=            -422.946636
 Sum of electronic and thermal Free Energies=         -422.990010

                     E (Thermal)             CV                S
                      KCal/Mol        Cal/Mol-Kelvin    Cal/Mol-Kelvin
 Total                  104.735             32.154             91.290
 Electronic               0.000              0.000              0.000
 Translational            0.889              2.981             40.409
 Rotational               0.889              2.981             28.988
 Vibrational            102.958             26.193             21.894
 Vibration     1          0.598              1.970              4.253
 Vibration     2          0.606              1.944              3.329
 Vibration     3          0.619              1.898              2.625
 Vibration     4          0.621              1.892              2.559
 Vibration     5          0.670              1.741              1.642
 Vibration     6          0.700              1.652              1.355
 Vibration     7          0.714              1.611              1.250
 Vibration     8          0.736              1.550              1.112
 Vibration     9          0.834              1.299              0.716
 Vibration    10          0.862              1.235              0.641

 Optimization completed.
    -- Stationary point found.
 Normal termination of Gaussian 09 at Mon Jan 27 23:33:11 2020.
