 Gaussian 09, Revision D.01,
 Gaussian 09:  ES64L-G09RevD.01 24-Apr-2013

 -----------------------------
 # b3lyp 6-31G(2df,p) opt Freq
 -----------------------------

 -----
 titel
 -----
 Symbolic Z-matrix:
 Charge =  0 Multiplicity = 1

 SCF Done:  E(RB3LYP) =  -423.118170702     A.U. after   13 cycles
 Optimization completed.
    -- Stationary point found.
 Normal termination of Gaussian 09 at Tue Jan 28 02:55:20 2020.

 ----------------------------------------------------------------------
 #N Geom=AllCheck Guess=TCheck SCRF=Check GenChk RB3LYP/6-31G(2df,p) Fr
 eq
 ----------------------------------------------------------------------

 Structure from the checkpoint file:  "/scratch/puck/g09_3fa4f8ea-faf8-4d06-9cc8-41716398ed0e/Gau-11502.chk"
 -----
 titel
 -----
 Charge =  0 Multiplicity = 1

                         Standard orientation:
 ---------------------------------------------------------------------
 Center     Atomic      Atomic             Coordinates (Angstroms)
 Number     Number       Type             X           Y           Z
 ---------------------------------------------------------------------
      1          8           0       -2.954496   -0.216950   -0.146329
      2          6           0       -1.619611   -0.250583    0.306216
      3          6           0       -0.976567    1.130024    0.679540
      4          6           0        0.128358    0.907803   -0.393561
      5          6           0       -0.520311   -0.451637   -0.790376
      6          6           0        0.795187   -1.178865   -0.433428
      7          6           0        1.217741   -0.919338    1.001891
      8          6           0        1.429717    0.147808   -0.028418
      9          8           0        2.689063    0.619805   -0.356523
     10          1           0       -3.010468    0.416163   -0.870298
     11          1           0       -1.609452   -0.997046    1.103968
     12          1           0       -1.652427    1.955951    0.436442
     13          1           0       -0.646798    1.254638    1.715035
     14          1           0        0.294948    1.689322   -1.135008
     15          1           0       -0.893122   -0.635586   -1.799404
     16          1           0        1.215274   -2.010731   -0.985546
     17          1           0        0.505570   -0.829730    1.816927
     18          1           0        2.132950   -1.437077    1.273138
     19          1           0        3.059915    1.059990    0.416377
 ---------------------------------------------------------------------

 SCF Done:  E(RB3LYP) =  -423.118170702     A.U. after    1 cycles

 The electronic state is 1-A.
 Alpha  occ. eigenvalues --  -19.14721 -19.13491 -10.23964 -10.22727 -10.19110
 Alpha  occ. eigenvalues --  -10.18754 -10.18421 -10.18363 -10.17875  -1.03315
 Alpha  occ. eigenvalues --   -1.01744  -0.89519  -0.79024  -0.67929  -0.66396
 Alpha  occ. eigenvalues --   -0.59589  -0.58149  -0.54057  -0.52320  -0.49099
 Alpha  occ. eigenvalues --   -0.47848  -0.43573  -0.41817  -0.41163  -0.40538
 Alpha  occ. eigenvalues --   -0.38577  -0.37114  -0.33941  -0.33285  -0.31794
 Alpha  occ. eigenvalues --   -0.28536  -0.26348  -0.25390  -0.23257
 Alpha virt. eigenvalues --    0.07268   0.07846   0.08655   0.09462   0.10856
 Alpha virt. eigenvalues --    0.12939   0.14336   0.15421   0.17175   0.17485
 Alpha virt. eigenvalues --    0.18030   0.18694   0.20244   0.21189   0.25089

 Mulliken charges:
               1
     1  O   -0.440265
     2  C    0.148568
     3  C   -0.300629
     4  C   -0.098494
     5  C   -0.064566
     6  C   -0.121260
     7  C   -0.361313
     8  C    0.395560
     9  O   -0.463914
    10  H    0.275780
    11  H    0.089525
    12  H    0.095301
    13  H    0.099236
    14  H    0.075224
    15  H    0.066946
    16  H    0.093560
    17  H    0.112700
    18  H    0.113792
    19  H    0.284250
 Sum of Mulliken charges =   0.00000

 Dipole moment (field-independent basis, Debye):
    X=              0.8624    Y=              1.0788    Z=              0.5040  Tot=              1.4703
 Quadrupole moment (field-independent basis, Debye-Ang):
   XX=            -58.0582   YY=            -51.6588   ZZ=            -50.9235
   XY=             -2.6608   XZ=              7.0619   YZ=              0.2478

  Exact polarizability:  83.997  -2.090  70.653   3.387   0.021  68.312
 Approx polarizability: 113.150   1.637 107.294   4.062  -0.080 106.622

                      1                      2                      3
                      A                      A                      A
 Frequencies --    113.5886               191.5807               245.0008
 Red. masses --      3.8585                 4.1466                 1.4649
 Frc consts  --      0.0293                 0.0897                 0.0518
 IR Inten    --      2.3505                17.2698                65.6362

                      4                      5                      6
                      A                      A                      A
 Frequencies --    252.5923               301.3635               351.8367
 Red. masses --      1.6168                 1.5027                 2.5392
 Frc consts  --      0.0608                 0.0804                 0.1852
 IR Inten    --     17.1711                38.2556                37.8964

                      7                      8                      9
                      A                      A                      A
 Frequencies --    366.3177               412.5446               473.8632
 Red. masses --      5.5001                 2.7153                 2.0818
 Frc consts  --      0.4348                 0.2723                 0.2754
 IR Inten    --      5.8750                19.8436                 2.7287

                     10                     11                     12
                      A                      A                      A
 Frequencies --    505.9768               621.4481               695.3464
 Red. masses --      2.2240                 3.2703                 3.1011
 Frc consts  --      0.3355                 0.7441                 0.8834
 IR Inten    --      1.3464                 2.7667                 5.6061

                     13                     14                     15
                      A                      A                      A
 Frequencies --    752.4230               808.2777               845.8768
 Red. masses --      3.3556                 2.8809                 2.4778
 Frc consts  --      1.1193                 1.1089                 1.0445
 IR Inten    --      6.1002                 6.1647                 4.4252

                     16                     17                     18
                      A                      A                      A
 Frequencies --    856.1092               899.8015               908.2674
 Red. masses --      1.7432                 1.8645                 2.1846
 Frc consts  --      0.7528                 0.8894                 1.0618
 IR Inten    --      7.4935                18.2256                11.1448

                     19                     20                     21
                      A                      A                      A
 Frequencies --    937.3830               967.5384               989.6327
 Red. masses --      1.8136                 2.0499                 1.7012
 Frc consts  --      0.9389                 1.1306                 0.9816
 IR Inten    --      9.1504                 1.9811                 1.6548

                     22                     23                     24
                      A                      A                      A
 Frequencies --   1001.8871              1034.6703              1053.9200
 Red. masses --      2.0127                 1.5785                 1.8886
 Frc consts  --      1.1903                 0.9957                 1.2360
 IR Inten    --     13.6653                 2.6046                 1.5294

                     25                     26                     27
                      A                      A                      A
 Frequencies --   1077.0204              1107.2620              1124.3897
 Red. masses --      1.5348                 1.3023                 3.4025
 Frc consts  --      1.0489                 0.9407                 2.5345
 IR Inten    --      7.8786                31.4055               100.1137

                     28                     29                     30
                      A                      A                      A
 Frequencies --   1131.0958              1188.6261              1208.1821
 Red. masses --      2.0003                 1.6744                 1.5066
 Frc consts  --      1.5078                 1.3938                 1.2957
 IR Inten    --     24.0527                14.5546                62.3457

                     31                     32                     33
                      A                      A                      A
 Frequencies --   1225.1080              1232.3039              1254.5837
 Red. masses --      1.5293                 1.7490                 1.7144
 Frc consts  --      1.3523                 1.5649                 1.5899
 IR Inten    --     24.8977                 5.1378                 3.1910

                     34                     35                     36
                      A                      A                      A
 Frequencies --   1264.7425              1298.6287              1315.6384
 Red. masses --      1.5081                 1.8437                 1.5105
 Frc consts  --      1.4213                 1.8319                 1.5404
 IR Inten    --      7.8242                34.2081                27.8873

                     37                     38                     39
                      A                      A                      A
 Frequencies --   1326.9558              1404.7688              1439.0289
 Red. masses --      1.7115                 1.9490                 1.2424
 Frc consts  --      1.7756                 2.2661                 1.5158
 IR Inten    --      6.2600                19.7710                71.0675

                     40                     41                     42
                      A                      A                      A
 Frequencies --   1467.3939              1502.3843              3046.6033
 Red. masses --      1.1301                 1.3753                 1.0590
 Frc consts  --      1.4336                 1.8289                 5.7916
 IR Inten    --      8.1357                11.7582                31.7955

                     43                     44                     45
                      A                      A                      A
 Frequencies --   3079.3967              3094.8977              3099.4930
 Red. masses --      1.0890                 1.0882                 1.1030
 Frc consts  --      6.0844                 6.1411                 6.2432
 IR Inten    --     19.4734                31.2187                 8.1339

                     46                     47                     48
                      A                      A                      A
 Frequencies --   3113.0848              3119.0244              3184.2738
 Red. masses --      1.0904                 1.0548                 1.0952
 Frc consts  --      6.2262                 6.0458                 6.5426
 IR Inten    --     38.8539                17.3554                10.9536

                     49                     50                     51
                      A                      A                      A
 Frequencies --   3201.3248              3789.8113              3799.9510
 Red. masses --      1.1127                 1.0662                 1.0659
 Frc consts  --      6.7186                 9.0227                 9.0681
 IR Inten    --     13.7394                19.1073                12.3141

 - Thermochemistry -
 -------------------
 Temperature   298.150 Kelvin.  Pressure   1.00000 Atm.
 Atom     1 has atomic number  8 and mass  15.99491

 Molecular mass:   126.06808 amu.
 Principal axes and moments of inertia in atomic units:
                           1         2         3
     Eigenvalues --   459.370381541.716381655.03590
           X            0.99978  -0.01727   0.01191
           Y            0.01735   0.99983  -0.00630
           Z           -0.01180   0.00651   0.99991
 This molecule is an asymmetric top.
 Rotational symmetry number  1.
 Warning -- assumption of classical behavior for rotation
           may cause significant error
 Rotational temperatures (Kelvin)      0.18855     0.05618     0.05233
 Rotational constants (GHZ):           3.92873     1.17061     1.09045
 Zero-point vibrational energy     416798.2 (Joules/Mol)
                                   99.61716 (Kcal/Mol)
 Warning -- explicit consideration of  10 degrees of freedom as
           vibrations may cause significant error
 Vibrational temperatures:    163.43   275.64   352.50   363.42   433.59
          (Kelvin)            506.21   527.05   593.56   681.78   727.99
                              894.12  1000.45  1082.57  1162.93  1217.03
                             1231.75  1294.61  1306.79  1348.68  1392.07
                             1423.86  1441.49  1488.66  1516.35  1549.59
                             1593.10  1617.74  1627.39  1710.17  1738.30
                             1762.65  1773.01  1805.06  1819.68  1868.43
                             1892.91  1909.19  2021.15  2070.44  2111.25
                             2161.59  4383.38  4430.56  4452.86  4459.47
                             4479.03  4487.57  4581.45  4605.99  5452.69
                             5467.28

 Zero-point correction=                           0.158750 (Hartree/Particle)
 Thermal correction to Energy=                    0.166861
 Thermal correction to Enthalpy=                  0.167805
 Thermal correction to Gibbs Free Energy=         0.126578
 Sum of electronic and zero-point Energies=           -422.959421
 Sum of electronic and thermal Energies=              -422.951310
 Sum of electronic and thermal Enthalpies=            -422.950366
 Sum of electronic and thermal Free Energies=         -422.991593

                     E (Thermal)             CV                S
                      KCal/Mol        Cal/Mol-Kelvin    Cal/Mol-Kelvin
 Total                  104.707             32.661             86.769
 Electronic               0.000              0.000              0.000
 Translational            0.889              2.981             40.409
 Rotational               0.889              2.981             28.551
 Vibrational            102.929             26.700             17.809
 Vibration     1          0.607              1.938              3.207
 Vibration     2          0.634              1.852              2.212
 Vibration     3          0.660              1.771              1.766
 Vibration     4          0.664              1.758              1.712
 Vibration     5          0.693              1.671              1.409
 Vibration     6          0.728              1.571              1.158
 Vibration     7          0.739              1.542              1.095
 Vibration     8          0.776              1.443              0.918
 Vibration     9          0.831              1.308              0.727
 Vibration    10          0.861              1.237              0.643

 Optimization completed.
    -- Stationary point found.
 Normal termination of Gaussian 09 at Tue Jan 28 03:45:11 2020.
