 Gaussian 09, Revision D.01,
 Gaussian 09:  ES64L-G09RevD.01 24-Apr-2013

 -----------------------------
 # b3lyp 6-31G(2df,p) opt Freq
 -----------------------------

 -----
 titel
 -----
 Symbolic Z-matrix:
 Charge =  0 Multiplicity = 1

 SCF Done:  E(RB3LYP) =  -423.187620527     A.U. after   15 cycles
 SCF Done:  E(RB3LYP) =  -423.187620438     A.U. after    7 cycles
 SCF Done:  E(RB3LYP) =  -423.187620460     A.U. after    7 cycles
 SCF Done:  E(RB3LYP) =  -423.187620555     A.U. after    7 cycles
 Optimization completed.
    -- Stationary point found.
 Normal termination of Gaussian 09 at Mon Jan 27 14:33:17 2020.

 ----------------------------------------------------------------------
 #N Geom=AllCheck Guess=TCheck SCRF=Check GenChk RB3LYP/6-31G(2df,p) Fr
 eq
 ----------------------------------------------------------------------

 Structure from the checkpoint file:  "/scratch/puck/g09_755b21f7-7c17-4d60-a5a8-aaef91e993c1/Gau-158102.chk"
 -----
 titel
 -----
 Charge =  0 Multiplicity = 1

                         Standard orientation:
 ---------------------------------------------------------------------
 Center     Atomic      Atomic             Coordinates (Angstroms)
 Number     Number       Type             X           Y           Z
 ---------------------------------------------------------------------
      1          6           0        1.608361   -0.626782   -1.271855
      2          6           0        1.282307    0.161068    0.000011
      3          6           0        1.990430    1.516401   -0.000752
      4          6           0        1.608678   -0.625501    1.272594
      5          8           0       -0.142464    0.546096   -0.000052
      6          6           0       -1.111618   -0.376090    0.000007
      7          8           0       -0.974388   -1.576212    0.000014
      8          6           0       -2.411637    0.269599    0.000040
      9          6           0       -3.514002    0.747710    0.000036
     10          1           0        1.103802   -1.592740   -1.279865
     11          1           0        1.307213   -0.060617   -2.158366
     12          1           0        2.688591   -0.793303   -1.326762
     13          1           0        1.717358    2.095439    0.885566
     14          1           0        3.074491    1.371771   -0.000795
     15          1           0        1.717171    2.094544   -0.887596
     16          1           0        1.104198   -1.591487    1.281672
     17          1           0        2.688932   -0.791878    1.327448
     18          1           0        1.307668   -0.058476    2.158604
     19          1           0       -4.489726    1.169238   -0.000098
 ---------------------------------------------------------------------

 SCF Done:  E(RB3LYP) =  -423.187620555     A.U. after    1 cycles

 The electronic state is 1-A.
 Alpha  occ. eigenvalues --  -19.18397 -19.13250 -10.32828 -10.25892 -10.20358
 Alpha  occ. eigenvalues --  -10.19980 -10.18204 -10.17808 -10.17806  -1.10288
 Alpha  occ. eigenvalues --   -1.02103  -0.82060  -0.76885  -0.69864  -0.69721
 Alpha  occ. eigenvalues --   -0.67004  -0.58196  -0.52744  -0.51030  -0.47414
 Alpha  occ. eigenvalues --   -0.47321  -0.44746  -0.43754  -0.41868  -0.39536
 Alpha  occ. eigenvalues --   -0.38895  -0.37184  -0.36097  -0.35453  -0.33784
 Alpha  occ. eigenvalues --   -0.30382  -0.30169  -0.29521  -0.27099
 Alpha virt. eigenvalues --   -0.03727   0.03513   0.08161   0.10372   0.11361
 Alpha virt. eigenvalues --    0.12226   0.14458   0.14967   0.15863   0.16646
 Alpha virt. eigenvalues --    0.18724   0.19066   0.19166   0.19682   0.21641

 Mulliken charges:
               1
     1  C   -0.418958
     2  C    0.368194
     3  C   -0.404781
     4  C   -0.418951
     5  O   -0.283553
     6  C    0.284137
     7  O   -0.366695
     8  C    0.241345
     9  C   -0.359291
    10  H    0.152931
    11  H    0.120631
    12  H    0.116329
    13  H    0.124710
    14  H    0.118703
    15  H    0.124712
    16  H    0.152880
    17  H    0.116360
    18  H    0.120645
    19  H    0.210651
 Sum of Mulliken charges =   0.00000

 Dipole moment (field-independent basis, Debye):
    X=              0.8773    Y=              1.7587    Z=              0.0001  Tot=              1.9653
 Quadrupole moment (field-independent basis, Debye-Ang):
   XX=            -42.9310   YY=            -57.2782   ZZ=            -52.7302
   XY=             -4.6483   XZ=              0.0012   YZ=             -0.0002

  Exact polarizability: 107.489  -8.833  71.612   0.000   0.001  60.988
 Approx polarizability: 147.165 -19.618 117.904   0.000   0.000  85.634

                      1                      2                      3
                      A                      A                      A
 Frequencies --     65.0283               113.0580               129.7040
 Red. masses --      4.1684                 3.5507                 3.9555
 Frc consts  --      0.0104                 0.0267                 0.0392
 IR Inten    --      2.9099                 0.0609                 2.9371

                      4                      5                      6
                      A                      A                      A
 Frequencies --    198.6709               229.4719               251.2396
 Red. masses --      1.0815                 4.0331                 1.0616
 Frc consts  --      0.0251                 0.1251                 0.0395
 IR Inten    --      0.0699                 4.6975                 0.2171

                      7                      8                      9
                      A                      A                      A
 Frequencies --    258.6964               270.2258               317.4612
 Red. masses --      1.2308                 3.0266                 3.0310
 Frc consts  --      0.0485                 0.1302                 0.1800
 IR Inten    --      0.0061                 0.5935                 6.3253

                     10                     11                     12
                      A                      A                      A
 Frequencies --    353.3790               368.8488               420.7117
 Red. masses --      2.5504                 3.0333                 2.7776
 Frc consts  --      0.1876                 0.2431                 0.2897
 IR Inten    --      0.8441                 0.1514                 2.0204

                     13                     14                     15
                      A                      A                      A
 Frequencies --    463.6950               537.0636               615.3160
 Red. masses --      3.0885                 3.3649                 8.7929
 Frc consts  --      0.3913                 0.5718                 1.9615
 IR Inten    --      2.4096                 6.1494                 3.9647

                     16                     17                     18
                      A                      A                      A
 Frequencies --    651.8957               699.0599               762.2227
 Red. masses --      1.2581                 1.3132                 4.5708
 Frc consts  --      0.3150                 0.3781                 1.5646
 IR Inten    --     37.1149                23.0625                 2.5639

                     19                     20                     21
                      A                      A                      A
 Frequencies --    778.7457               852.9266               925.8182
 Red. masses --      8.4617                 3.9174                 1.8225
 Frc consts  --      3.0234                 1.6791                 0.9204
 IR Inten    --     28.4244                27.4671                 1.1468

                     22                     23                     24
                      A                      A                      A
 Frequencies --    926.5633               943.4905               968.2367
 Red. masses --      1.6422                 4.6432                 1.1992
 Frc consts  --      0.8307                 2.4352                 0.6624
 IR Inten    --      0.0984                 5.8749                 0.1351

                     25                     26                     27
                      A                      A                      A
 Frequencies --   1052.7311              1060.8176              1194.7672
 Red. masses --      1.4171                 1.4701                 2.4428
 Frc consts  --      0.9253                 0.9747                 2.0545
 IR Inten    --      0.5336                 2.1755               379.3423

                     28                     29                     30
                      A                      A                      A
 Frequencies --   1266.8290              1273.3464              1284.5563
 Red. masses --      2.7447                 4.3062                 3.7421
 Frc consts  --      2.5953                 4.1138                 3.6381
 IR Inten    --     15.7282               291.6241               135.9879

                     31                     32                     33
                      A                      A                      A
 Frequencies --   1397.3657              1401.4570              1427.6895
 Red. masses --      1.2665                 1.2762                 1.2320
 Frc consts  --      1.4571                 1.4769                 1.4796
 IR Inten    --     15.3806                19.1419                13.2417

                     34                     35                     36
                      A                      A                      A
 Frequencies --   1467.9583              1488.2202              1489.5407
 Red. masses --      1.0463                 1.0451                 1.0525
 Frc consts  --      1.3284                 1.3638                 1.3759
 IR Inten    --      0.4885                 0.1958                 0.3896

                     37                     38                     39
                      A                      A                      A
 Frequencies --   1494.9388              1502.2907              1525.5367
 Red. masses --      1.0671                 1.0532                 1.0558
 Frc consts  --      1.4051                 1.4004                 1.4476
 IR Inten    --     14.1014                 0.8825                 8.2609

                     40                     41                     42
                      A                      A                      A
 Frequencies --   1778.4721              2233.9324              3043.9193
 Red. masses --     12.2400                 5.9084                 1.0353
 Frc consts  --     22.8099                17.3723                 5.6519
 IR Inten    --    230.8413                60.3624                 7.4775

                     43                     44                     45
                      A                      A                      A
 Frequencies --   3045.1555              3051.8829              3110.3059
 Red. masses --      1.0374                 1.0376                 1.1017
 Frc consts  --      5.6676                 5.6939                 6.2792
 IR Inten    --     20.2520                16.3906                 5.8057

                     46                     47                     48
                      A                      A                      A
 Frequencies --   3112.2567              3123.3581              3125.2512
 Red. masses --      1.1015                 1.1024                 1.1016
 Frc consts  --      6.2863                 6.3363                 6.3391
 IR Inten    --     13.4150                24.6277                37.6103

                     49                     50                     51
                      A                      A                      A
 Frequencies --   3154.7980              3158.0013              3497.3097
 Red. masses --      1.0998                 1.0992                 1.1635
 Frc consts  --      6.4490                 6.4589                 8.3848
 IR Inten    --      0.6520                11.6334                57.5687

 - Thermochemistry -
 -------------------
 Temperature   298.150 Kelvin.  Pressure   1.00000 Atm.
 Atom     1 has atomic number  6 and mass  12.00000

 Molecular mass:   126.06808 amu.
 Principal axes and moments of inertia in atomic units:
                           1         2         3
     Eigenvalues --   593.681951747.890211936.77702
           X            0.99999  -0.00487   0.00000
           Y            0.00487   0.99999   0.00000
           Z            0.00000   0.00000   1.00000
 This molecule is an asymmetric top.
 Rotational symmetry number  1.
 Warning -- assumption of classical behavior for rotation
           may cause significant error
 Rotational temperatures (Kelvin)      0.14589     0.04955     0.04472
 Rotational constants (GHZ):           3.03991     1.03253     0.93183
 Zero-point vibrational energy     405918.2 (Joules/Mol)
                                   97.01677 (Kcal/Mol)
 Warning -- explicit consideration of  15 degrees of freedom as
           vibrations may cause significant error
 Vibrational temperatures:     93.56   162.67   186.61   285.84   330.16
          (Kelvin)            361.48   372.21   388.79   456.76   508.43
                              530.69   605.31   667.15   772.71   885.30
                              937.93  1005.79  1096.67  1120.44  1227.17
                             1332.04  1333.12  1357.47  1393.07  1514.64
                             1526.28  1719.00  1822.68  1832.06  1848.19
                             2010.50  2016.38  2054.12  2112.06  2141.21
                             2143.11  2150.88  2161.46  2194.90  2558.82
                             3214.13  4379.52  4381.29  4390.97  4475.03
                             4477.84  4493.81  4496.53  4539.05  4543.65
                             5031.84

 Zero-point correction=                           0.154606 (Hartree/Particle)
 Thermal correction to Energy=                    0.164955
 Thermal correction to Enthalpy=                  0.165900
 Thermal correction to Gibbs Free Energy=         0.119636
 Sum of electronic and zero-point Energies=           -423.033014
 Sum of electronic and thermal Energies=              -423.022665
 Sum of electronic and thermal Enthalpies=            -423.021721
 Sum of electronic and thermal Free Energies=         -423.067985

                     E (Thermal)             CV                S
                      KCal/Mol        Cal/Mol-Kelvin    Cal/Mol-Kelvin
 Total                  103.511             37.978             97.371
 Electronic               0.000              0.000              0.000
 Translational            0.889              2.981             40.409
 Rotational               0.889              2.981             29.087
 Vibrational            101.734             32.016             27.875
 Vibration     1          0.597              1.971              4.298
 Vibration     2          0.607              1.939              3.216
 Vibration     3          0.612              1.924              2.950
 Vibration     4          0.637              1.842              2.145
 Vibration     5          0.652              1.796              1.883
 Vibration     6          0.663              1.761              1.722
 Vibration     7          0.668              1.748              1.671
 Vibration     8          0.674              1.728              1.595
 Vibration     9          0.704              1.640              1.323
 Vibration    10          0.730              1.568              1.151
 Vibration    11          0.741              1.536              1.085
 Vibration    12          0.783              1.425              0.890
 Vibration    13          0.821              1.331              0.755
 Vibration    14          0.892              1.168              0.572
 Vibration    15          0.975              0.999              0.424

 Optimization completed.
    -- Stationary point found.
 Normal termination of Gaussian 09 at Mon Jan 27 15:13:47 2020.
