 Gaussian 09, Revision D.01,
 Gaussian 09:  ES64L-G09RevD.01 24-Apr-2013

 -----------------------------
 # b3lyp 6-31G(2df,p) opt Freq
 -----------------------------

 -----
 titel
 -----
 Symbolic Z-matrix:
 Charge =  0 Multiplicity = 1

 SCF Done:  E(RB3LYP) =  -423.126406439     A.U. after   14 cycles
 SCF Done:  E(RB3LYP) =  -423.126406467     A.U. after    6 cycles
 SCF Done:  E(RB3LYP) =  -423.126406432     A.U. after    7 cycles
 SCF Done:  E(RB3LYP) =  -423.126406515     A.U. after    7 cycles
 SCF Done:  E(RB3LYP) =  -423.126406435     A.U. after    7 cycles
 SCF Done:  E(RB3LYP) =  -423.126406600     A.U. after    7 cycles
 SCF Done:  E(RB3LYP) =  -423.126406911     A.U. after    9 cycles
 SCF Done:  E(RB3LYP) =  -423.126407028     A.U. after    9 cycles
 SCF Done:  E(RB3LYP) =  -423.126407127     A.U. after   10 cycles
 SCF Done:  E(RB3LYP) =  -423.126406759     A.U. after    9 cycles
 SCF Done:  E(RB3LYP) =  -423.126407352     A.U. after    9 cycles
 SCF Done:  E(RB3LYP) =  -423.126407241     A.U. after    8 cycles
 SCF Done:  E(RB3LYP) =  -423.126407272     A.U. after    6 cycles
 SCF Done:  E(RB3LYP) =  -423.126407127     A.U. after    8 cycles
 Optimization completed on the basis of negligible forces.
    -- Stationary point found.
 Normal termination of Gaussian 09 at Mon Jan 27 16:18:43 2020.

 ----------------------------------------------------------------------
 #N Geom=AllCheck Guess=TCheck SCRF=Check GenChk RB3LYP/6-31G(2df,p) Fr
 eq
 ----------------------------------------------------------------------

 Structure from the checkpoint file:  "/scratch/puck/g09_4b779811-171a-4e91-b7d1-ea72aa951eb4/Gau-4211.chk"
 -----
 titel
 -----
 Charge =  0 Multiplicity = 1

                         Standard orientation:
 ---------------------------------------------------------------------
 Center     Atomic      Atomic             Coordinates (Angstroms)
 Number     Number       Type             X           Y           Z
 ---------------------------------------------------------------------
      1          6           0        3.695980   -1.088275   -0.096076
      2          6           0        2.440461   -0.368295    0.058687
      3          6           0        1.402949    0.225917    0.205510
      4          6           0        0.139813    0.960946    0.324302
      5          8           0        0.264231    2.304403   -0.146845
      6          6           0       -0.996596    0.215089   -0.356309
      7          6           0       -2.436166    0.573974   -0.026289
      8          6           0       -1.864150   -0.743032    0.415764
      9          8           0       -2.284497   -1.967543   -0.108440
     10          1           0        3.572619   -1.976691   -0.724993
     11          1           0        4.460492   -0.455373   -0.560052
     12          1           0        4.084595   -1.418214    0.873572
     13          1           0       -0.114087    1.074221    1.386461
     14          1           0        0.656285    2.262758   -1.026021
     15          1           0       -0.793106   -0.060592   -1.389047
     16          1           0       -2.618371    1.346569    0.713789
     17          1           0       -3.150511    0.570512   -0.844414
     18          1           0       -1.646591   -0.866359    1.472269
     19          1           0       -2.582945   -1.829660   -1.012814
 ---------------------------------------------------------------------

 SCF Done:  E(RB3LYP) =  -423.126407127     A.U. after    1 cycles

 The electronic state is 1-A.
 Alpha  occ. eigenvalues --  -19.14303 -19.13549 -10.25429 -10.23848 -10.20586
 Alpha  occ. eigenvalues --  -10.19041 -10.18558 -10.17872 -10.16800  -1.02850
 Alpha  occ. eigenvalues --   -1.01818  -0.85111  -0.77988  -0.73431  -0.67135
 Alpha  occ. eigenvalues --   -0.61606  -0.59252  -0.53033  -0.51133  -0.50010
 Alpha  occ. eigenvalues --   -0.45611  -0.44029  -0.42835  -0.42643  -0.40796
 Alpha  occ. eigenvalues --   -0.39854  -0.37983  -0.36315  -0.35046  -0.29110
 Alpha  occ. eigenvalues --   -0.28637  -0.25603  -0.25056  -0.23725
 Alpha virt. eigenvalues --    0.03838   0.05417   0.07628   0.09392   0.10856
 Alpha virt. eigenvalues --    0.11172   0.11781   0.15290   0.15781   0.16368
 Alpha virt. eigenvalues --    0.18204   0.18501   0.19696   0.20956   0.23953

 Mulliken charges:
               1
     1  C   -0.498582
     2  C    0.059013
     3  C    0.076626
     4  C   -0.089358
     5  O   -0.413402
     6  C   -0.053961
     7  C   -0.345592
     8  C    0.149658
     9  O   -0.427041
    10  H    0.149986
    11  H    0.149904
    12  H    0.152315
    13  H    0.107283
    14  H    0.279947
    15  H    0.080235
    16  H    0.124089
    17  H    0.105921
    18  H    0.109982
    19  H    0.282976
 Sum of Mulliken charges =   0.00000

 Dipole moment (field-independent basis, Debye):
    X=              0.7125    Y=             -0.4183    Z=             -1.7355  Tot=              1.9222
 Quadrupole moment (field-independent basis, Debye-Ang):
   XX=            -45.9727   YY=            -60.2874   ZZ=            -47.8302
   XY=             -4.2386   XZ=              1.4532   YZ=              0.3223

  Exact polarizability: 105.172 -12.063  75.715  -1.946   0.767  62.555
 Approx polarizability: 137.525 -22.179 112.809  -5.791   1.677  95.823

                      1                      2                      3
                      A                      A                      A
 Frequencies --     22.1947                46.4749                79.5245
 Red. masses --      1.0192                 4.1098                 3.1328
 Frc consts  --      0.0003                 0.0052                 0.0117
 IR Inten    --      0.0113                 0.5636                 3.5119

                      4                      5                      6
                      A                      A                      A
 Frequencies --    122.2683               139.8169               165.4475
 Red. masses --      1.2868                 2.4927                 4.2556
 Frc consts  --      0.0113                 0.0287                 0.0686
 IR Inten    --     78.4191                15.4343                 1.8416

                      7                      8                      9
                      A                      A                      A
 Frequencies --    237.0842               264.5625               305.3643
 Red. masses --      1.6242                 2.0578                 3.5211
 Frc consts  --      0.0538                 0.0849                 0.1934
 IR Inten    --     68.1359                27.3383                34.2219

                     10                     11                     12
                      A                      A                      A
 Frequencies --    334.8238               365.0033               411.5583
 Red. masses --      4.6656                 4.2977                 2.9711
 Frc consts  --      0.3082                 0.3373                 0.2965
 IR Inten    --      9.0036                 4.7887                 1.7843

                     13                     14                     15
                      A                      A                      A
 Frequencies --    464.2689               523.0681               567.6033
 Red. masses --      3.0538                 3.5154                 5.7009
 Frc consts  --      0.3878                 0.5667                 1.0821
 IR Inten    --      7.2530                14.3739                 3.4053

                     16                     17                     18
                      A                      A                      A
 Frequencies --    770.4389               812.9286               877.8575
 Red. masses --      2.6301                 1.9297                 1.8462
 Frc consts  --      0.9198                 0.7514                 0.8383
 IR Inten    --      4.3275                20.4159                31.5118

                     19                     20                     21
                      A                      A                      A
 Frequencies --    928.6264               944.8891              1013.7347
 Red. masses --      3.8891                 2.8233                 2.8786
 Frc consts  --      1.9760                 1.4851                 1.7429
 IR Inten    --     19.5457                44.7822                46.2458

                     22                     23                     24
                      A                      A                      A
 Frequencies --   1048.9202              1051.8117              1054.6388
 Red. masses --      1.6328                 1.4183                 1.4214
 Frc consts  --      1.0585                 0.9245                 0.9315
 IR Inten    --     55.5011                 3.2082                 3.8133

                     25                     26                     27
                      A                      A                      A
 Frequencies --   1074.7295              1101.6561              1108.6363
 Red. masses --      1.5195                 2.2735                 1.2758
 Frc consts  --      1.0341                 1.6257                 0.9239
 IR Inten    --     19.7489                81.7075                 4.3201

                     28                     29                     30
                      A                      A                      A
 Frequencies --   1147.6090              1171.0393              1235.8717
 Red. masses --      2.0366                 2.7347                 1.8795
 Frc consts  --      1.5803                 2.2095                 1.6913
 IR Inten    --      1.3247                17.0021                33.9154

                     31                     32                     33
                      A                      A                      A
 Frequencies --   1249.9476              1282.0479              1330.9053
 Red. masses --      1.3046                 1.3557                 1.5291
 Frc consts  --      1.2009                 1.3129                 1.5958
 IR Inten    --     31.2312                14.2235                 9.2792

                     34                     35                     36
                      A                      A                      A
 Frequencies --   1395.9933              1413.2252              1418.2460
 Red. masses --      1.3852                 1.2521                 1.1937
 Frc consts  --      1.5904                 1.4733                 1.4146
 IR Inten    --     12.7762                30.5970                60.9276

                     37                     38                     39
                      A                      A                      A
 Frequencies --   1443.9617              1476.8249              1478.6200
 Red. masses --      1.2753                 1.0394                 1.0398
 Frc consts  --      1.5666                 1.3357                 1.3395
 IR Inten    --     40.6315                 5.9206                 5.6664

                     40                     41                     42
                      A                      A                      A
 Frequencies --   1492.0480              2366.7324              3023.2399
 Red. masses --      1.5359                11.8680                 1.0828
 Frc consts  --      2.0145                39.1674                 5.8311
 IR Inten    --     33.1265                13.1529                18.4822

                     43                     44                     45
                      A                      A                      A
 Frequencies --   3028.3839              3089.7415              3090.3358
 Red. masses --      1.0347                 1.1001                 1.1003
 Frc consts  --      5.5911                 6.1875                 6.1912
 IR Inten    --     29.6448                 9.1346                 9.0870

                     46                     47                     48
                      A                      A                      A
 Frequencies --   3122.1275              3130.7880              3162.2033
 Red. masses --      1.0569                 1.0865                 1.0893
 Frc consts  --      6.0697                 6.2747                 6.4177
 IR Inten    --     13.1706                 8.7962                11.4304

                     49                     50                     51
                      A                      A                      A
 Frequencies --   3208.1211              3807.2425              3824.0560
 Red. masses --      1.1151                 1.0661                 1.0660
 Frc consts  --      6.7616                 9.1052                 9.1841
 IR Inten    --      9.8261                20.3584                20.5218

 - Thermochemistry -
 -------------------
 Temperature   298.150 Kelvin.  Pressure   1.00000 Atm.
 Atom     1 has atomic number  6 and mass  12.00000

 Molecular mass:   126.06808 amu.
 Principal axes and moments of inertia in atomic units:
                           1         2         3
     Eigenvalues --   788.830542011.746422678.76602
           X            0.99933  -0.03664  -0.00063
           Y            0.03664   0.99932   0.00412
           Z            0.00048  -0.00414   0.99999
 This molecule is an asymmetric top.
 Rotational symmetry number  1.
 Warning -- assumption of classical behavior for rotation
           may cause significant error
 Rotational temperatures (Kelvin)      0.10980     0.04305     0.03233
 Rotational constants (GHZ):           2.28787     0.89710     0.67372
 Zero-point vibrational energy     408089.5 (Joules/Mol)
                                   97.53574 (Kcal/Mol)
 Warning -- explicit consideration of  15 degrees of freedom as
           vibrations may cause significant error
 Vibrational temperatures:     31.93    66.87   114.42   175.92   201.17
          (Kelvin)            238.04   341.11   380.65   439.35   481.74
                              525.16   592.14   667.98   752.58   816.65
                             1108.49  1169.62  1263.04  1336.08  1359.48
                             1458.54  1509.16  1513.32  1517.39  1546.29
                             1585.04  1595.08  1651.15  1684.86  1778.14
                             1798.39  1844.58  1914.87  2008.52  2033.31
                             2040.54  2077.54  2124.82  2127.40  2146.72
                             3405.20  4349.76  4357.16  4445.44  4446.30
                             4492.04  4504.50  4549.70  4615.76  5477.77
                             5501.96

 Zero-point correction=                           0.155433 (Hartree/Particle)
 Thermal correction to Energy=                    0.166442
 Thermal correction to Enthalpy=                  0.167387
 Thermal correction to Gibbs Free Energy=         0.117254
 Sum of electronic and zero-point Energies=           -422.970974
 Sum of electronic and thermal Energies=              -422.959965
 Sum of electronic and thermal Enthalpies=            -422.959021
 Sum of electronic and thermal Free Energies=         -423.009153

                     E (Thermal)             CV                S
                      KCal/Mol        Cal/Mol-Kelvin    Cal/Mol-Kelvin
 Total                  104.444             37.736            105.514
 Electronic               0.000              0.000              0.000
 Translational            0.889              2.981             40.409
 Rotational               0.889              2.981             29.832
 Vibrational            102.667             31.775             35.274
 Vibration     1          0.593              1.985              6.427
 Vibration     2          0.595              1.979              4.962
 Vibration     3          0.600              1.963              3.903
 Vibration     4          0.610              1.931              3.064
 Vibration     5          0.615              1.914              2.806
 Vibration     6          0.624              1.885              2.487
 Vibration     7          0.656              1.784              1.825
 Vibration     8          0.671              1.738              1.631
 Vibration     9          0.696              1.664              1.387
 Vibration    10          0.716              1.606              1.237
 Vibration    11          0.738              1.544              1.101
 Vibration    12          0.776              1.445              0.921
 Vibration    13          0.822              1.329              0.754
 Vibration    14          0.878              1.199              0.603
 Vibration    15          0.924              1.101              0.509

 Optimization completed on the basis of negligible forces.
    -- Stationary point found.
 Normal termination of Gaussian 09 at Mon Jan 27 17:48:11 2020.
