 Gaussian 09, Revision D.01,
 Gaussian 09:  ES64L-G09RevD.01 24-Apr-2013

 -----------------------------
 # b3lyp 6-31G(2df,p) opt Freq
 -----------------------------

 -----
 titel
 -----
 Symbolic Z-matrix:
 Charge =  0 Multiplicity = 1

 SCF Done:  E(RB3LYP) =  -423.152469600     A.U. after   13 cycles
 Optimization completed.
    -- Stationary point found.
 Normal termination of Gaussian 09 at Mon Jan 27 22:57:11 2020.

 ----------------------------------------------------------------------
 #N Geom=AllCheck Guess=TCheck SCRF=Check GenChk RB3LYP/6-31G(2df,p) Fr
 eq
 ----------------------------------------------------------------------

 Structure from the checkpoint file:  "/scratch/puck/g09_19206afb-59de-4a7d-80eb-fc836766866d/Gau-183463.chk"
 -----
 titel
 -----
 Charge =  0 Multiplicity = 1

                         Standard orientation:
 ---------------------------------------------------------------------
 Center     Atomic      Atomic             Coordinates (Angstroms)
 Number     Number       Type             X           Y           Z
 ---------------------------------------------------------------------
      1          8           0       -0.523358    2.037350    0.014359
      2          6           0        0.000788    0.905632   -0.636507
      3          6           0        1.468004    0.590464   -0.278685
      4          6           0        1.590395   -0.876296   -0.788438
      5          6           0        0.599549   -1.160531    0.384001
      6          6           0        1.342353   -0.019514    1.147178
      7          6           0       -0.623757   -0.413215   -0.104336
      8          6           0       -1.922817   -0.950376   -0.496662
      9          8           0       -1.756748   -0.255447    0.757167
     10          1           0       -1.287887    1.725521    0.519751
     11          1           0       -0.125009    1.011966   -1.723582
     12          1           0        2.203048    1.356341   -0.522212
     13          1           0        1.264486   -1.103792   -1.808733
     14          1           0        2.578400   -1.303026   -0.606005
     15          1           0        0.445853   -2.153378    0.805812
     16          1           0        0.784255    0.546682    1.895459
     17          1           0        2.302638   -0.348779    1.548863
     18          1           0       -2.524707   -0.427803   -1.239092
     19          1           0       -2.127312   -2.015925   -0.401767
 ---------------------------------------------------------------------

 SCF Done:  E(RB3LYP) =  -423.152469600     A.U. after    1 cycles

 The electronic state is 1-A.
 Alpha  occ. eigenvalues --  -19.16268 -19.12605 -10.24396 -10.24085 -10.23047
 Alpha  occ. eigenvalues --  -10.19951 -10.19212 -10.19089 -10.18545  -1.08087
 Alpha  occ. eigenvalues --   -1.01063  -0.88841  -0.70651  -0.68795  -0.66841
 Alpha  occ. eigenvalues --   -0.65624  -0.55895  -0.55398  -0.53073  -0.49041
 Alpha  occ. eigenvalues --   -0.48031  -0.46228  -0.44113  -0.40684  -0.39473
 Alpha  occ. eigenvalues --   -0.37489  -0.36599  -0.35150  -0.32266  -0.31936
 Alpha  occ. eigenvalues --   -0.31340  -0.29830  -0.27461  -0.25862
 Alpha virt. eigenvalues --    0.08234   0.09092   0.10267   0.11006   0.12339
 Alpha virt. eigenvalues --    0.13494   0.14679   0.15330   0.15907   0.16609
 Alpha virt. eigenvalues --    0.16817   0.18760   0.19327   0.21252   0.21552

 Mulliken charges:
               1
     1  O   -0.456000
     2  C    0.086537
     3  C   -0.050514
     4  C   -0.244585
     5  C   -0.105149
     6  C   -0.230355
     7  C    0.435151
     8  C   -0.284490
     9  O   -0.302969
    10  H    0.293030
    11  H    0.070149
    12  H    0.071593
    13  H    0.093438
    14  H    0.105968
    15  H    0.068141
    16  H    0.109529
    17  H    0.099044
    18  H    0.121151
    19  H    0.120331
 Sum of Mulliken charges =   0.00000

 Dipole moment (field-independent basis, Debye):
    X=              0.4397    Y=             -2.1216    Z=             -1.0920  Tot=              2.4263
 Quadrupole moment (field-independent basis, Debye-Ang):
   XX=            -50.7866   YY=            -56.2937   ZZ=            -52.9900
   XY=              0.4954   XZ=              2.4846   YZ=              0.8538

  Exact polarizability:  82.666   1.820  72.408   2.783   1.053  67.793
 Approx polarizability: 113.633   1.976 107.266  -0.182   3.412 106.673

                      1                      2                      3
                      A                      A                      A
 Frequencies --    109.3274               255.1148               265.0606
 Red. masses --      4.3048                 3.6815                 3.3428
 Frc consts  --      0.0303                 0.1412                 0.1384
 IR Inten    --      1.5727                 5.4360                 2.7941

                      4                      5                      6
                      A                      A                      A
 Frequencies --    298.9873               383.1771               439.6769
 Red. masses --      3.6078                 2.7208                 1.5916
 Frc consts  --      0.1900                 0.2354                 0.1813
 IR Inten    --      7.9474                 8.1018                30.1202

                      7                      8                      9
                      A                      A                      A
 Frequencies --    470.5222               502.9864               560.8749
 Red. masses --      1.5705                 3.5032                 3.2594
 Frc consts  --      0.2049                 0.5222                 0.6041
 IR Inten    --     16.4729                 2.6939                10.3971

                     10                     11                     12
                      A                      A                      A
 Frequencies --    602.9592               759.7324               809.8131
 Red. masses --      3.3141                 3.7027                 2.9925
 Frc consts  --      0.7099                 1.2592                 1.1563
 IR Inten    --      2.3909                12.4374                16.2994

                     13                     14                     15
                      A                      A                      A
 Frequencies --    843.5722               853.8385               883.0756
 Red. masses --      2.3062                 2.2799                 1.9749
 Frc consts  --      0.9669                 0.9793                 0.9074
 IR Inten    --      2.3963                 1.8631                 1.2981

                     16                     17                     18
                      A                      A                      A
 Frequencies --    894.0388               910.1079               941.7832
 Red. masses --      2.4332                 3.7880                 1.8028
 Frc consts  --      1.1459                 1.8486                 0.9421
 IR Inten    --      9.6194                16.9053                 0.8330

                     19                     20                     21
                      A                      A                      A
 Frequencies --    971.4805              1019.8619              1025.3633
 Red. masses --      2.7947                 1.9958                 2.2384
 Frc consts  --      1.5540                 1.2230                 1.3866
 IR Inten    --     35.5184                 4.1882                 2.0126

                     22                     23                     24
                      A                      A                      A
 Frequencies --   1050.8078              1072.0372              1084.7559
 Red. masses --      1.5503                 1.1628                 1.3979
 Frc consts  --      1.0086                 0.7874                 0.9691
 IR Inten    --     13.9525                 2.6401                10.6809

                     25                     26                     27
                      A                      A                      A
 Frequencies --   1105.6978              1120.6099              1146.6976
 Red. masses --      1.5359                 1.2815                 3.0859
 Frc consts  --      1.1063                 0.9481                 2.3907
 IR Inten    --      1.4857                 1.5090                75.1938

                     28                     29                     30
                      A                      A                      A
 Frequencies --   1168.1252              1215.3331              1219.7778
 Red. masses --      1.3618                 2.3347                 1.3384
 Frc consts  --      1.0949                 2.0318                 1.1732
 IR Inten    --      0.7600                 5.6836                 5.2909

                     31                     32                     33
                      A                      A                      A
 Frequencies --   1224.6163              1247.2858              1258.7312
 Red. masses --      1.4205                 1.6488                 1.5583
 Frc consts  --      1.2551                 1.5113                 1.4547
 IR Inten    --      0.7471                 3.8826                 9.4264

                     34                     35                     36
                      A                      A                      A
 Frequencies --   1281.4613              1318.6686              1374.3250
 Red. masses --      1.7298                 1.6857                 1.3418
 Frc consts  --      1.6736                 1.7270                 1.4932
 IR Inten    --      9.3823                 0.5298                 4.8414

                     37                     38                     39
                      A                      A                      A
 Frequencies --   1407.3913              1449.2866              1487.4604
 Red. masses --      1.3637                 2.0785                 1.0924
 Frc consts  --      1.5915                 2.5722                 1.4240
 IR Inten    --     70.1446                27.3506                 2.4463

                     40                     41                     42
                      A                      A                      A
 Frequencies --   1517.3672              1536.0490              2994.4504
 Red. masses --      1.1302                 1.5749                 1.0845
 Frc consts  --      1.5331                 2.1894                 5.7294
 IR Inten    --      1.3181                 6.0130                47.4518

                     43                     44                     45
                      A                      A                      A
 Frequencies --   3049.6096              3073.0183              3082.6567
 Red. masses --      1.0602                 1.0562                 1.0510
 Frc consts  --      5.8094                 5.8763                 5.8844
 IR Inten    --     44.7417                25.2620                27.0191

                     46                     47                     48
                      A                      A                      A
 Frequencies --   3118.2612              3122.2524              3128.5113
 Red. masses --      1.1023                 1.0921                 1.0929
 Frc consts  --      6.3148                 6.2725                 6.3023
 IR Inten    --     14.8337                50.5009                25.8291

                     49                     50                     51
                      A                      A                      A
 Frequencies --   3135.0984              3169.7267              3723.2567
 Red. masses --      1.1088                 1.1194                 1.0655
 Frc consts  --      6.4213                 6.6262                 8.7022
 IR Inten    --     27.0750                17.8375                61.3277

 - Thermochemistry -
 -------------------
 Temperature   298.150 Kelvin.  Pressure   1.00000 Atm.
 Atom     1 has atomic number  8 and mass  15.99491

 Molecular mass:   126.06808 amu.
 Principal axes and moments of inertia in atomic units:
                           1         2         3
     Eigenvalues --   701.54844 983.905861267.24727
           X            0.99970  -0.00283   0.02437
           Y            0.00242   0.99985   0.01699
           Z           -0.02441  -0.01693   0.99956
 This molecule is an asymmetric top.
 Rotational symmetry number  1.
 Warning -- assumption of classical behavior for rotation
           may cause significant error
 Rotational temperatures (Kelvin)      0.12346     0.08803     0.06835
 Rotational constants (GHZ):           2.57251     1.83426     1.42414
 Zero-point vibrational energy     422788.3 (Joules/Mol)
                                  101.04882 (Kcal/Mol)
 Warning -- explicit consideration of  10 degrees of freedom as
           vibrations may cause significant error
 Vibrational temperatures:    157.30   367.05   381.36   430.18   551.31
          (Kelvin)            632.60   676.98   723.68   806.97   867.52
                             1093.08  1165.14  1213.71  1228.48  1270.55
                             1286.32  1309.44  1355.01  1397.74  1467.35
                             1475.27  1511.88  1542.42  1560.72  1590.85
                             1612.31  1649.84  1680.67  1748.59  1754.99
                             1761.95  1794.56  1811.03  1843.73  1897.27
                             1977.34  2024.92  2085.20  2140.12  2183.15
                             2210.03  4308.34  4387.70  4421.38  4435.25
                             4486.48  4492.22  4501.22  4510.70  4560.52
                             5356.93

 Zero-point correction=                           0.161032 (Hartree/Particle)
 Thermal correction to Energy=                    0.168276
 Thermal correction to Enthalpy=                  0.169220
 Thermal correction to Gibbs Free Energy=         0.129662
 Sum of electronic and zero-point Energies=           -422.991438
 Sum of electronic and thermal Energies=              -422.984193
 Sum of electronic and thermal Enthalpies=            -422.983249
 Sum of electronic and thermal Free Energies=         -423.022808

                     E (Thermal)             CV                S
                      KCal/Mol        Cal/Mol-Kelvin    Cal/Mol-Kelvin
 Total                  105.595             29.914             83.259
 Electronic               0.000              0.000              0.000
 Translational            0.889              2.981             40.409
 Rotational               0.889              2.981             28.261
 Vibrational            103.817             23.952             14.589
 Vibration     1          0.606              1.942              3.281
 Vibration     2          0.665              1.754              1.695
 Vibration     3          0.671              1.737              1.628
 Vibration     4          0.692              1.676              1.423
 Vibration     5          0.752              1.506              1.027
 Vibration     6          0.800              1.384              0.828
 Vibration     7          0.828              1.315              0.736
 Vibration     8          0.858              1.243              0.651
 Vibration     9          0.917              1.116              0.522
 Vibration    10          0.961              1.026              0.445

 Normal termination of Gaussian 09 at Mon Jan 27 23:44:26 2020.
