 Gaussian 09, Revision D.01,
 Gaussian 09:  ES64L-G09RevD.01 24-Apr-2013

 -----------------------------
 # b3lyp 6-31G(2df,p) opt Freq
 -----------------------------

 -----
 titel
 -----
 Symbolic Z-matrix:
 Charge =  0 Multiplicity = 1

 SCF Done:  E(RB3LYP) =  -423.193632524     A.U. after   12 cycles
 Optimization completed.
    -- Stationary point found.
 Normal termination of Gaussian 09 at Tue Jan 28 03:05:37 2020.

 ----------------------------------------------------------------------
 #N Geom=AllCheck Guess=TCheck SCRF=Check GenChk RB3LYP/6-31G(2df,p) Fr
 eq
 ----------------------------------------------------------------------

 Structure from the checkpoint file:  "/scratch/puck/g09_35979cee-d328-4543-a6a3-ee44848443b0/Gau-918.chk"
 -----
 titel
 -----
 Charge =  0 Multiplicity = 1

                         Standard orientation:
 ---------------------------------------------------------------------
 Center     Atomic      Atomic             Coordinates (Angstroms)
 Number     Number       Type             X           Y           Z
 ---------------------------------------------------------------------
      1          6           0       -2.654801   -0.000002   -0.130469
      2          6           0       -1.163080   -0.000019   -0.384781
      3          8           0       -0.622080    1.186800    0.180215
      4          6           0        0.810132    1.152384    0.330866
      5          6           0        1.138223   -0.000024    1.294582
      6          6           0        0.810163   -1.152395    0.330812
      7          8           0       -0.622060   -1.186813    0.180206
      8          6           0        1.485357   -0.667062   -0.952758
      9          6           0        1.485344    0.667124   -0.952728
     10          1           0       -2.848639   -0.000757    0.944728
     11          1           0       -3.105787    0.890888   -0.574298
     12          1           0       -3.106158   -0.890051   -0.575604
     13          1           0       -0.951882   -0.000016   -1.464623
     14          1           0        1.096585    2.151533    0.661449
     15          1           0        2.193953   -0.000005    1.578832
     16          1           0        0.502948   -0.000061    2.182070
     17          1           0        1.096632   -2.151558    0.661338
     18          1           0        1.803735   -1.320988   -1.755233
     19          1           0        1.803709    1.321092   -1.755173
 ---------------------------------------------------------------------

 SCF Done:  E(RB3LYP) =  -423.193632524     A.U. after    1 cycles

 The electronic state is 1-A.
 Alpha  occ. eigenvalues --  -19.13739 -19.13738 -10.26832 -10.23732 -10.23730
 Alpha  occ. eigenvalues --  -10.19031 -10.18943 -10.17761 -10.16935  -1.06310
 Alpha  occ. eigenvalues --   -0.99239  -0.84672  -0.74633  -0.70951  -0.68753
 Alpha  occ. eigenvalues --   -0.62170  -0.55649  -0.55153  -0.52257  -0.48423
 Alpha  occ. eigenvalues --   -0.47218  -0.44774  -0.42218  -0.40482  -0.38830
 Alpha  occ. eigenvalues --   -0.38314  -0.37640  -0.36913  -0.36081  -0.33333
 Alpha  occ. eigenvalues --   -0.30418  -0.26396  -0.25465  -0.25286
 Alpha virt. eigenvalues --   -0.00751   0.10385   0.12481   0.13699   0.13843
 Alpha virt. eigenvalues --    0.14676   0.15808   0.16137   0.16777   0.17647
 Alpha virt. eigenvalues --    0.17884   0.18469   0.19396   0.21084   0.21149

 Mulliken charges:
               1
     1  C   -0.399028
     2  C    0.237786
     3  O   -0.294357
     4  C    0.078753
     5  C   -0.226570
     6  C    0.078750
     7  O   -0.294347
     8  C   -0.094885
     9  C   -0.094881
    10  H    0.128078
    11  H    0.123680
    12  H    0.123657
    13  H    0.066775
    14  H    0.076576
    15  H    0.097981
    16  H    0.105658
    17  H    0.076577
    18  H    0.104898
    19  H    0.104899
 Sum of Mulliken charges =   0.00000

 Dipole moment (field-independent basis, Debye):
    X=              1.3951    Y=              0.0000    Z=             -0.6333  Tot=              1.5321
 Quadrupole moment (field-independent basis, Debye-Ang):
   XX=            -51.1636   YY=            -53.9313   ZZ=            -51.2698
   XY=             -0.0001   XZ=              0.5420   YZ=              0.0000

  Exact polarizability:  80.211   0.000  74.862  -1.338   0.000  69.129
 Approx polarizability: 107.120   0.000 126.096  -3.243   0.001 100.559

                      1                      2                      3
                      A                      A                      A
 Frequencies --    165.1695               204.4680               261.4102
 Red. masses --      3.2248                 1.0501                 3.9320
 Frc consts  --      0.0518                 0.0259                 0.1583
 IR Inten    --      3.2309                 0.0055                 0.2072

                      4                      5                      6
                      A                      A                      A
 Frequencies --    315.6040               377.2217               408.7741
 Red. masses --      2.8227                 2.7090                 4.9640
 Frc consts  --      0.1657                 0.2271                 0.4887
 IR Inten    --      3.9462                 2.3469                 1.9801

                      7                      8                      9
                      A                      A                      A
 Frequencies --    465.0875               540.9876               602.9649
 Red. masses --      2.2716                 2.8581                 4.3815
 Frc consts  --      0.2895                 0.4928                 0.9385
 IR Inten    --      1.4889                 8.8814                 2.9369

                     10                     11                     12
                      A                      A                      A
 Frequencies --    609.0292               771.0451               808.6127
 Red. masses --      3.9242                 1.7561                 3.9534
 Frc consts  --      0.8576                 0.6151                 1.5230
 IR Inten    --      1.6631                14.3118                 2.1653

                     13                     14                     15
                      A                      A                      A
 Frequencies --    811.4130               839.5225               848.8527
 Red. masses --      2.6501                 2.8800                 3.8906
 Frc consts  --      1.0280                 1.1959                 1.6517
 IR Inten    --     13.5824                21.0356                 2.0832

                     16                     17                     18
                      A                      A                      A
 Frequencies --    899.3802               905.8239               948.8288
 Red. masses --      2.2915                 2.1761                 2.8054
 Frc consts  --      1.0921                 1.0520                 1.4881
 IR Inten    --      3.8350                 2.2465                16.6562

                     19                     20                     21
                      A                      A                      A
 Frequencies --    966.4546               977.9706               993.3670
 Red. masses --      1.3977                 3.0756                 1.9181
 Frc consts  --      0.7692                 1.7331                 1.1152
 IR Inten    --      1.8198                16.8141                42.2571

                     22                     23                     24
                      A                      A                      A
 Frequencies --   1010.4687              1077.7370              1116.5245
 Red. masses --      2.2058                 2.0634                 1.8902
 Frc consts  --      1.3270                 1.4121                 1.3883
 IR Inten    --      4.3908                21.6804                28.3204

                     25                     26                     27
                      A                      A                      A
 Frequencies --   1121.7549              1135.8958              1166.7345
 Red. masses --      1.2584                 3.5859                 1.1609
 Frc consts  --      0.9330                 2.7260                 0.9311
 IR Inten    --      7.8736               192.7803                 0.2642

                     28                     29                     30
                      A                      A                      A
 Frequencies --   1178.1541              1236.8578              1296.7729
 Red. masses --      2.3313                 1.9691                 1.3739
 Frc consts  --      1.9066                 1.7748                 1.3612
 IR Inten    --     51.1089                 9.9474                 0.8535

                     31                     32                     33
                      A                      A                      A
 Frequencies --   1312.2007              1347.2751              1359.2734
 Red. masses --      1.6957                 1.3892                 1.2559
 Frc consts  --      1.7202                 1.4857                 1.3671
 IR Inten    --      4.6984                 1.8951                 3.2401

                     34                     35                     36
                      A                      A                      A
 Frequencies --   1372.2234              1388.8239              1398.3824
 Red. masses --      1.4642                 1.2422                 1.1514
 Frc consts  --      1.6245                 1.4117                 1.3266
 IR Inten    --     28.4702                 5.2994                 7.4577

                     37                     38                     39
                      A                      A                      A
 Frequencies --   1421.3965              1475.2293              1480.2288
 Red. masses --      1.5529                 1.1091                 1.0524
 Frc consts  --      1.8485                 1.4221                 1.3586
 IR Inten    --     52.7959                 2.8677                 5.0142

                     40                     41                     42
                      A                      A                      A
 Frequencies --   1489.1551              1652.4559              2986.4070
 Red. masses --      1.0497                 6.0282                 1.0817
 Frc consts  --      1.3715                 9.6983                 5.6840
 IR Inten    --      0.7626                 0.1936                53.6630

                     43                     44                     45
                      A                      A                      A
 Frequencies --   3055.0629              3065.6287              3105.5315
 Red. masses --      1.0342                 1.0598                 1.0876
 Frc consts  --      5.6869                 5.8682                 6.1798
 IR Inten    --     11.9810                18.7415                63.0841

                     46                     47                     48
                      A                      A                      A
 Frequencies --   3108.5330              3129.9802              3135.9390
 Red. masses --      1.0901                 1.1063                 1.1023
 Frc consts  --      6.2063                 6.3857                 6.3866
 IR Inten    --     19.9936                19.4616                12.6340

                     49                     50                     51
                      A                      A                      A
 Frequencies --   3138.1896              3197.5605              3222.7318
 Red. masses --      1.1028                 1.0856                 1.1063
 Frc consts  --      6.3987                 6.5398                 6.7700
 IR Inten    --     19.1377                 5.9798                11.9606

 - Thermochemistry -
 -------------------
 Temperature   298.150 Kelvin.  Pressure   1.00000 Atm.
 Atom     1 has atomic number  6 and mass  12.00000

 Molecular mass:   126.06808 amu.
 Principal axes and moments of inertia in atomic units:
                           1         2         3
     Eigenvalues --   598.898551091.733141221.73868
           X            0.99994   0.00000   0.01112
           Y            0.00000   1.00000   0.00000
           Z           -0.01112   0.00000   0.99994
 This molecule is an asymmetric top.
 Rotational symmetry number  1.
 Warning -- assumption of classical behavior for rotation
           may cause significant error
 Rotational temperatures (Kelvin)      0.14462     0.07934     0.07089
 Rotational constants (GHZ):           3.01343     1.65310     1.47719
 Zero-point vibrational energy     424106.7 (Joules/Mol)
                                  101.36392 (Kcal/Mol)
 Warning -- explicit consideration of  10 degrees of freedom as
           vibrations may cause significant error
 Vibrational temperatures:    237.64   294.18   376.11   454.08   542.74
          (Kelvin)            588.13   669.16   778.36   867.53   876.26
                             1109.36  1163.41  1167.44  1207.88  1221.31
                             1294.01  1303.28  1365.15  1390.51  1407.08
                             1429.23  1453.84  1550.62  1606.43  1613.95
                             1634.30  1678.67  1695.10  1779.56  1865.76
                             1887.96  1938.43  1955.69  1974.32  1998.21
                             2011.96  2045.07  2122.52  2129.72  2142.56
                             2377.51  4296.77  4395.55  4410.75  4468.16
                             4472.48  4503.34  4511.91  4515.15  4600.57
                             4636.79

 Zero-point correction=                           0.161534 (Hartree/Particle)
 Thermal correction to Energy=                    0.168717
 Thermal correction to Enthalpy=                  0.169661
 Thermal correction to Gibbs Free Energy=         0.130383
 Sum of electronic and zero-point Energies=           -423.032099
 Sum of electronic and thermal Energies=              -423.024916
 Sum of electronic and thermal Enthalpies=            -423.023972
 Sum of electronic and thermal Free Energies=         -423.063250

                     E (Thermal)             CV                S
                      KCal/Mol        Cal/Mol-Kelvin    Cal/Mol-Kelvin
 Total                  105.871             29.653             82.668
 Electronic               0.000              0.000              0.000
 Translational            0.889              2.981             40.409
 Rotational               0.889              2.981             28.170
 Vibrational            104.094             23.691             14.089
 Vibration     1          0.624              1.885              2.490
 Vibration     2          0.640              1.834              2.093
 Vibration     3          0.669              1.743              1.652
 Vibration     4          0.703              1.644              1.333
 Vibration     5          0.748              1.519              1.050
 Vibration     6          0.773              1.451              0.931
 Vibration     7          0.823              1.328              0.751
 Vibration     8          0.896              1.159              0.563
 Vibration     9          0.961              1.026              0.445
 Vibration    10          0.968              1.013              0.434

 Optimization completed.
    -- Stationary point found.
 Normal termination of Gaussian 09 at Tue Jan 28 03:51:00 2020.
