 Gaussian 09, Revision D.01,
 Gaussian 09:  ES64L-G09RevD.01 24-Apr-2013

 -----------------------------
 # b3lyp 6-31G(2df,p) opt Freq
 -----------------------------

 -----
 titel
 -----
 Symbolic Z-matrix:
 Charge =  0 Multiplicity = 1

 SCF Done:  E(RB3LYP) =  -423.147360430     A.U. after   14 cycles
 Optimization completed.
    -- Stationary point found.
 Normal termination of Gaussian 09 at Mon Jan 27 16:56:52 2020.

 ----------------------------------------------------------------------
 #N Geom=AllCheck Guess=TCheck SCRF=Check GenChk RB3LYP/6-31G(2df,p) Fr
 eq
 ----------------------------------------------------------------------

 Structure from the checkpoint file:  "/scratch/puck/g09_b841e0ba-726b-4f19-a613-24cb68a79f75/Gau-64898.chk"
 -----
 titel
 -----
 Charge =  0 Multiplicity = 1

                         Standard orientation:
 ---------------------------------------------------------------------
 Center     Atomic      Atomic             Coordinates (Angstroms)
 Number     Number       Type             X           Y           Z
 ---------------------------------------------------------------------
      1          6           0       -0.684086   -0.000086    1.741785
      2          6           0       -0.576941   -0.000014    0.204362
      3          8           0        0.057058    1.177515   -0.276867
      4          6           0        1.460101    1.238022   -0.041940
      5          6           0        2.152396    0.000038   -0.608177
      6          6           0        1.460108   -1.238005   -0.042056
      7          8           0        0.057065   -1.177502   -0.276959
      8          6           0       -1.925665    0.000000   -0.382119
      9          6           0       -3.044599    0.000038   -0.814695
     10          1           0       -1.227326    0.889832    2.065955
     11          1           0       -1.227341   -0.890029    2.065862
     12          1           0        0.297978   -0.000123    2.219365
     13          1           0        1.796925    2.154578   -0.533033
     14          1           0        1.676120    1.339520    1.033098
     15          1           0        2.061354    0.000090   -1.699276
     16          1           0        3.216999    0.000027   -0.349642
     17          1           0        1.796942   -2.154509   -0.533241
     18          1           0        1.676145   -1.339606    1.032969
     19          1           0       -4.028667    0.000156   -1.214403
 ---------------------------------------------------------------------

 SCF Done:  E(RB3LYP) =  -423.147360430     A.U. after    1 cycles

 The electronic state is 1-A.
 Alpha  occ. eigenvalues --  -19.14455 -19.14454 -10.30602 -10.23437 -10.23437
 Alpha  occ. eigenvalues --  -10.18782 -10.18075 -10.17885 -10.17596  -1.07322
 Alpha  occ. eigenvalues --   -1.00383  -0.81291  -0.75225  -0.72367  -0.68137
 Alpha  occ. eigenvalues --   -0.65822  -0.56947  -0.53875  -0.50737  -0.50633
 Alpha  occ. eigenvalues --   -0.46478  -0.45593  -0.44354  -0.42908  -0.40021
 Alpha  occ. eigenvalues --   -0.39358  -0.39119  -0.35677  -0.33996  -0.31058
 Alpha  occ. eigenvalues --   -0.27542  -0.27282  -0.26271  -0.26213
 Alpha virt. eigenvalues --    0.04075   0.04728   0.08416   0.11522   0.12630
 Alpha virt. eigenvalues --    0.13406   0.13427   0.15031   0.15076   0.15978
 Alpha virt. eigenvalues --    0.17948   0.18758   0.19332   0.20430   0.21448

 Mulliken charges:
               1
     1  C   -0.428664
     2  C    0.236455
     3  O   -0.279215
     4  C   -0.082180
     5  C   -0.206652
     6  C   -0.082178
     7  O   -0.279214
     8  C    0.322855
     9  C   -0.419819
    10  H    0.137374
    11  H    0.137375
    12  H    0.116800
    13  H    0.115086
    14  H    0.092515
    15  H    0.118196
    16  H    0.098631
    17  H    0.115085
    18  H    0.092514
    19  H    0.195035
 Sum of Mulliken charges =   0.00000

 Dipole moment (field-independent basis, Debye):
    X=              1.6256    Y=              0.0001    Z=              1.0896  Tot=              1.9570
 Quadrupole moment (field-independent basis, Debye-Ang):
   XX=            -44.5803   YY=            -55.4208   ZZ=            -52.3827
   XY=             -0.0004   XZ=              0.8302   YZ=             -0.0003

  Exact polarizability: 100.242  -0.001  64.547   6.012   0.000  66.984
 Approx polarizability: 138.968  -0.001  94.091  15.684   0.000  97.724

                      1                      2                      3
                      A                      A                      A
 Frequencies --    115.0838               152.7234               199.5469
 Red. masses --      3.6321                 3.7385                 1.3131
 Frc consts  --      0.0283                 0.0514                 0.0308
 IR Inten    --      3.2917                 2.2638                 1.1242

                      4                      5                      6
                      A                      A                      A
 Frequencies --    203.1531               253.2152               344.7517
 Red. masses --      3.0161                 1.6339                 1.9008
 Frc consts  --      0.0733                 0.0617                 0.1331
 IR Inten    --      0.2698                 1.2890                 2.1677

                      7                      8                      9
                      A                      A                      A
 Frequencies --    370.6196               416.2974               458.8902
 Red. masses --      3.6461                 3.6019                 3.9210
 Frc consts  --      0.2951                 0.3678                 0.4865
 IR Inten    --      0.3032                 2.6119                 1.8615

                     10                     11                     12
                      A                      A                      A
 Frequencies --    463.8824               538.9830               559.8928
 Red. masses --      4.5622                 5.7495                 3.0512
 Frc consts  --      0.5784                 0.9841                 0.5635
 IR Inten    --      2.9644                 1.3303                 3.6290

                     13                     14                     15
                      A                      A                      A
 Frequencies --    612.3140               642.9825               672.0242
 Red. masses --      2.7621                 1.2453                 1.2749
 Frc consts  --      0.6102                 0.3033                 0.3392
 IR Inten    --      6.2235                37.7531                32.0188

                     16                     17                     18
                      A                      A                      A
 Frequencies --    724.2947               863.3995               877.1376
 Red. masses --      4.7071                 2.8071                 2.1874
 Frc consts  --      1.4549                 1.2329                 0.9916
 IR Inten    --      3.5880                 2.8635                48.2309

                     19                     20                     21
                      A                      A                      A
 Frequencies --    900.7000               904.8165               967.5321
 Red. masses --      1.5952                 2.2710                 1.9490
 Frc consts  --      0.7625                 1.0955                 1.0749
 IR Inten    --      0.6122                 0.9520                22.8461

                     22                     23                     24
                      A                      A                      A
 Frequencies --    981.5376              1068.6709              1086.6702
 Red. masses --      1.9697                 3.9512                 4.5382
 Frc consts  --      1.1181                 2.6587                 3.1574
 IR Inten    --     21.5576                17.1669                47.8118

                     25                     26                     27
                      A                      A                      A
 Frequencies --   1118.4210              1130.9090              1171.8775
 Red. masses --      2.0076                 3.3775                 2.8197
 Frc consts  --      1.4796                 2.5451                 2.2815
 IR Inten    --     51.7648               110.9205               121.6231

                     28                     29                     30
                      A                      A                      A
 Frequencies --   1237.7334              1263.2988              1268.6604
 Red. masses --      1.2813                 2.6835                 1.2928
 Frc consts  --      1.1565                 2.5233                 1.2259
 IR Inten    --      4.3169               201.0271                18.3763

                     31                     32                     33
                      A                      A                      A
 Frequencies --   1317.0225              1372.6209              1394.3293
 Red. masses --      1.3252                 1.4009                 1.2560
 Frc consts  --      1.3543                 1.5551                 1.4387
 IR Inten    --     20.4489                 0.1787                14.7410

                     34                     35                     36
                      A                      A                      A
 Frequencies --   1394.9865              1414.9212              1468.2778
 Red. masses --      1.2822                 1.3244                 1.1001
 Frc consts  --      1.4701                 1.5621                 1.3974
 IR Inten    --      5.9305                30.5154                 3.1465

                     37                     38                     39
                      A                      A                      A
 Frequencies --   1481.5453              1482.4722              1509.6651
 Red. masses --      1.0516                 1.0704                 1.0785
 Frc consts  --      1.3599                 1.3860                 1.4482
 IR Inten    --      2.2350                 1.9443                 0.1519

                     40                     41                     42
                      A                      A                      A
 Frequencies --   1516.3192              2254.3875              2984.1837
 Red. masses --      1.0857                 5.8599                 1.0702
 Frc consts  --      1.4708                17.5467                 5.6153
 IR Inten    --      2.7482                12.3835                21.6245

                     43                     44                     45
                      A                      A                      A
 Frequencies --   2987.2539              3044.1580              3061.6487
 Red. masses --      1.0706                 1.0594                 1.0342
 Frc consts  --      5.6289                 5.7843                 5.7118
 IR Inten    --     74.6362                19.0452                 9.5243

                     46                     47                     48
                      A                      A                      A
 Frequencies --   3089.3822              3091.5294              3099.3040
 Red. masses --      1.0946                 1.0922                 1.1029
 Frc consts  --      6.1554                 6.1506                 6.2419
 IR Inten    --     27.8842                39.4607                32.2714

                     49                     50                     51
                      A                      A                      A
 Frequencies --   3137.9165              3145.0014              3503.0442
 Red. masses --      1.1013                 1.1035                 1.1649
 Frc consts  --      6.3888                 6.4306                 8.4225
 IR Inten    --     25.4702                 8.4679                57.1555

 - Thermochemistry -
 -------------------
 Temperature   298.150 Kelvin.  Pressure   1.00000 Atm.
 Atom     1 has atomic number  6 and mass  12.00000

 Molecular mass:   126.06808 amu.
 Principal axes and moments of inertia in atomic units:
                           1         2         3
     Eigenvalues --   606.808581401.737891478.49603
           X            0.99995   0.00000  -0.00977
           Y            0.00000   1.00000  -0.00002
           Z            0.00977   0.00002   0.99995
 This molecule is an asymmetric top.
 Rotational symmetry number  1.
 Warning -- assumption of classical behavior for rotation
           may cause significant error
 Rotational temperatures (Kelvin)      0.14274     0.06179     0.05858
 Rotational constants (GHZ):           2.97415     1.28750     1.22066
 Zero-point vibrational energy     414625.6 (Joules/Mol)
                                   99.09790 (Kcal/Mol)
 Warning -- explicit consideration of  13 degrees of freedom as
           vibrations may cause significant error
 Vibrational temperatures:    165.58   219.73   287.10   292.29   364.32
          (Kelvin)            496.02   533.24   598.96   660.24   667.42
                              775.48   805.56   880.98   925.11   966.89
                             1042.10  1242.24  1262.00  1295.90  1301.83
                             1392.06  1412.21  1537.58  1563.47  1609.16
                             1627.12  1686.07  1780.82  1817.60  1825.32
                             1894.90  1974.89  2006.13  2007.07  2035.75
                             2112.52  2131.61  2132.94  2172.07  2181.64
                             3243.56  4293.57  4297.99  4379.86  4405.02
                             4444.93  4448.02  4459.20  4514.76  4524.95
                             5040.09

 Zero-point correction=                           0.157923 (Hartree/Particle)
 Thermal correction to Energy=                    0.166641
 Thermal correction to Enthalpy=                  0.167585
 Thermal correction to Gibbs Free Energy=         0.125123
 Sum of electronic and zero-point Energies=           -422.989438
 Sum of electronic and thermal Energies=              -422.980719
 Sum of electronic and thermal Enthalpies=            -422.979775
 Sum of electronic and thermal Free Energies=         -423.022238

                     E (Thermal)             CV                S
                      KCal/Mol        Cal/Mol-Kelvin    Cal/Mol-Kelvin
 Total                  104.569             34.061             89.370
 Electronic               0.000              0.000              0.000
 Translational            0.889              2.981             40.409
 Rotational               0.889              2.981             28.621
 Vibrational            102.791             28.100             20.340
 Vibration     1          0.608              1.937              3.181
 Vibration     2          0.619              1.900              2.638
 Vibration     3          0.638              1.841              2.137
 Vibration     4          0.639              1.835              2.104
 Vibration     5          0.664              1.757              1.708
 Vibration     6          0.723              1.586              1.190
 Vibration     7          0.743              1.533              1.077
 Vibration     8          0.780              1.435              0.905
 Vibration     9          0.817              1.341              0.769
 Vibration    10          0.821              1.330              0.755
 Vibration    11          0.894              1.164              0.567
 Vibration    12          0.916              1.118              0.524
 Vibration    13          0.972              1.006              0.429

 Optimization completed.
    -- Stationary point found.
 Normal termination of Gaussian 09 at Mon Jan 27 17:42:27 2020.
