 Gaussian 09, Revision D.01,
 Gaussian 09:  ES64L-G09RevD.01 24-Apr-2013

 -----------------------------
 # b3lyp 6-31G(2df,p) opt Freq
 -----------------------------

 -----
 titel
 -----
 Symbolic Z-matrix:
 Charge =  0 Multiplicity = 1

 SCF Done:  E(RB3LYP) =  -423.231143085     A.U. after   14 cycles
 Optimization completed.
    -- Stationary point found.
 Normal termination of Gaussian 09 at Tue Jan 28 02:01:41 2020.

 ----------------------------------------------------------------------
 #N Geom=AllCheck Guess=TCheck SCRF=Check GenChk RB3LYP/6-31G(2df,p) Fr
 eq
 ----------------------------------------------------------------------

 Structure from the checkpoint file:  "/scratch/puck/g09_ca65f87d-eff1-43f5-b912-623841c9dfcb/Gau-110914.chk"
 -----
 titel
 -----
 Charge =  0 Multiplicity = 1

                         Standard orientation:
 ---------------------------------------------------------------------
 Center     Atomic      Atomic             Coordinates (Angstroms)
 Number     Number       Type             X           Y           Z
 ---------------------------------------------------------------------
      1          6           0        2.673674   -0.468203   -0.653681
      2          6           0        1.600513    0.469836   -0.151045
      3          6           0        1.146802    0.442456    1.276355
      4          6           0        0.216486   -0.048639    0.176592
      5          6           0       -0.259923   -1.479985    0.016903
      6          6           0       -1.790218   -1.310347    0.091346
      7          8           0       -2.068927    0.051402   -0.278250
      8          6           0       -0.954143    0.823602   -0.155931
      9          8           0       -0.974751    2.013978   -0.304582
     10          1           0        2.574516   -0.649540   -1.729327
     11          1           0        3.667828   -0.043635   -0.479234
     12          1           0        2.634509   -1.436909   -0.145333
     13          1           0        1.586660    1.453231   -0.613771
     14          1           0        1.561985   -0.316809    1.932326
     15          1           0        0.889951    1.380387    1.755711
     16          1           0        0.032941   -1.885125   -0.957713
     17          1           0        0.107926   -2.161913    0.786570
     18          1           0       -2.336121   -1.959672   -0.595904
     19          1           0       -2.169923   -1.475381    1.106088
 ---------------------------------------------------------------------

 SCF Done:  E(RB3LYP) =  -423.231143085     A.U. after    1 cycles

 The electronic state is 1-A.
 Alpha  occ. eigenvalues --  -19.17641 -19.11529 -10.29586 -10.24943 -10.21057
 Alpha  occ. eigenvalues --  -10.20513 -10.20400 -10.19888 -10.18874  -1.09393
 Alpha  occ. eigenvalues --   -1.01418  -0.88194  -0.77471  -0.72608  -0.69146
 Alpha  occ. eigenvalues --   -0.61332  -0.58360  -0.54346  -0.51218  -0.49444
 Alpha  occ. eigenvalues --   -0.47609  -0.44293  -0.43017  -0.42191  -0.40922
 Alpha  occ. eigenvalues --   -0.40309  -0.39359  -0.38311  -0.35934  -0.34756
 Alpha  occ. eigenvalues --   -0.29914  -0.28966  -0.28350  -0.26232
 Alpha virt. eigenvalues --    0.01514   0.07950   0.09497   0.09776   0.11222
 Alpha virt. eigenvalues --    0.12228   0.14074   0.14748   0.16082   0.16540
 Alpha virt. eigenvalues --    0.16990   0.17771   0.19063   0.21490   0.23003

 Mulliken charges:
               1
     1  C   -0.414625
     2  C   -0.035432
     3  C   -0.328098
     4  C    0.163915
     5  C   -0.338075
     6  C   -0.085938
     7  O   -0.229307
     8  C    0.419264
     9  O   -0.363549
    10  H    0.124568
    11  H    0.127306
    12  H    0.115370
    13  H    0.115340
    14  H    0.113865
    15  H    0.136546
    16  H    0.119345
    17  H    0.115410
    18  H    0.125085
    19  H    0.119008
 Sum of Mulliken charges =   0.00000

 Dipole moment (field-independent basis, Debye):
    X=              1.8577    Y=             -3.8439    Z=              0.8421  Tot=              4.3515
 Quadrupole moment (field-independent basis, Debye-Ang):
   XX=            -54.4543   YY=            -56.5524   ZZ=            -51.4381
   XY=              5.3930   XZ=             -1.4124   YZ=              1.0400

  Exact polarizability:  84.721   3.881  77.977   0.083   0.137  64.578
 Approx polarizability: 112.363   4.858 119.521   2.649  -2.348  98.709

                      1                      2                      3
                      A                      A                      A
 Frequencies --     77.2416               150.7920               175.4091
 Red. masses --      2.7574                 3.2988                 3.0062
 Frc consts  --      0.0097                 0.0442                 0.0545
 IR Inten    --      0.3962                 2.8645                 1.9805

                      4                      5                      6
                      A                      A                      A
 Frequencies --    189.0525               198.2686               291.7358
 Red. masses --      3.3147                 1.0667                 3.3397
 Frc consts  --      0.0698                 0.0247                 0.1675
 IR Inten    --      0.5394                 0.0470                 4.1653

                      7                      8                      9
                      A                      A                      A
 Frequencies --    355.2067               418.6688               524.0849
 Red. masses --      2.7463                 2.1523                 3.5635
 Frc consts  --      0.2042                 0.2223                 0.5767
 IR Inten    --      2.0164                 0.8011                 2.5009

                     10                     11                     12
                      A                      A                      A
 Frequencies --    565.4303               680.5587               717.6062
 Red. masses --      6.3255                 3.0311                 5.9998
 Frc consts  --      1.1915                 0.8272                 1.8204
 IR Inten    --      3.3343                 1.5808                 1.1882

                     13                     14                     15
                      A                      A                      A
 Frequencies --    728.7524               808.3528               863.9735
 Red. masses --      5.1746                 2.4548                 1.6610
 Frc consts  --      1.6191                 0.9451                 0.7305
 IR Inten    --      8.9182                 7.1906                 0.4816

                     16                     17                     18
                      A                      A                      A
 Frequencies --    895.5222               916.5493               939.5699
 Red. masses --      1.5532                 1.9682                 2.0720
 Frc consts  --      0.7339                 0.9742                 1.0777
 IR Inten    --      1.8015                 5.7497                 6.2022

                     19                     20                     21
                      A                      A                      A
 Frequencies --    973.5987              1026.5013              1034.4673
 Red. masses --      2.2210                 1.6790                 1.5181
 Frc consts  --      1.2404                 1.0424                 0.9572
 IR Inten    --      0.9051                 4.5001                11.8707

                     22                     23                     24
                      A                      A                      A
 Frequencies --   1061.3713              1078.3147              1115.6967
 Red. masses --      6.4232                 1.5006                 2.0267
 Frc consts  --      4.2632                 1.0280                 1.4864
 IR Inten    --     80.0972                 1.3761                76.0994

                     25                     26                     27
                      A                      A                      A
 Frequencies --   1129.6351              1154.2030              1193.0109
 Red. masses --      2.0744                 1.9661                 1.5671
 Frc consts  --      1.5596                 1.5432                 1.3142
 IR Inten    --     37.3348                74.3878                 0.8774

                     28                     29                     30
                      A                      A                      A
 Frequencies --   1211.9484              1242.0675              1276.9520
 Red. masses --      1.4996                 1.1956                 1.8891
 Frc consts  --      1.2977                 1.0868                 1.8149
 IR Inten    --     41.5883                25.9798                45.6894

                     31                     32                     33
                      A                      A                      A
 Frequencies --   1310.7439              1342.1867              1400.2540
 Red. masses --      1.8068                 1.6008                 1.3922
 Frc consts  --      1.8289                 1.6991                 1.6083
 IR Inten    --     14.0039                 0.5468                10.4256

                     34                     35                     36
                      A                      A                      A
 Frequencies --   1411.6776              1429.2667              1480.4274
 Red. masses --      1.3498                 1.6398                 1.4096
 Frc consts  --      1.5848                 1.9736                 1.8202
 IR Inten    --     27.4792                19.8063                 8.3033

                     37                     38                     39
                      A                      A                      A
 Frequencies --   1489.4846              1497.5487              1505.3021
 Red. masses --      1.0624                 1.0901                 1.1298
 Frc consts  --      1.3887                 1.4403                 1.5083
 IR Inten    --      5.7837                 3.1170                 6.4472

                     40                     41                     42
                      A                      A                      A
 Frequencies --   1524.3976              1865.4932              3031.8104
 Red. masses --      1.0921                12.6422                 1.0356
 Frc consts  --      1.4953                25.9215                 5.6084
 IR Inten    --      0.4725               304.9375                22.0338

                     43                     44                     45
                      A                      A                      A
 Frequencies --   3041.0659              3047.1914              3095.8089
 Red. masses --      1.0674                 1.0633                 1.1011
 Frc consts  --      5.8159                 5.8170                 6.2178
 IR Inten    --     43.8112                24.2169                18.8195

                     46                     47                     48
                      A                      A                      A
 Frequencies --   3099.3950              3101.7899              3114.2828
 Red. masses --      1.0988                 1.0985                 1.1041
 Frc consts  --      6.2192                 6.2267                 6.3090
 IR Inten    --      1.6564                32.1082                29.6449

                     49                     50                     51
                      A                      A                      A
 Frequencies --   3127.3122              3151.6825              3221.9765
 Red. masses --      1.0543                 1.0877                 1.1169
 Frc consts  --      6.0749                 6.3659                 6.8314
 IR Inten    --     11.5157                 7.8582                 3.9249

 - Thermochemistry -
 -------------------
 Temperature   298.150 Kelvin.  Pressure   1.00000 Atm.
 Atom     1 has atomic number  6 and mass  12.00000

 Molecular mass:   126.06808 amu.
 Principal axes and moments of inertia in atomic units:
                           1         2         3
     Eigenvalues --   679.000541255.656321634.66100
           X            0.99952   0.02756  -0.01406
           Y           -0.02732   0.99949   0.01671
           Z            0.01452  -0.01631   0.99976
 This molecule is an asymmetric top.
 Rotational symmetry number  1.
 Warning -- assumption of classical behavior for rotation
           may cause significant error
 Rotational temperatures (Kelvin)      0.12756     0.06898     0.05299
 Rotational constants (GHZ):           2.65794     1.43729     1.10405
 Zero-point vibrational energy     420389.5 (Joules/Mol)
                                  100.47551 (Kcal/Mol)
 Warning -- explicit consideration of  10 degrees of freedom as
           vibrations may cause significant error
 Vibrational temperatures:    111.13   216.96   252.37   272.00   285.26
          (Kelvin)            419.74   511.06   602.37   754.04   813.53
                              979.17  1032.47  1048.51  1163.04  1243.06
                             1288.46  1318.71  1351.83  1400.79  1476.90
                             1488.37  1527.07  1551.45  1605.24  1625.29
                             1660.64  1716.47  1743.72  1787.06  1837.25
                             1885.87  1931.10  2014.65  2031.09  2056.39
                             2130.00  2143.03  2154.64  2165.79  2193.27
                             2684.03  4362.09  4375.41  4384.22  4454.17
                             4459.33  4462.78  4480.75  4499.50  4534.56
                             4635.70

 Zero-point correction=                           0.160118 (Hartree/Particle)
 Thermal correction to Energy=                    0.168551
 Thermal correction to Enthalpy=                  0.169495
 Thermal correction to Gibbs Free Energy=         0.126895
 Sum of electronic and zero-point Energies=           -423.071025
 Sum of electronic and thermal Energies=              -423.062592
 Sum of electronic and thermal Enthalpies=            -423.061648
 Sum of electronic and thermal Free Energies=         -423.104248

                     E (Thermal)             CV                S
                      KCal/Mol        Cal/Mol-Kelvin    Cal/Mol-Kelvin
 Total                  105.767             31.629             89.660
 Electronic               0.000              0.000              0.000
 Translational            0.889              2.981             40.409
 Rotational               0.889              2.981             28.723
 Vibrational            103.990             25.668             20.528
 Vibration     1          0.599              1.964              3.960
 Vibration     2          0.618              1.902              2.662
 Vibration     3          0.627              1.873              2.377
 Vibration     4          0.633              1.855              2.237
 Vibration     5          0.637              1.842              2.149
 Vibration     6          0.687              1.689              1.464
 Vibration     7          0.731              1.565              1.143
 Vibration     8          0.782              1.430              0.897
 Vibration     9          0.879              1.197              0.601
 Vibration    10          0.921              1.106              0.513

 Optimization completed.
    -- Stationary point found.
 Normal termination of Gaussian 09 at Tue Jan 28 02:43:34 2020.
