 Gaussian 09, Revision D.01,
 Gaussian 09:  ES64L-G09RevD.01 24-Apr-2013

 -----------------------------
 # b3lyp 6-31G(2df,p) opt Freq
 -----------------------------

 -----
 titel
 -----
 Symbolic Z-matrix:
 Charge =  0 Multiplicity = 1

 SCF Done:  E(RB3LYP) =  -423.098711867     A.U. after   13 cycles
 Optimization completed.
    -- Stationary point found.
 Normal termination of Gaussian 09 at Tue Jan 28 08:10:47 2020.

 ----------------------------------------------------------------------
 #N Geom=AllCheck Guess=TCheck SCRF=Check GenChk RB3LYP/6-31G(2df,p) Fr
 eq
 ----------------------------------------------------------------------

 Structure from the checkpoint file:  "/scratch/puck/g09_7823031b-d272-46ed-a1f3-158fba574e9f/Gau-55022.chk"
 -----
 titel
 -----
 Charge =  0 Multiplicity = 1

                         Standard orientation:
 ---------------------------------------------------------------------
 Center     Atomic      Atomic             Coordinates (Angstroms)
 Number     Number       Type             X           Y           Z
 ---------------------------------------------------------------------
      1          8           0        1.797147   -1.409132   -0.554685
      2          6           0        1.379396   -0.600879    0.529716
      3          6           0        1.740927    0.949850    0.325984
      4          8           0        0.582389    1.670957   -0.162722
      5          6           0       -0.257375    0.588922   -0.562438
      6          6           0       -1.755012    0.334516   -0.716246
      7          6           0       -2.517321   -0.022331    0.528786
      8          6           0       -1.488784   -1.006209    0.043632
      9          6           0       -0.127744   -0.427304    0.540916
     10          1           0        2.754413   -1.344459   -0.629396
     11          1           0        1.806422   -0.968265    1.472554
     12          1           0        2.061286    1.417592    1.262709
     13          1           0        2.560280    1.018176   -0.403049
     14          1           0        0.175964    0.150547   -1.472887
     15          1           0       -2.274244    0.462038   -1.658560
     16          1           0       -2.364716    0.503868    1.467987
     17          1           0       -3.554469   -0.284352    0.340834
     18          1           0       -1.717573   -2.010457   -0.285202
     19          1           0       -0.328169    0.061327    1.502166
 ---------------------------------------------------------------------

 SCF Done:  E(RB3LYP) =  -423.098711866     A.U. after    1 cycles

 The electronic state is 1-A.
 Alpha  occ. eigenvalues --  -19.14153 -19.12987 -10.24298 -10.22798 -10.22143
 Alpha  occ. eigenvalues --  -10.20561 -10.19762 -10.19188 -10.18082  -1.03439
 Alpha  occ. eigenvalues --   -1.01379  -0.89450  -0.76290  -0.71519  -0.63537
 Alpha  occ. eigenvalues --   -0.61579  -0.57466  -0.54366  -0.51535  -0.50466
 Alpha  occ. eigenvalues --   -0.47846  -0.44584  -0.43967  -0.41547  -0.40069
 Alpha  occ. eigenvalues --   -0.37219  -0.36634  -0.35247  -0.33068  -0.30193
 Alpha  occ. eigenvalues --   -0.29278  -0.26903  -0.25429  -0.23879
 Alpha virt. eigenvalues --    0.06720   0.08402   0.09815   0.11064   0.11674
 Alpha virt. eigenvalues --    0.12654   0.14253   0.15947   0.16768   0.16835
 Alpha virt. eigenvalues --    0.17475   0.18693   0.20144   0.21140   0.22531

 Mulliken charges:
               1
     1  O   -0.424725
     2  C   -0.038158
     3  C   -0.101381
     4  O   -0.303380
     5  C    0.197006
     6  C   -0.140582
     7  C   -0.283536
     8  C   -0.131262
     9  C    0.072593
    10  H    0.284132
    11  H    0.068071
    12  H    0.107896
    13  H    0.091691
    14  H    0.090775
    15  H    0.092904
    16  H    0.114683
    17  H    0.114253
    18  H    0.102430
    19  H    0.086591
 Sum of Mulliken charges =   0.00000

 Dipole moment (field-independent basis, Debye):
    X=              0.7493    Y=             -1.0597    Z=              0.6568  Tot=              1.4546
 Quadrupole moment (field-independent basis, Debye-Ang):
   XX=            -43.1776   YY=            -59.6129   ZZ=            -52.0118
   XY=             -0.0144   XZ=              1.4107   YZ=              0.3558

  Exact polarizability:  94.101   2.057  65.884   1.490   1.051  67.124
 Approx polarizability: 121.624   1.143 105.216   1.603   0.356 105.419

                      1                      2                      3
                      A                      A                      A
 Frequencies --    135.9346               180.9181               229.5616
 Red. masses --      2.7791                 3.9706                 3.3424
 Frc consts  --      0.0303                 0.0766                 0.1038
 IR Inten    --      2.3110                 1.8785                 5.4486

                      4                      5                      6
                      A                      A                      A
 Frequencies --    258.5236               335.5007               403.6907
 Red. masses --      1.1237                 3.6287                 3.5313
 Frc consts  --      0.0442                 0.2406                 0.3391
 IR Inten    --    103.8191                 6.7431                 0.8345

                      7                      8                      9
                      A                      A                      A
 Frequencies --    420.9052               553.3720               571.6879
 Red. masses --      2.9033                 2.8692                 4.2153
 Frc consts  --      0.3030                 0.5177                 0.8117
 IR Inten    --      1.8286                 5.7374                 4.5696

                     10                     11                     12
                      A                      A                      A
 Frequencies --    668.8797               734.6847               754.1730
 Red. masses --      4.3113                 2.9304                 2.6823
 Frc consts  --      1.1365                 0.9319                 0.8989
 IR Inten    --      0.8467                16.8089                 4.6139

                     13                     14                     15
                      A                      A                      A
 Frequencies --    793.8285               843.3828               861.4294
 Red. masses --      3.4482                 2.7067                 1.8957
 Frc consts  --      1.2802                 1.1343                 0.8288
 IR Inten    --     11.0952                 5.4194                14.6882

                     16                     17                     18
                      A                      A                      A
 Frequencies --    894.5184               945.9069               968.3459
 Red. masses --      2.0847                 3.4285                 2.3718
 Frc consts  --      0.9828                 1.8074                 1.3104
 IR Inten    --     37.2147                71.1294                26.6464

                     19                     20                     21
                      A                      A                      A
 Frequencies --    983.0112              1013.2622              1046.0229
 Red. masses --      1.9401                 1.9612                 1.4410
 Frc consts  --      1.1046                 1.1864                 0.9290
 IR Inten    --      2.5124                 3.5459                19.3303

                     22                     23                     24
                      A                      A                      A
 Frequencies --   1053.1398              1067.4424              1101.0861
 Red. masses --      1.7551                 2.2870                 1.3381
 Frc consts  --      1.1469                 1.5354                 0.9558
 IR Inten    --      4.3776                50.3808                 1.7204

                     25                     26                     27
                      A                      A                      A
 Frequencies --   1106.6477              1126.2703              1164.0539
 Red. masses --      2.3775                 1.9179                 1.8233
 Frc consts  --      1.7155                 1.4334                 1.4556
 IR Inten    --     17.4700                20.9019                20.4381

                     28                     29                     30
                      A                      A                      A
 Frequencies --   1178.2884              1195.3776              1220.3437
 Red. masses --      2.0175                 1.9593                 1.1653
 Frc consts  --      1.6503                 1.6495                 1.0225
 IR Inten    --     36.5622                34.2494                22.5336

                     31                     32                     33
                      A                      A                      A
 Frequencies --   1243.2203              1248.8378              1299.8246
 Red. masses --      1.4855                 1.6101                 1.2737
 Frc consts  --      1.3527                 1.4795                 1.2679
 IR Inten    --      2.7085                15.1128                16.2428

                     34                     35                     36
                      A                      A                      A
 Frequencies --   1321.8156              1339.5347              1361.7225
 Red. masses --      1.7655                 1.3532                 1.5511
 Frc consts  --      1.8174                 1.4306                 1.6946
 IR Inten    --      1.4223                 1.3685                10.0455

                     37                     38                     39
                      A                      A                      A
 Frequencies --   1432.2999              1437.2604              1462.9190
 Red. masses --      1.4875                 1.2423                 1.1673
 Frc consts  --      1.7979                 1.5120                 1.4718
 IR Inten    --      7.7198                10.1989                15.0762

                     40                     41                     42
                      A                      A                      A
 Frequencies --   1490.7223              1498.6836              2995.8430
 Red. masses --      1.1163                 1.1754                 1.0809
 Frc consts  --      1.4615                 1.5554                 5.7158
 IR Inten    --      1.5385                 6.7862                19.0460

                     43                     44                     45
                      A                      A                      A
 Frequencies --   3003.3689              3009.0281              3028.0101
 Red. masses --      1.0732                 1.0758                 1.0836
 Frc consts  --      5.7038                 5.7391                 5.8536
 IR Inten    --     34.7886                69.3269                44.5128

                     46                     47                     48
                      A                      A                      A
 Frequencies --   3075.4378              3107.6084              3179.2452
 Red. masses --      1.1019                 1.0565                 1.0952
 Frc consts  --      6.1407                 6.0116                 6.5222
 IR Inten    --     45.7528                22.1521                12.1845

                     49                     50                     51
                      A                      A                      A
 Frequencies --   3192.1168              3213.6756              3817.8345
 Red. masses --      1.1082                 1.0952                 1.0662
 Frc consts  --      6.6531                 6.6641                 9.1567
 IR Inten    --     13.3259                15.8495                19.9173

 - Thermochemistry -
 -------------------
 Temperature   298.150 Kelvin.  Pressure   1.00000 Atm.
 Atom     1 has atomic number  8 and mass  15.99491

 Molecular mass:   126.06808 amu.
 Principal axes and moments of inertia in atomic units:
                           1         2         3
     Eigenvalues --   580.815951236.202331526.00396
           X            0.99991   0.01235   0.00502
           Y           -0.01242   0.99983   0.01371
           Z           -0.00485  -0.01377   0.99989
 This molecule is an asymmetric top.
 Rotational symmetry number  1.
 Warning -- assumption of classical behavior for rotation
           may cause significant error
 Rotational temperatures (Kelvin)      0.14912     0.07006     0.05676
 Rotational constants (GHZ):           3.10725     1.45991     1.18266
 Zero-point vibrational energy     422097.5 (Joules/Mol)
                                  100.88373 (Kcal/Mol)
 Warning -- explicit consideration of   9 degrees of freedom as
           vibrations may cause significant error
 Vibrational temperatures:    195.58   260.30   330.29   371.96   482.71
          (Kelvin)            580.82   605.59   796.18   822.53   962.37
                             1057.05  1085.09  1142.14  1213.44  1239.40
                             1287.01  1360.95  1393.23  1414.33  1457.86
                             1504.99  1515.23  1535.81  1584.22  1592.22
                             1620.45  1674.81  1695.29  1719.88  1755.80
                             1788.71  1796.80  1870.16  1901.80  1927.29
                             1959.21  2060.76  2067.89  2104.81  2144.81
                             2156.27  4310.34  4321.17  4329.31  4356.63
                             4424.86  4471.15  4574.22  4592.74  4623.76
                             5493.01

 Zero-point correction=                           0.160768 (Hartree/Particle)
 Thermal correction to Energy=                    0.168258
 Thermal correction to Enthalpy=                  0.169203
 Thermal correction to Gibbs Free Energy=         0.129049
 Sum of electronic and zero-point Energies=           -422.937943
 Sum of electronic and thermal Energies=              -422.930453
 Sum of electronic and thermal Enthalpies=            -422.929509
 Sum of electronic and thermal Free Energies=         -422.969663

                     E (Thermal)             CV                S
                      KCal/Mol        Cal/Mol-Kelvin    Cal/Mol-Kelvin
 Total                  105.584             30.245             84.511
 Electronic               0.000              0.000              0.000
 Translational            0.889              2.981             40.409
 Rotational               0.889              2.981             28.484
 Vibrational            103.806             24.283             15.618
 Vibration     1          0.614              1.917              2.860
 Vibration     2          0.630              1.866              2.319
 Vibration     3          0.652              1.796              1.882
 Vibration     4          0.667              1.748              1.672
 Vibration     5          0.717              1.605              1.233
 Vibration     6          0.769              1.462              0.949
 Vibration     7          0.783              1.425              0.889
 Vibration     8          0.909              1.132              0.537
 Vibration     9          0.928              1.092              0.501

 Optimization completed.
    -- Stationary point found.
 Normal termination of Gaussian 09 at Tue Jan 28 08:58:43 2020.
