 Gaussian 09, Revision D.01,
 Gaussian 09:  ES64L-G09RevD.01 24-Apr-2013

 -----------------------------
 # b3lyp 6-31G(2df,p) opt Freq
 -----------------------------

 -----
 titel
 -----
 Symbolic Z-matrix:
 Charge =  0 Multiplicity = 1

 SCF Done:  E(RB3LYP) =  -423.149733929     A.U. after   14 cycles
 Optimization completed.
    -- Stationary point found.
 Normal termination of Gaussian 09 at Mon Jan 27 15:35:51 2020.

 ----------------------------------------------------------------------
 #N Geom=AllCheck Guess=TCheck SCRF=Check GenChk RB3LYP/6-31G(2df,p) Fr
 eq
 ----------------------------------------------------------------------

 Structure from the checkpoint file:  "/scratch/puck/g09_7159f953-d907-4e47-83d8-8577c3bc3569/Gau-55397.chk"
 -----
 titel
 -----
 Charge =  0 Multiplicity = 1

                         Standard orientation:
 ---------------------------------------------------------------------
 Center     Atomic      Atomic             Coordinates (Angstroms)
 Number     Number       Type             X           Y           Z
 ---------------------------------------------------------------------
      1          6           0       -2.356231   -0.035417   -1.126512
      2          6           0       -1.405161    0.289556    0.019270
      3          8           0       -2.162378    0.168905    1.222126
      4          6           0       -0.210123   -0.656329    0.053775
      5          6           0        0.980815   -0.494037   -0.960593
      6          6           0        1.821805   -1.329314    0.064887
      7          6           0        1.023428   -0.341557    0.981969
      8          6           0        1.392569    0.704194   -0.085885
      9          8           0        1.796510    1.820841   -0.180929
     10          1           0       -1.854298    0.071894   -2.092277
     11          1           0       -2.725193   -1.062082   -1.035028
     12          1           0       -3.215759    0.639094   -1.102601
     13          1           0       -1.046750    1.325072   -0.098706
     14          1           0       -1.603637    0.445358    1.955511
     15          1           0       -0.543907   -1.694744    0.150713
     16          1           0        0.958980   -0.593859   -2.043488
     17          1           0        1.515295   -2.373729    0.153175
     18          1           0        2.907248   -1.222196    0.033483
     19          1           0        1.052354   -0.275345    2.068167
 ---------------------------------------------------------------------

 SCF Done:  E(RB3LYP) =  -423.149733929     A.U. after    1 cycles

 The electronic state is 1-A.
 Alpha  occ. eigenvalues --  -19.13974 -19.13833 -10.27868 -10.23792 -10.21671
 Alpha  occ. eigenvalues --  -10.21628 -10.21587 -10.21397 -10.17793  -1.05315
 Alpha  occ. eigenvalues --   -1.02078  -0.92817  -0.76662  -0.68343  -0.65493
 Alpha  occ. eigenvalues --   -0.64212  -0.59560  -0.52414  -0.52136  -0.50092
 Alpha  occ. eigenvalues --   -0.46239  -0.43889  -0.42778  -0.41626  -0.40167
 Alpha  occ. eigenvalues --   -0.38639  -0.36784  -0.35555  -0.35278  -0.34508
 Alpha  occ. eigenvalues --   -0.33380  -0.32015  -0.27041  -0.24673
 Alpha virt. eigenvalues --    0.00804   0.06473   0.09605   0.10497   0.12202
 Alpha virt. eigenvalues --    0.12484   0.13334   0.14533   0.15182   0.16093
 Alpha virt. eigenvalues --    0.16442   0.17073   0.18184   0.19132   0.20313

 Mulliken charges:
               1
     1  C   -0.383649
     2  C    0.065664
     3  O   -0.431670
     4  C    0.027665
     5  C   -0.188230
     6  C   -0.242508
     7  C   -0.202618
     8  C    0.446374
     9  O   -0.330194
    10  H    0.118289
    11  H    0.122774
    12  H    0.128401
    13  H    0.084998
    14  H    0.284184
    15  H    0.084933
    16  H    0.095824
    17  H    0.113039
    18  H    0.116964
    19  H    0.089759
 Sum of Mulliken charges =   0.00000

 Dipole moment (field-independent basis, Debye):
    X=              0.1963    Y=             -2.3072    Z=              0.1492  Tot=              2.3203
 Quadrupole moment (field-independent basis, Debye-Ang):
   XX=            -59.3396   YY=            -57.2559   ZZ=            -49.6631
   XY=             -5.9373   XZ=              2.5168   YZ=              1.5158

  Exact polarizability:  82.283   0.237  73.685   1.652  -0.006  71.537
 Approx polarizability: 110.542   6.771 119.836  -0.969  -0.876 109.700

                      1                      2                      3
                      A                      A                      A
 Frequencies --     62.0587               123.1602               158.8376
 Red. masses --      3.3965                 7.5668                 3.1368
 Frc consts  --      0.0077                 0.0676                 0.0466
 IR Inten    --      2.5055                 2.5205                 0.2349

                      4                      5                      6
                      A                      A                      A
 Frequencies --    214.7771               263.8475               292.2524
 Red. masses --      1.1205                 2.8371                 1.1087
 Frc consts  --      0.0305                 0.1164                 0.0558
 IR Inten    --      2.5509                14.6553                83.6512

                      7                      8                      9
                      A                      A                      A
 Frequencies --    324.7127               426.7804               454.0858
 Red. masses --      3.6712                 3.1217                 4.1262
 Frc consts  --      0.2281                 0.3350                 0.5013
 IR Inten    --      2.8713                 2.7450                 1.0622

                     10                     11                     12
                      A                      A                      A
 Frequencies --    486.2637               527.6113               688.9565
 Red. masses --      3.1373                 2.9767                 3.5727
 Frc consts  --      0.4371                 0.4882                 0.9991
 IR Inten    --     11.0333                 2.5658                 2.3322

                     13                     14                     15
                      A                      A                      A
 Frequencies --    766.0222               793.8317               806.9327
 Red. masses --      4.1135                 3.6240                 4.1428
 Frc consts  --      1.4222                 1.3455                 1.5893
 IR Inten    --      2.0416                 5.1948                 8.5009

                     16                     17                     18
                      A                      A                      A
 Frequencies --    881.7841               898.5137               911.2606
 Red. masses --      2.1485                 2.2409                 2.6285
 Frc consts  --      0.9843                 1.0659                 1.2860
 IR Inten    --      1.3470                 3.8193                 7.2827

                     19                     20                     21
                      A                      A                      A
 Frequencies --    945.2131               981.2155              1024.2926
 Red. masses --      1.5008                 1.7345                 1.3329
 Frc consts  --      0.7900                 0.9839                 0.8240
 IR Inten    --     19.8691                15.5745                 7.2194

                     22                     23                     24
                      A                      A                      A
 Frequencies --   1039.9370              1049.0672              1065.8986
 Red. masses --      1.2220                 1.7842                 1.6557
 Frc consts  --      0.7786                 1.1569                 1.1083
 IR Inten    --      5.3512                32.4737                 7.6225

                     25                     26                     27
                      A                      A                      A
 Frequencies --   1098.2952              1108.1741              1131.3954
 Red. masses --      1.5644                 3.6858                 2.6131
 Frc consts  --      1.1118                 2.6668                 1.9708
 IR Inten    --      0.1735                 2.3035                25.8614

                     28                     29                     30
                      A                      A                      A
 Frequencies --   1183.4503              1188.7700              1204.6595
 Red. masses --      1.5490                 1.9850                 1.7755
 Frc consts  --      1.2782                 1.6528                 1.5181
 IR Inten    --      2.8633                 8.1016                 5.5506

                     31                     32                     33
                      A                      A                      A
 Frequencies --   1225.0032              1244.9235              1279.3156
 Red. masses --      1.7202                 1.7742                 1.1872
 Frc consts  --      1.5209                 1.6201                 1.1448
 IR Inten    --      4.0600                 1.7380                78.0081

                     34                     35                     36
                      A                      A                      A
 Frequencies --   1323.3560              1392.4798              1419.0882
 Red. masses --      1.2675                 1.2190                 1.2953
 Frc consts  --      1.3078                 1.3927                 1.5369
 IR Inten    --      7.3478                 3.0786                 8.4140

                     37                     38                     39
                      A                      A                      A
 Frequencies --   1430.9376              1483.0429              1499.6186
 Red. masses --      1.5812                 1.0558                 1.0577
 Frc consts  --      1.9076                 1.3682                 1.4014
 IR Inten    --     18.4932                 4.2175                 1.4468

                     40                     41                     42
                      A                      A                      A
 Frequencies --   1516.4771              1915.7628              2974.4678
 Red. masses --      1.1112                12.0179                 1.0827
 Frc consts  --      1.5057                25.9874                 5.6440
 IR Inten    --      0.0748               354.5832                27.9768

                     43                     44                     45
                      A                      A                      A
 Frequencies --   3042.8429              3062.7886              3068.7385
 Red. masses --      1.0355                 1.0842                 1.0536
 Frc consts  --      5.6486                 5.9925                 5.8457
 IR Inten    --     12.1868                22.6285                30.7207

                     46                     47                     48
                      A                      A                      A
 Frequencies --   3115.9833              3126.1542              3136.3133
 Red. masses --      1.1013                 1.1020                 1.0926
 Frc consts  --      6.2999                 6.3456                 6.3320
 IR Inten    --     21.7671                18.5532                32.0249

                     49                     50                     51
                      A                      A                      A
 Frequencies --   3141.2556              3148.3583              3818.2490
 Red. masses --      1.1126                 1.0940                 1.0662
 Frc consts  --      6.4683                 6.3892                 9.1580
 IR Inten    --     21.8287                14.7266                12.0147

 - Thermochemistry -
 -------------------
 Temperature   298.150 Kelvin.  Pressure   1.00000 Atm.
 Atom     1 has atomic number  6 and mass  12.00000

 Molecular mass:   126.06808 amu.
 Principal axes and moments of inertia in atomic units:
                           1         2         3
     Eigenvalues --   664.534891515.522051599.20223
           X            0.99896  -0.03564   0.02828
           Y            0.03468   0.99883   0.03379
           Z           -0.02945  -0.03277   0.99903
 This molecule is an asymmetric top.
 Rotational symmetry number  1.
 Warning -- assumption of classical behavior for rotation
           may cause significant error
 Rotational temperatures (Kelvin)      0.13034     0.05715     0.05416
 Rotational constants (GHZ):           2.71580     1.19084     1.12853
 Zero-point vibrational energy     415506.2 (Joules/Mol)
                                   99.30837 (Kcal/Mol)
 Warning -- explicit consideration of  11 degrees of freedom as
           vibrations may cause significant error
 Vibrational temperatures:     89.29   177.20   228.53   309.02   379.62
          (Kelvin)            420.49   467.19   614.04   653.33   699.62
                              759.11   991.25  1102.13  1142.15  1160.99
                             1268.69  1292.76  1311.10  1359.95  1411.75
                             1473.73  1496.24  1509.37  1533.59  1580.20
                             1594.41  1627.82  1702.72  1710.37  1733.23
                             1762.50  1791.16  1840.65  1904.01  2003.47
                             2041.75  2058.80  2133.77  2157.61  2181.87
                             2756.35  4279.59  4377.97  4406.66  4415.22
                             4483.20  4497.83  4512.45  4519.56  4529.78
                             5493.60

 Zero-point correction=                           0.158258 (Hartree/Particle)
 Thermal correction to Energy=                    0.166976
 Thermal correction to Enthalpy=                  0.167920
 Thermal correction to Gibbs Free Energy=         0.124659
 Sum of electronic and zero-point Energies=           -422.991476
 Sum of electronic and thermal Energies=              -422.982758
 Sum of electronic and thermal Enthalpies=            -422.981814
 Sum of electronic and thermal Free Energies=         -423.025075

                     E (Thermal)             CV                S
                      KCal/Mol        Cal/Mol-Kelvin    Cal/Mol-Kelvin
 Total                  104.779             33.043             91.050
 Electronic               0.000              0.000              0.000
 Translational            0.889              2.981             40.409
 Rotational               0.889              2.981             28.867
 Vibrational            103.001             27.081             21.774
 Vibration     1          0.597              1.972              4.391
 Vibration     2          0.610              1.930              3.050
 Vibration     3          0.621              1.893              2.564
 Vibration     4          0.645              1.818              2.003
 Vibration     5          0.670              1.739              1.636
 Vibration     6          0.688              1.688              1.461
 Vibration     7          0.709              1.626              1.286
 Vibration     8          0.788              1.412              0.869
 Vibration     9          0.813              1.352              0.784
 Vibration    10          0.842              1.281              0.693
 Vibration    11          0.883              1.189              0.593

 Optimization completed.
    -- Stationary point found.
 Normal termination of Gaussian 09 at Mon Jan 27 16:17:56 2020.
