 Gaussian 09, Revision D.01,
 Gaussian 09:  ES64L-G09RevD.01 24-Apr-2013

 -----------------------------
 # b3lyp 6-31G(2df,p) opt Freq
 -----------------------------

 -----
 titel
 -----
 Symbolic Z-matrix:
 Charge =  0 Multiplicity = 1

 SCF Done:  E(RB3LYP) =  -423.163049089     A.U. after   14 cycles
 Optimization completed.
    -- Stationary point found.
 Normal termination of Gaussian 09 at Mon Jan 27 16:52:55 2020.

 ----------------------------------------------------------------------
 #N Geom=AllCheck Guess=TCheck SCRF=Check GenChk RB3LYP/6-31G(2df,p) Fr
 eq
 ----------------------------------------------------------------------

 Structure from the checkpoint file:  "/scratch/puck/g09_1865a6d2-438e-4425-867c-30f2a72bdcef/Gau-166771.chk"
 -----
 titel
 -----
 Charge =  0 Multiplicity = 1

                         Standard orientation:
 ---------------------------------------------------------------------
 Center     Atomic      Atomic             Coordinates (Angstroms)
 Number     Number       Type             X           Y           Z
 ---------------------------------------------------------------------
      1          6           0       -0.382708    1.544670    0.853788
      2          6           0        0.074657    0.264613    0.148733
      3          8           0        0.931560    0.599654   -0.959313
      4          6           0        2.219402    0.007516   -0.804626
      5          6           0        2.146611   -0.753750    0.488747
      6          6           0        0.942789   -0.609792    1.026988
      7          6           0       -1.087019   -0.553882   -0.416907
      8          6           0       -2.422468   -0.022621   -0.708733
      9          8           0       -2.185701   -0.817553    0.458528
     10          1           0        0.460340    2.008643    1.371283
     11          1           0       -0.769356    2.259328    0.122561
     12          1           0       -1.166150    1.318875    1.582540
     13          1           0        2.438367   -0.643840   -1.665085
     14          1           0        2.993303    0.790996   -0.789232
     15          1           0        2.977907   -1.318747    0.891460
     16          1           0        0.578208   -1.036675    1.952206
     17          1           0       -0.749621   -1.420680   -0.986991
     18          1           0       -2.651280    1.023210   -0.520324
     19          1           0       -3.026166   -0.498446   -1.480077
 ---------------------------------------------------------------------

 SCF Done:  E(RB3LYP) =  -423.163049089     A.U. after    1 cycles

 The electronic state is 1-A.
 Alpha  occ. eigenvalues --  -19.15089 -19.13651 -10.24389 -10.23353 -10.23297
 Alpha  occ. eigenvalues --  -10.23152 -10.19074 -10.18635 -10.17312  -1.06997
 Alpha  occ. eigenvalues --   -1.03400  -0.79475  -0.77443  -0.68283  -0.66865
 Alpha  occ. eigenvalues --   -0.63665  -0.57187  -0.55186  -0.51699  -0.49177
 Alpha  occ. eigenvalues --   -0.48390  -0.44852  -0.43564  -0.40556  -0.39736
 Alpha  occ. eigenvalues --   -0.39001  -0.37974  -0.36552  -0.35255  -0.32678
 Alpha  occ. eigenvalues --   -0.30210  -0.27921  -0.26920  -0.23637
 Alpha virt. eigenvalues --    0.01174   0.09310   0.10278   0.11383   0.11852
 Alpha virt. eigenvalues --    0.12784   0.14305   0.14873   0.16186   0.16660
 Alpha virt. eigenvalues --    0.17864   0.18356   0.18774   0.20047   0.21675

 Mulliken charges:
               1
     1  C   -0.442119
     2  C    0.315085
     3  O   -0.308201
     4  C   -0.131635
     5  C   -0.101491
     6  C   -0.117819
     7  C    0.073866
     8  C   -0.187440
     9  O   -0.242184
    10  H    0.118227
    11  H    0.125576
    12  H    0.133409
    13  H    0.106685
    14  H    0.106868
    15  H    0.108623
    16  H    0.117297
    17  H    0.091566
    18  H    0.117317
    19  H    0.116369
 Sum of Mulliken charges =   0.00000

 Dipole moment (field-independent basis, Debye):
    X=              1.1700    Y=             -0.0035    Z=             -0.1597  Tot=              1.1809
 Quadrupole moment (field-independent basis, Debye-Ang):
   XX=            -49.9341   YY=            -53.5927   ZZ=            -53.2923
   XY=             -4.0322   XZ=              3.4826   YZ=              1.8075

  Exact polarizability:  97.979  -6.350  65.415  -2.730   0.184  67.733
 Approx polarizability: 135.559  -8.154  95.469 -11.257  -3.999 105.310

                      1                      2                      3
                      A                      A                      A
 Frequencies --     67.4231                86.8958               192.6952
 Red. masses --      3.9294                 2.9932                 3.3128
 Frc consts  --      0.0105                 0.0133                 0.0725
 IR Inten    --      2.6748                 1.9158                 6.1898

                      4                      5                      6
                      A                      A                      A
 Frequencies --    222.8583               258.4156               300.8539
 Red. masses --      1.2283                 2.2350                 2.2681
 Frc consts  --      0.0359                 0.0879                 0.1210
 IR Inten    --      0.7403                 4.4255                 1.3517

                      7                      8                      9
                      A                      A                      A
 Frequencies --    343.6540               384.8765               464.0343
 Red. masses --      4.1629                 3.3376                 3.4019
 Frc consts  --      0.2897                 0.2913                 0.4316
 IR Inten    --      3.0931                 1.8714                 0.2717

                     10                     11                     12
                      A                      A                      A
 Frequencies --    517.4433               659.2147               742.3905
 Red. masses --      2.5963                 2.9026                 1.3810
 Frc consts  --      0.4096                 0.7432                 0.4485
 IR Inten    --      0.5819                 0.6961                28.4512

                     13                     14                     15
                      A                      A                      A
 Frequencies --    774.8190               820.5251               859.3348
 Red. masses --      5.4674                 4.7953                 4.2699
 Frc consts  --      1.9339                 1.9022                 1.8578
 IR Inten    --      9.2631                 7.7384                15.5942

                     16                     17                     18
                      A                      A                      A
 Frequencies --    874.7381               901.8773               947.0889
 Red. masses --      2.3576                 2.2958                 2.4473
 Frc consts  --      1.0629                 1.1002                 1.2934
 IR Inten    --     11.2541                20.7115                19.8663

                     19                     20                     21
                      A                      A                      A
 Frequencies --    961.0104               968.8110               998.4372
 Red. masses --      1.4304                 1.7650                 1.7527
 Frc consts  --      0.7783                 0.9760                 1.0294
 IR Inten    --      0.7634                 1.9906                10.1393

                     22                     23                     24
                      A                      A                      A
 Frequencies --   1046.9476              1054.4791              1098.1768
 Red. masses --      1.6444                 1.8111                 1.1829
 Frc consts  --      1.0619                 1.1865                 0.8405
 IR Inten    --     10.8384                21.6753                 3.1217

                     25                     26                     27
                      A                      A                      A
 Frequencies --   1111.0694              1154.9263              1162.6728
 Red. masses --      2.5347                 1.4194                 1.9061
 Frc consts  --      1.8436                 1.1155                 1.5181
 IR Inten    --     99.4824                 1.9292                27.7569

                     28                     29                     30
                      A                      A                      A
 Frequencies --   1173.9131              1189.7821              1204.3580
 Red. masses --      1.3542                 1.2583                 2.4495
 Frc consts  --      1.0995                 1.0495                 2.0933
 IR Inten    --      0.9296                 0.7880                17.2920

                     31                     32                     33
                      A                      A                      A
 Frequencies --   1224.7919              1296.9670              1349.1086
 Red. masses --      2.2774                 1.5668                 1.6959
 Frc consts  --      2.0129                 1.5528                 1.8186
 IR Inten    --     11.0816                 6.5881                 5.1154

                     34                     35                     36
                      A                      A                      A
 Frequencies --   1378.4166              1389.4941              1427.1851
 Red. masses --      1.5251                 1.3393                 1.7472
 Frc consts  --      1.7073                 1.5235                 2.0967
 IR Inten    --      4.3987                 6.8961                 4.0822

                     37                     38                     39
                      A                      A                      A
 Frequencies --   1489.8883              1495.7615              1521.6375
 Red. masses --      1.0526                 1.1048                 1.0850
 Frc consts  --      1.3767                 1.4563                 1.4801
 IR Inten    --      3.6454                 4.9221                 1.7784

                     40                     41                     42
                      A                      A                      A
 Frequencies --   1528.1678              1692.1817              2976.5266
 Red. masses --      1.3011                 6.7162                 1.0558
 Frc consts  --      1.7903                11.3310                 5.5113
 IR Inten    --      1.5951                 1.4464                91.1168

                     43                     44                     45
                      A                      A                      A
 Frequencies --   2993.2717              3046.8233              3093.9684
 Red. masses --      1.1059                 1.0339                 1.0549
 Frc consts  --      5.8379                 5.6549                 5.9496
 IR Inten    --     42.2004                12.0461                26.2364

                     46                     47                     48
                      A                      A                      A
 Frequencies --   3103.6978              3124.5285              3129.1495
 Red. masses --      1.0848                 1.1023                 1.1024
 Frc consts  --      6.1570                 6.3402                 6.3595
 IR Inten    --     20.7450                21.4726                11.1579

                     49                     50                     51
                      A                      A                      A
 Frequencies --   3185.4450              3208.0665              3233.8947
 Red. masses --      1.1176                 1.0858                 1.1062
 Frc consts  --      6.6818                 6.5841                 6.8160
 IR Inten    --     21.6309                 3.0449                 6.3943

 - Thermochemistry -
 -------------------
 Temperature   298.150 Kelvin.  Pressure   1.00000 Atm.
 Atom     1 has atomic number  6 and mass  12.00000

 Molecular mass:   126.06808 amu.
 Principal axes and moments of inertia in atomic units:
                           1         2         3
     Eigenvalues --   547.491741490.859091522.83741
           X            0.99968  -0.02509  -0.00296
           Y            0.02319   0.86474   0.50169
           Z           -0.01002  -0.50160   0.86504
 This molecule is an asymmetric top.
 Rotational symmetry number  1.
 Warning -- assumption of classical behavior for rotation
           may cause significant error
 Rotational temperatures (Kelvin)      0.15820     0.05810     0.05688
 Rotational constants (GHZ):           3.29638     1.21054     1.18512
 Zero-point vibrational energy     415299.7 (Joules/Mol)
                                   99.25902 (Kcal/Mol)
 Warning -- explicit consideration of  10 degrees of freedom as
           vibrations may cause significant error
 Vibrational temperatures:     97.01   125.02   277.25   320.64   371.80
          (Kelvin)            432.86   494.44   553.75   667.64   744.48
                              948.46  1068.13  1114.79  1180.55  1236.39
                             1258.55  1297.60  1362.65  1382.68  1393.90
                             1436.53  1506.32  1517.16  1580.03  1598.58
                             1661.68  1672.82  1689.00  1711.83  1732.80
                             1762.20  1866.04  1941.06  1983.23  1999.17
                             2053.40  2143.61  2152.06  2189.29  2198.69
                             2434.67  4282.55  4306.64  4383.69  4451.52
                             4465.52  4495.49  4502.14  4583.14  4615.69
                             4652.85

 Zero-point correction=                           0.158179 (Hartree/Particle)
 Thermal correction to Energy=                    0.166728
 Thermal correction to Enthalpy=                  0.167672
 Thermal correction to Gibbs Free Energy=         0.124722
 Sum of electronic and zero-point Energies=           -423.004870
 Sum of electronic and thermal Energies=              -422.996321
 Sum of electronic and thermal Enthalpies=            -422.995377
 Sum of electronic and thermal Free Energies=         -423.038327

                     E (Thermal)             CV                S
                      KCal/Mol        Cal/Mol-Kelvin    Cal/Mol-Kelvin
 Total                  104.623             32.231             90.397
 Electronic               0.000              0.000              0.000
 Translational            0.889              2.981             40.409
 Rotational               0.889              2.981             28.610
 Vibrational            102.846             26.270             21.379
 Vibration     1          0.598              1.970              4.227
 Vibration     2          0.601              1.958              3.729
 Vibration     3          0.635              1.850              2.202
 Vibration     4          0.649              1.806              1.936
 Vibration     5          0.667              1.749              1.672
 Vibration     6          0.693              1.672              1.412
 Vibration     7          0.722              1.588              1.195
 Vibration     8          0.754              1.502              1.020
 Vibration     9          0.822              1.330              0.754
 Vibration    10          0.872              1.211              0.616

 Optimization completed.
    -- Stationary point found.
 Normal termination of Gaussian 09 at Mon Jan 27 17:34:52 2020.
