 Gaussian 09, Revision D.01,
 Gaussian 09:  ES64L-G09RevD.01 24-Apr-2013

 -----------------------------
 # b3lyp 6-31G(2df,p) opt Freq
 -----------------------------

 -----
 titel
 -----
 Symbolic Z-matrix:
 Charge =  0 Multiplicity = 1

 SCF Done:  E(RB3LYP) =  -423.169309662     A.U. after   14 cycles
 Optimization completed.
    -- Stationary point found.
 Normal termination of Gaussian 09 at Tue Jan 28 00:43:48 2020.

 ----------------------------------------------------------------------
 #N Geom=AllCheck Guess=TCheck SCRF=Check GenChk RB3LYP/6-31G(2df,p) Fr
 eq
 ----------------------------------------------------------------------

 Structure from the checkpoint file:  "/scratch/puck/g09_403bd90f-5a19-42c0-91e8-92c0306ef909/Gau-1002.chk"
 -----
 titel
 -----
 Charge =  0 Multiplicity = 1

                         Standard orientation:
 ---------------------------------------------------------------------
 Center     Atomic      Atomic             Coordinates (Angstroms)
 Number     Number       Type             X           Y           Z
 ---------------------------------------------------------------------
      1          6           0        3.056314   -0.331679    0.509796
      2          6           0        1.841272   -0.367894   -0.404992
      3          6           0        0.658342   -1.352161   -0.130612
      4          6           0       -0.375730   -0.218134   -0.434381
      5          6           0       -1.573126   -0.040777    0.456122
      6          6           0       -2.860168   -0.688757    0.163930
      7          8           0       -2.669124    0.705074   -0.073354
      8          6           0        0.808000    0.765078   -0.284048
      9          8           0        0.886288    1.921094    0.014606
     10          1           0        3.668123   -1.231607    0.393113
     11          1           0        3.680451    0.537754    0.283379
     12          1           0        2.754632   -0.259203    1.559758
     13          1           0        2.151310   -0.447547   -1.455156
     14          1           0        0.598863   -2.242611   -0.757184
     15          1           0        0.625980   -1.653606    0.920871
     16          1           0       -0.703551   -0.249630   -1.479498
     17          1           0       -1.345887    0.188821    1.498418
     18          1           0       -2.959123   -1.306912   -0.727860
     19          1           0       -3.537537   -0.938849    0.979253
 ---------------------------------------------------------------------

 SCF Done:  E(RB3LYP) =  -423.169309662     A.U. after    1 cycles

 The electronic state is 1-A.
 Alpha  occ. eigenvalues --  -19.15372 -19.13952 -10.26845 -10.24526 -10.23776
 Alpha  occ. eigenvalues --  -10.20299 -10.20242 -10.20153 -10.18634  -1.07486
 Alpha  occ. eigenvalues --   -1.04779  -0.85805  -0.75259  -0.68789  -0.65846
 Alpha  occ. eigenvalues --   -0.63141  -0.59459  -0.54350  -0.49653  -0.48779
 Alpha  occ. eigenvalues --   -0.46581  -0.44953  -0.43001  -0.42298  -0.40127
 Alpha  occ. eigenvalues --   -0.39421  -0.38724  -0.37078  -0.35297  -0.34202
 Alpha  occ. eigenvalues --   -0.33198  -0.31093  -0.27034  -0.23924
 Alpha virt. eigenvalues --   -0.02135   0.07858   0.10102   0.10575   0.10837
 Alpha virt. eigenvalues --    0.11742   0.13166   0.14045   0.15266   0.15971
 Alpha virt. eigenvalues --    0.16476   0.17058   0.18050   0.18552   0.19444

 Mulliken charges:
               1
     1  C   -0.407878
     2  C   -0.083354
     3  C   -0.280438
     4  C   -0.119000
     5  C    0.078403
     6  C   -0.183414
     7  O   -0.227179
     8  C    0.375119
     9  O   -0.297227
    10  H    0.120361
    11  H    0.137606
    12  H    0.121421
    13  H    0.104836
    14  H    0.111238
    15  H    0.112575
    16  H    0.109469
    17  H    0.098892
    18  H    0.111284
    19  H    0.117287
 Sum of Mulliken charges =   0.00000

 Dipole moment (field-independent basis, Debye):
    X=              0.8135    Y=             -4.0064    Z=             -0.1121  Tot=              4.0897
 Quadrupole moment (field-independent basis, Debye-Ang):
   XX=            -53.0143   YY=            -59.4123   ZZ=            -50.0279
   XY=              2.3987   XZ=             -1.9182   YZ=              0.3126

  Exact polarizability:  95.106   3.518  72.646   0.617   2.434  63.117
 Approx polarizability: 115.672   3.714 118.553   1.859   4.406  97.458

                      1                      2                      3
                      A                      A                      A
 Frequencies --     54.4812                65.5199               128.7706
 Red. masses --      4.2866                 3.2768                 3.9852
 Frc consts  --      0.0075                 0.0083                 0.0389
 IR Inten    --      0.7181                 0.4392                 0.5105

                      4                      5                      6
                      A                      A                      A
 Frequencies --    175.3993               201.6233               244.4541
 Red. masses --      1.0819                 3.6585                 3.0378
 Frc consts  --      0.0196                 0.0876                 0.1070
 IR Inten    --      0.8696                 2.9283                 5.9750

                      7                      8                      9
                      A                      A                      A
 Frequencies --    304.4019               342.9530               400.8240
 Red. masses --      3.4330                 2.4596                 5.1951
 Frc consts  --      0.1874                 0.1704                 0.4918
 IR Inten    --      0.1046                 0.6244                 5.2884

                     10                     11                     12
                      A                      A                      A
 Frequencies --    558.2003               571.3936               684.3768
 Red. masses --      3.4072                 3.0296                 2.5156
 Frc consts  --      0.6255                 0.5828                 0.6942
 IR Inten    --      3.1400                 1.3403                 4.0778

                     13                     14                     15
                      A                      A                      A
 Frequencies --    771.0831               812.5192               864.8349
 Red. masses --      2.1815                 3.3015                 6.6629
 Frc consts  --      0.7642                 1.2842                 2.9361
 IR Inten    --      3.8131                 4.3778                24.3196

                     16                     17                     18
                      A                      A                      A
 Frequencies --    872.9845               924.2810               937.5052
 Red. masses --      2.1442                 1.4638                 1.6509
 Frc consts  --      0.9628                 0.7368                 0.8549
 IR Inten    --      7.2159                 1.5321                 8.2952

                     19                     20                     21
                      A                      A                      A
 Frequencies --    957.2405               984.1075              1034.8284
 Red. masses --      3.0990                 1.7918                 1.4376
 Frc consts  --      1.6731                 1.0224                 0.9070
 IR Inten    --     47.8093                15.5269                 0.9800

                     22                     23                     24
                      A                      A                      A
 Frequencies --   1073.6158              1100.6789              1128.0834
 Red. masses --      2.2994                 1.4003                 2.1588
 Frc consts  --      1.5616                 0.9995                 1.6186
 IR Inten    --      3.8404                 3.8581                25.0181

                     25                     26                     27
                      A                      A                      A
 Frequencies --   1141.2945              1154.8689              1165.8971
 Red. masses --      1.8034                 1.4233                 1.3795
 Frc consts  --      1.3840                 1.1184                 1.1048
 IR Inten    --     10.3186                 2.6682                 2.2979

                     28                     29                     30
                      A                      A                      A
 Frequencies --   1187.9260              1225.0482              1236.2492
 Red. masses --      2.0429                 1.3413                 1.3702
 Frc consts  --      1.6985                 1.1860                 1.2338
 IR Inten    --      4.1081                 0.1953                 3.2016

                     31                     32                     33
                      A                      A                      A
 Frequencies --   1251.6454              1286.3682              1301.1592
 Red. masses --      1.3511                 2.0244                 1.4618
 Frc consts  --      1.2471                 1.9737                 1.4582
 IR Inten    --      5.7952                 6.1612                 3.2376

                     34                     35                     36
                      A                      A                      A
 Frequencies --   1343.6024              1408.6141              1444.9097
 Red. masses --      1.7253                 1.2256                 1.7956
 Frc consts  --      1.8351                 1.4328                 2.2087
 IR Inten    --      3.8589                 1.5855                25.9374

                     37                     38                     39
                      A                      A                      A
 Frequencies --   1488.9259              1493.6971              1495.3430
 Red. masses --      1.0918                 1.0484                 1.0537
 Frc consts  --      1.4261                 1.3782                 1.3882
 IR Inten    --      0.9376                 2.1860                 8.1374

                     40                     41                     42
                      A                      A                      A
 Frequencies --   1528.5221              1884.5202              3028.9473
 Red. masses --      1.3309                12.8029                 1.0821
 Frc consts  --      1.8321                26.7892                 5.8490
 IR Inten    --      3.2935               222.0846                 6.5834

                     43                     44                     45
                      A                      A                      A
 Frequencies --   3037.2609              3055.1895              3063.0420
 Red. masses --      1.0350                 1.0824                 1.0622
 Frc consts  --      5.6253                 5.9526                 5.8716
 IR Inten    --     22.4568                 0.5847                21.6362

                     46                     47                     48
                      A                      A                      A
 Frequencies --   3080.6774              3099.4610              3105.9954
 Red. masses --      1.0498                 1.0881                 1.1020
 Frc consts  --      5.8704                 6.1589                 6.2637
 IR Inten    --     26.8651                15.7781                21.6133

                     49                     50                     51
                      A                      A                      A
 Frequencies --   3113.9184              3130.1739              3167.5191
 Red. masses --      1.1012                 1.1048                 1.1195
 Frc consts  --      6.2911                 6.3780                 6.6177
 IR Inten    --     16.0415                21.3088                27.9889

 - Thermochemistry -
 -------------------
 Temperature   298.150 Kelvin.  Pressure   1.00000 Atm.
 Atom     1 has atomic number  6 and mass  12.00000

 Molecular mass:   126.06808 amu.
 Principal axes and moments of inertia in atomic units:
                           1         2         3
     Eigenvalues --   503.475571819.018162153.68827
           X            0.99999   0.00057   0.00330
           Y           -0.00059   0.99997   0.00744
           Z           -0.00330  -0.00744   0.99997
 This molecule is an asymmetric top.
 Rotational symmetry number  1.
 Warning -- assumption of classical behavior for rotation
           may cause significant error
 Rotational temperatures (Kelvin)      0.17203     0.04762     0.04022
 Rotational constants (GHZ):           3.58457     0.99215     0.83798
 Zero-point vibrational energy     413399.1 (Joules/Mol)
                                   98.80476 (Kcal/Mol)
 Warning -- explicit consideration of  11 degrees of freedom as
           vibrations may cause significant error
 Vibrational temperatures:     78.39    94.27   185.27   252.36   290.09
          (Kelvin)            351.71   437.97   493.43   576.70   803.12
                              822.11   984.66  1109.42  1169.03  1244.30
                             1256.03  1329.83  1348.86  1377.25  1415.91
                             1488.89  1544.69  1583.63  1623.06  1642.07
                             1661.60  1677.46  1709.16  1762.57  1778.68
                             1800.84  1850.79  1872.08  1933.14  2026.68
                             2078.90  2142.23  2149.09  2151.46  2199.20
                             2711.40  4357.97  4369.94  4395.73  4407.03
                             4432.40  4459.43  4468.83  4480.23  4503.62
                             4557.35

 Zero-point correction=                           0.157455 (Hartree/Particle)
 Thermal correction to Energy=                    0.166579
 Thermal correction to Enthalpy=                  0.167523
 Thermal correction to Gibbs Free Energy=         0.122635
 Sum of electronic and zero-point Energies=           -423.011854
 Sum of electronic and thermal Energies=              -423.002731
 Sum of electronic and thermal Enthalpies=            -423.001786
 Sum of electronic and thermal Free Energies=         -423.046674

                     E (Thermal)             CV                S
                      KCal/Mol        Cal/Mol-Kelvin    Cal/Mol-Kelvin
 Total                  104.530             32.861             94.475
 Electronic               0.000              0.000              0.000
 Translational            0.889              2.981             40.409
 Rotational               0.889              2.981             29.069
 Vibrational            102.753             26.900             24.998
 Vibration     1          0.596              1.976              4.648
 Vibration     2          0.597              1.971              4.284
 Vibration     3          0.611              1.924              2.964
 Vibration     4          0.627              1.873              2.377
 Vibration     5          0.639              1.838              2.118
 Vibration     6          0.660              1.772              1.770
 Vibration     7          0.695              1.665              1.393
 Vibration     8          0.722              1.590              1.198
 Vibration     9          0.767              1.468              0.960
 Vibration    10          0.914              1.122              0.527
 Vibration    11          0.928              1.093              0.502

 Optimization completed.
    -- Stationary point found.
 Normal termination of Gaussian 09 at Tue Jan 28 01:22:32 2020.
