 Gaussian 09, Revision D.01,
 Gaussian 09:  ES64L-G09RevD.01 24-Apr-2013

 -----------------------------
 # b3lyp 6-31G(2df,p) opt Freq
 -----------------------------

 -----
 titel
 -----
 Symbolic Z-matrix:
 Charge =  0 Multiplicity = 1

 SCF Done:  E(RB3LYP) =  -423.112144132     A.U. after   13 cycles
 Optimization completed.
    -- Stationary point found.
 Normal termination of Gaussian 09 at Mon Jan 27 23:07:31 2020.

 ----------------------------------------------------------------------
 #N Geom=AllCheck Guess=TCheck SCRF=Check GenChk RB3LYP/6-31G(2df,p) Fr
 eq
 ----------------------------------------------------------------------

 Structure from the checkpoint file:  "/scratch/puck/g09_04317f17-db1b-41b9-a0c6-7c54e5927bd8/Gau-56583.chk"
 -----
 titel
 -----
 Charge =  0 Multiplicity = 1

                         Standard orientation:
 ---------------------------------------------------------------------
 Center     Atomic      Atomic             Coordinates (Angstroms)
 Number     Number       Type             X           Y           Z
 ---------------------------------------------------------------------
      1          8           0       -2.344309   -0.967589   -0.350717
      2          6           0       -1.191749   -0.222882   -0.623109
      3          6           0       -0.987643    1.088562    0.284938
      4          6           0       -0.339986    0.143313    1.333091
      5          6           0        0.182621   -0.532563    0.039679
      6          8           0        1.249606   -1.491931    0.065313
      7          6           0        2.196361   -0.371506   -0.022827
      8          6           0        1.066406    0.518711   -0.608465
      9          6           0        0.289742    1.813021   -0.245019
     10          1           0       -2.366512   -1.198544    0.583439
     11          1           0       -1.173344   -0.089981   -1.707782
     12          1           0       -1.868569    1.683381    0.523369
     13          1           0        0.382980    0.575057    2.028883
     14          1           0       -1.048679   -0.471710    1.893464
     15          1           0        2.563056   -0.088918    0.971103
     16          1           0        3.036960   -0.609568   -0.679044
     17          1           0        1.081424    0.377619   -1.693040
     18          1           0        0.740466    2.435567    0.533846
     19          1           0        0.115325    2.443324   -1.120750
 ---------------------------------------------------------------------

 SCF Done:  E(RB3LYP) =  -423.112144132     A.U. after    1 cycles

 The electronic state is 1-A.
 Alpha  occ. eigenvalues --  -19.14390 -19.13863 -10.24282 -10.23811 -10.23388
 Alpha  occ. eigenvalues --  -10.20070 -10.19513 -10.18960 -10.18846  -1.04225
 Alpha  occ. eigenvalues --   -1.02739  -0.87837  -0.74214  -0.68814  -0.67596
 Alpha  occ. eigenvalues --   -0.64900  -0.57192  -0.54190  -0.52131  -0.48862
 Alpha  occ. eigenvalues --   -0.46275  -0.45105  -0.43878  -0.41419  -0.38706
 Alpha  occ. eigenvalues --   -0.38043  -0.36968  -0.34791  -0.34185  -0.33249
 Alpha  occ. eigenvalues --   -0.31770  -0.28814  -0.25253  -0.24078
 Alpha virt. eigenvalues --    0.06072   0.07762   0.09356   0.10513   0.11556
 Alpha virt. eigenvalues --    0.12462   0.14471   0.14924   0.16225   0.16383
 Alpha virt. eigenvalues --    0.18061   0.18442   0.20417   0.22038   0.22811

 Mulliken charges:
               1
     1  O   -0.444871
     2  C    0.089602
     3  C   -0.063345
     4  C   -0.324552
     5  C    0.414921
     6  O   -0.360908
     7  C   -0.170530
     8  C   -0.020608
     9  C   -0.280089
    10  H    0.285803
    11  H    0.087799
    12  H    0.076941
    13  H    0.099760
    14  H    0.087364
    15  H    0.106150
    16  H    0.113620
    17  H    0.092534
    18  H    0.108027
    19  H    0.102383
 Sum of Mulliken charges =   0.00000

 Dipole moment (field-independent basis, Debye):
    X=              0.6340    Y=              2.1251    Z=              0.9013  Tot=              2.3938
 Quadrupole moment (field-independent basis, Debye-Ang):
   XX=            -53.9932   YY=            -56.9723   ZZ=            -50.8924
   XY=              1.3440   XZ=             -3.6103   YZ=             -1.6122

  Exact polarizability:  83.764  -0.663  69.577  -1.363  -0.998  69.824
 Approx polarizability: 117.287  -0.590 107.011  -0.260  -1.084 107.887

                      1                      2                      3
                      A                      A                      A
 Frequencies --    173.9813               224.0778               250.4967
 Red. masses --      1.3051                 2.6484                 2.8741
 Frc consts  --      0.0233                 0.0783                 0.1063
 IR Inten    --     50.5646                 2.6812                25.6797

                      4                      5                      6
                      A                      A                      A
 Frequencies --    290.8504               374.6309               411.9514
 Red. masses --      3.1083                 3.1622                 2.9533
 Frc consts  --      0.1549                 0.2615                 0.2953
 IR Inten    --      6.2918                 3.4749                 3.5976

                      7                      8                      9
                      A                      A                      A
 Frequencies --    450.4500               503.7747               583.5984
 Red. masses --      2.3200                 4.0590                 3.2869
 Frc consts  --      0.2773                 0.6069                 0.6596
 IR Inten    --      2.4788                 1.7257                 3.8160

                     10                     11                     12
                      A                      A                      A
 Frequencies --    610.0032               717.7698               788.6393
 Red. masses --      2.8871                 4.1306                 3.0362
 Frc consts  --      0.6330                 1.2538                 1.1126
 IR Inten    --     12.9746                12.9964                 4.0181

                     13                     14                     15
                      A                      A                      A
 Frequencies --    825.5055               851.6568               886.8176
 Red. masses --      2.8213                 2.6462                 2.1228
 Frc consts  --      1.1328                 1.1308                 0.9836
 IR Inten    --      5.3673                12.0891                 0.1092

                     16                     17                     18
                      A                      A                      A
 Frequencies --    921.4076               925.7146               942.5276
 Red. masses --      3.9021                 1.9829                 1.9352
 Frc consts  --      1.9519                 1.0011                 1.0129
 IR Inten    --     72.0261                14.5099                 2.7256

                     19                     20                     21
                      A                      A                      A
 Frequencies --    965.0307              1009.5376              1040.5947
 Red. masses --      2.0566                 1.9008                 1.4555
 Frc consts  --      1.1284                 1.1414                 0.9286
 IR Inten    --      9.1476                 9.9448                 1.7370

                     22                     23                     24
                      A                      A                      A
 Frequencies --   1076.7679              1092.5075              1099.9680
 Red. masses --      1.7704                 1.8605                 2.3976
 Frc consts  --      1.2094                 1.3084                 1.7092
 IR Inten    --     17.0775                 1.1846                53.5396

                     25                     26                     27
                      A                      A                      A
 Frequencies --   1139.3910              1150.1786              1165.7719
 Red. masses --      2.0561                 1.6328                 1.8300
 Frc consts  --      1.5727                 1.2726                 1.4653
 IR Inten    --     63.0742                23.3877                 8.7621

                     28                     29                     30
                      A                      A                      A
 Frequencies --   1177.6478              1187.3596              1220.6386
 Red. masses --      1.7139                 1.7651                 1.4734
 Frc consts  --      1.4004                 1.4662                 1.2934
 IR Inten    --      4.7476                60.3225                 2.3012

                     31                     32                     33
                      A                      A                      A
 Frequencies --   1240.0721              1247.9653              1278.0449
 Red. masses --      1.6284                 1.5470                 1.9072
 Frc consts  --      1.4754                 1.4195                 1.8354
 IR Inten    --     13.4215                25.3361                 1.9986

                     34                     35                     36
                      A                      A                      A
 Frequencies --   1287.0599              1301.9493              1323.7317
 Red. masses --      1.5346                 1.5635                 1.5212
 Frc consts  --      1.4978                 1.5615                 1.5705
 IR Inten    --      8.9907                 9.0462                 9.5824

                     37                     38                     39
                      A                      A                      A
 Frequencies --   1386.7067              1444.8755              1494.1606
 Red. masses --      1.3650                 1.2260                 1.0897
 Frc consts  --      1.5465                 1.5079                 1.4334
 IR Inten    --      1.7607                64.2509                 3.7733

                     40                     41                     42
                      A                      A                      A
 Frequencies --   1511.2434              1522.9010              3030.6122
 Red. masses --      1.1151                 1.1083                 1.0606
 Frc consts  --      1.5005                 1.5144                 5.7394
 IR Inten    --      0.2242                 6.2049                52.9289

                     43                     44                     45
                      A                      A                      A
 Frequencies --   3052.9840              3055.9718              3062.6177
 Red. masses --      1.0615                 1.0828                 1.0588
 Frc consts  --      5.8295                 5.9582                 5.8514
 IR Inten    --     38.5041                12.9191                23.5229

                     46                     47                     48
                      A                      A                      A
 Frequencies --   3084.8280              3100.9458              3105.3617
 Red. masses --      1.0877                 1.1057                 1.1052
 Frc consts  --      6.0987                 6.2645                 6.2796
 IR Inten    --     28.2509                14.8840                65.9133

                     49                     50                     51
                      A                      A                      A
 Frequencies --   3113.6831              3129.2378              3818.7237
 Red. masses --      1.1078                 1.0904                 1.0650
 Frc consts  --      6.3277                 6.2907                 9.1506
 IR Inten    --     35.1842                32.0547                14.6446

 - Thermochemistry -
 -------------------
 Temperature   298.150 Kelvin.  Pressure   1.00000 Atm.
 Atom     1 has atomic number  8 and mass  15.99491

 Molecular mass:   126.06808 amu.
 Principal axes and moments of inertia in atomic units:
                           1         2         3
     Eigenvalues --   649.456391059.710001342.81075
           X            0.99987   0.00819  -0.01377
           Y           -0.00838   0.99987  -0.01377
           Z            0.01366   0.01388   0.99981
 This molecule is an asymmetric top.
 Rotational symmetry number  1.
 Warning -- assumption of classical behavior for rotation
           may cause significant error
 Rotational temperatures (Kelvin)      0.13336     0.08173     0.06450
 Rotational constants (GHZ):           2.77885     1.70305     1.34400
 Zero-point vibrational energy     422598.3 (Joules/Mol)
                                  101.00342 (Kcal/Mol)
 Warning -- explicit consideration of  10 degrees of freedom as
           vibrations may cause significant error
 Vibrational temperatures:    250.32   322.40   360.41   418.47   539.01
          (Kelvin)            592.71   648.10   724.82   839.67   877.66
                             1032.71  1134.67  1187.72  1225.34  1275.93
                             1325.70  1331.90  1356.09  1388.46  1452.50
                             1497.18  1549.23  1571.87  1582.61  1639.33
                             1654.85  1677.28  1694.37  1708.34  1756.22
                             1784.18  1795.54  1838.82  1851.79  1873.21
                             1904.55  1995.16  2078.85  2149.76  2174.34
                             2191.11  4360.37  4392.56  4396.86  4406.42
                             4438.37  4461.56  4467.92  4479.89  4502.27
                             5494.28

 Zero-point correction=                           0.160959 (Hartree/Particle)
 Thermal correction to Energy=                    0.168203
 Thermal correction to Enthalpy=                  0.169147
 Thermal correction to Gibbs Free Energy=         0.129735
 Sum of electronic and zero-point Energies=           -422.951185
 Sum of electronic and thermal Energies=              -422.943941
 Sum of electronic and thermal Enthalpies=            -422.942997
 Sum of electronic and thermal Free Energies=         -422.982409

                     E (Thermal)             CV                S
                      KCal/Mol        Cal/Mol-Kelvin    Cal/Mol-Kelvin
 Total                  105.549             29.985             82.949
 Electronic               0.000              0.000              0.000
 Translational            0.889              2.981             40.409
 Rotational               0.889              2.981             28.315
 Vibrational            103.772             24.024             14.226
 Vibration     1          0.627              1.874              2.392
 Vibration     2          0.649              1.804              1.926
 Vibration     3          0.663              1.762              1.727
 Vibration     4          0.687              1.691              1.469
 Vibration     5          0.746              1.524              1.061
 Vibration     6          0.776              1.444              0.920
 Vibration     7          0.809              1.360              0.794
 Vibration     8          0.859              1.242              0.649
 Vibration     9          0.940              1.067              0.479
 Vibration    10          0.969              1.011              0.433

 Normal termination of Gaussian 09 at Mon Jan 27 23:56:45 2020.
