 Gaussian 09, Revision D.01,
 Gaussian 09:  ES64L-G09RevD.01 24-Apr-2013

 -----------------------------
 # b3lyp 6-31G(2df,p) opt Freq
 -----------------------------

 -----
 titel
 -----
 Symbolic Z-matrix:
 Charge =  0 Multiplicity = 1

 SCF Done:  E(RB3LYP) =  -423.208046861     A.U. after   14 cycles
 Optimization completed.
    -- Stationary point found.
 Normal termination of Gaussian 09 at Mon Jan 27 14:10:21 2020.

 ----------------------------------------------------------------------
 #N Geom=AllCheck Guess=TCheck SCRF=Check GenChk RB3LYP/6-31G(2df,p) Fr
 eq
 ----------------------------------------------------------------------

 Structure from the checkpoint file:  "/scratch/puck/g09_987d4e87-5b7b-40a2-8022-3cc566c32802/Gau-31518.chk"
 -----
 titel
 -----
 Charge =  0 Multiplicity = 1

                         Standard orientation:
 ---------------------------------------------------------------------
 Center     Atomic      Atomic             Coordinates (Angstroms)
 Number     Number       Type             X           Y           Z
 ---------------------------------------------------------------------
      1          6           0       -1.465000   -0.090008    1.525810
      2          6           0       -1.658267    0.052171    0.030217
      3          8           0       -2.750329    0.005501   -0.487668
      4          6           0       -0.397192    0.236606   -0.838083
      5          6           0        0.446447   -1.056395   -0.896615
      6          8           0        1.251246   -1.223145    0.257145
      7          6           0        2.227762   -0.206864    0.393899
      8          6           0        1.686763    1.172402    0.142515
      9          6           0        0.486236    1.376922   -0.395744
     10          1           0       -0.688216   -0.829852    1.741446
     11          1           0       -1.111769    0.859884    1.942354
     12          1           0       -2.410957   -0.364736    1.993675
     13          1           0       -0.782850    0.434850   -1.844400
     14          1           0       -0.187417   -1.945087   -0.960960
     15          1           0        1.075912   -1.020299   -1.799573
     16          1           0        2.609446   -0.289907    1.418135
     17          1           0        3.082121   -0.402443   -0.279992
     18          1           0        2.332291    2.003957    0.412442
     19          1           0        0.113609    2.385779   -0.550939
 ---------------------------------------------------------------------

 SCF Done:  E(RB3LYP) =  -423.208046862     A.U. after    1 cycles

 The electronic state is 1-A.
 Alpha  occ. eigenvalues --  -19.15304 -19.12420 -10.26589 -10.24249 -10.24082
 Alpha  occ. eigenvalues --  -10.19884 -10.19635 -10.19524 -10.17904  -1.04765
 Alpha  occ. eigenvalues --   -1.03480  -0.81775  -0.77962  -0.73137  -0.66643
 Alpha  occ. eigenvalues --   -0.64887  -0.55873  -0.52100  -0.50260  -0.48462
 Alpha  occ. eigenvalues --   -0.47952  -0.44692  -0.43855  -0.42736  -0.41267
 Alpha  occ. eigenvalues --   -0.39861  -0.39519  -0.37780  -0.36268  -0.34868
 Alpha  occ. eigenvalues --   -0.31696  -0.27534  -0.26177  -0.23241
 Alpha virt. eigenvalues --   -0.01609   0.01745   0.08069   0.12110   0.12287
 Alpha virt. eigenvalues --    0.12616   0.13103   0.14604   0.15996   0.16205
 Alpha virt. eigenvalues --    0.16990   0.18298   0.19542   0.20315   0.21731

 Mulliken charges:
               1
     1  C   -0.484659
     2  C    0.375414
     3  O   -0.308544
     4  C   -0.123846
     5  C   -0.119900
     6  O   -0.241678
     7  C   -0.120921
     8  C   -0.070508
     9  C   -0.094291
    10  H    0.157288
    11  H    0.141294
    12  H    0.134369
    13  H    0.099607
    14  H    0.122501
    15  H    0.103222
    16  H    0.122553
    17  H    0.106093
    18  H    0.099968
    19  H    0.102037
 Sum of Mulliken charges =   0.00000

 Dipole moment (field-independent basis, Debye):
    X=              2.9163    Y=              0.9493    Z=              0.3971  Tot=              3.0925
 Quadrupole moment (field-independent basis, Debye-Ang):
   XX=            -59.6734   YY=            -52.5138   ZZ=            -51.7009
   XY=              1.6966   XZ=             -2.3453   YZ=              1.4566

  Exact polarizability:  96.528   1.316  67.190   6.710   0.784  69.104
 Approx polarizability: 144.991  -0.627  98.917  19.351  -1.121 103.909

                      1                      2                      3
                      A                      A                      A
 Frequencies --     44.4595               103.7754               156.8989
 Red. masses --      4.7738                 2.6234                 1.2913
 Frc consts  --      0.0056                 0.0166                 0.0187
 IR Inten    --      4.4401                 0.6298                 0.1065

                      4                      5                      6
                      A                      A                      A
 Frequencies --    178.9821               237.6741               315.4895
 Red. masses --      2.5481                 2.5843                 2.3407
 Frc consts  --      0.0481                 0.0860                 0.1373
 IR Inten    --      0.6342                 4.4059                 5.0649

                      7                      8                      9
                      A                      A                      A
 Frequencies --    346.8556               419.0536               472.8696
 Red. masses --      3.4902                 3.7297                 3.7103
 Frc consts  --      0.2474                 0.3859                 0.4888
 IR Inten    --      4.4580                 2.9252                 2.5262

                     10                     11                     12
                      A                      A                      A
 Frequencies --    530.7763               583.9426               635.9889
 Red. masses --      3.2476                 2.6954                 3.4029
 Frc consts  --      0.5391                 0.5415                 0.8110
 IR Inten    --      6.0960                 1.9810                 0.3764

                     13                     14                     15
                      A                      A                      A
 Frequencies --    691.2747               775.7049               851.1891
 Red. masses --      1.7933                 2.0914                 3.9267
 Frc consts  --      0.5049                 0.7414                 1.6762
 IR Inten    --     29.2212                15.1418                15.7644

                     16                     17                     18
                      A                      A                      A
 Frequencies --    888.1303               920.2026               931.8086
 Red. masses --      3.2450                 2.3564                 2.6147
 Frc consts  --      1.5080                 1.1756                 1.3376
 IR Inten    --      3.1906                 2.1097                13.6482

                     19                     20                     21
                      A                      A                      A
 Frequencies --    994.4988              1011.5891              1020.2569
 Red. masses --      1.3759                 1.8087                 2.2231
 Frc consts  --      0.8018                 1.0905                 1.3634
 IR Inten    --      8.6203                 4.7885                 8.5083

                     22                     23                     24
                      A                      A                      A
 Frequencies --   1033.0725              1067.6376              1105.2532
 Red. masses --      1.8256                 2.0610                 2.0029
 Frc consts  --      1.1479                 1.3841                 1.4416
 IR Inten    --      5.9179                 2.1784                15.9513

                     25                     26                     27
                      A                      A                      A
 Frequencies --   1119.4295              1210.4680              1216.8026
 Red. masses --      2.2345                 1.6286                 1.8346
 Frc consts  --      1.6498                 1.4059                 1.6005
 IR Inten    --     64.7176                39.3909                70.6963

                     28                     29                     30
                      A                      A                      A
 Frequencies --   1252.7098              1285.6067              1308.8316
 Red. masses --      1.2877                 1.3001                 1.5682
 Frc consts  --      1.1906                 1.2661                 1.5828
 IR Inten    --     14.3232                 2.9734                 6.3729

                     31                     32                     33
                      A                      A                      A
 Frequencies --   1328.4802              1367.6355              1384.0031
 Red. masses --      1.2494                 1.2187                 1.3198
 Frc consts  --      1.2991                 1.3430                 1.4895
 IR Inten    --      3.6585                 0.2525                37.3703

                     34                     35                     36
                      A                      A                      A
 Frequencies --   1408.7655              1419.3049              1465.6320
 Red. masses --      1.5933                 1.3635                 1.0489
 Frc consts  --      1.8631                 1.6183                 1.3275
 IR Inten    --      7.0483                 4.4243                 8.9128

                     37                     38                     39
                      A                      A                      A
 Frequencies --   1470.2954              1484.1878              1498.0459
 Red. masses --      1.0553                 1.0814                 1.0945
 Frc consts  --      1.3441                 1.4035                 1.4472
 IR Inten    --     14.5799                 0.9072                 4.2881

                     40                     41                     42
                      A                      A                      A
 Frequencies --   1716.3385              1806.4058              2940.2203
 Red. masses --      6.7576                10.4372                 1.0726
 Frc consts  --     11.7287                20.0662                 5.4632
 IR Inten    --      6.4461               198.7760                62.8026

                     43                     44                     45
                      A                      A                      A
 Frequencies --   2983.3469              3043.0039              3050.6768
 Red. masses --      1.0696                 1.0362                 1.0834
 Frc consts  --      5.6089                 5.6532                 5.9406
 IR Inten    --     52.2100                 2.7798                17.5340

                     46                     47                     48
                      A                      A                      A
 Frequencies --   3055.4573              3090.9403              3107.0823
 Red. masses --      1.0871                 1.0947                 1.0962
 Frc consts  --      5.9797                 6.1623                 6.2354
 IR Inten    --     21.8722                20.4643                 5.8284

                     49                     50                     51
                      A                      A                      A
 Frequencies --   3154.4381              3156.3159              3176.5359
 Red. masses --      1.0838                 1.1042                 1.0979
 Frc consts  --      6.3538                 6.4813                 6.5271
 IR Inten    --      4.0140                 9.4153                20.6308

 - Thermochemistry -
 -------------------
 Temperature   298.150 Kelvin.  Pressure   1.00000 Atm.
 Atom     1 has atomic number  6 and mass  12.00000

 Molecular mass:   126.06808 amu.
 Principal axes and moments of inertia in atomic units:
                           1         2         3
     Eigenvalues --   608.281541473.457541541.12302
           X            0.99979   0.01133  -0.01691
           Y           -0.00989   0.99648   0.08322
           Z            0.01779  -0.08304   0.99639
 This molecule is an asymmetric top.
 Rotational symmetry number  1.
 Warning -- assumption of classical behavior for rotation
           may cause significant error
 Rotational temperatures (Kelvin)      0.14239     0.05878     0.05620
 Rotational constants (GHZ):           2.96695     1.22483     1.17106
 Zero-point vibrational energy     417606.4 (Joules/Mol)
                                   99.81033 (Kcal/Mol)
 Warning -- explicit consideration of  11 degrees of freedom as
           vibrations may cause significant error
 Vibrational temperatures:     63.97   149.31   225.74   257.51   341.96
          (Kelvin)            453.92   499.05   602.92   680.35   763.67
                              840.16   915.05   994.59  1116.07  1224.67
                             1277.82  1323.96  1340.66  1430.86  1455.45
                             1467.92  1486.36  1536.09  1590.21  1610.61
                             1741.59  1750.71  1802.37  1849.70  1883.11
                             1911.38  1967.72  1991.27  2026.90  2042.06
                             2108.71  2115.42  2135.41  2155.35  2469.43
                             2599.01  4230.32  4292.37  4378.20  4389.24
                             4396.12  4447.17  4470.39  4538.53  4541.23
                             4570.32

 Zero-point correction=                           0.159058 (Hartree/Particle)
 Thermal correction to Energy=                    0.167778
 Thermal correction to Enthalpy=                  0.168723
 Thermal correction to Gibbs Free Energy=         0.125070
 Sum of electronic and zero-point Energies=           -423.048989
 Sum of electronic and thermal Energies=              -423.040268
 Sum of electronic and thermal Enthalpies=            -423.039324
 Sum of electronic and thermal Free Energies=         -423.082977

                     E (Thermal)             CV                S
                      KCal/Mol        Cal/Mol-Kelvin    Cal/Mol-Kelvin
 Total                  105.283             32.265             91.874
 Electronic               0.000              0.000              0.000
 Translational            0.889              2.981             40.409
 Rotational               0.889              2.981             28.715
 Vibrational            103.505             26.304             22.751
 Vibration     1          0.595              1.980              5.050
 Vibration     2          0.605              1.946              3.382
 Vibration     3          0.621              1.895              2.587
 Vibration     4          0.629              1.868              2.339
 Vibration     5          0.656              1.783              1.820
 Vibration     6          0.703              1.644              1.333
 Vibration     7          0.725              1.582              1.180
 Vibration     8          0.782              1.429              0.895
 Vibration     9          0.830              1.310              0.730
 Vibration    10          0.886              1.182              0.585
 Vibration    11          0.941              1.066              0.478

 Normal termination of Gaussian 09 at Mon Jan 27 15:08:08 2020.
