 Gaussian 09, Revision D.01,
 Gaussian 09:  ES64L-G09RevD.01 24-Apr-2013

 -----------------------------
 # b3lyp 6-31G(2df,p) opt Freq
 -----------------------------

 -----
 titel
 -----
 Symbolic Z-matrix:
 Charge =  0 Multiplicity = 1

 SCF Done:  E(RB3LYP) =  -423.187670979     A.U. after   13 cycles
 Optimization completed.
    -- Stationary point found.
 Normal termination of Gaussian 09 at Tue Jan 28 03:15:25 2020.

 ----------------------------------------------------------------------
 #N Geom=AllCheck Guess=TCheck SCRF=Check GenChk RB3LYP/6-31G(2df,p) Fr
 eq
 ----------------------------------------------------------------------

 Structure from the checkpoint file:  "/scratch/puck/g09_e69d3f7b-c92a-422e-b10d-8059d89f3e9c/Gau-45616.chk"
 -----
 titel
 -----
 Charge =  0 Multiplicity = 1

                         Standard orientation:
 ---------------------------------------------------------------------
 Center     Atomic      Atomic             Coordinates (Angstroms)
 Number     Number       Type             X           Y           Z
 ---------------------------------------------------------------------
      1          6           0        1.361319    1.771025    0.433252
      2          6           0        0.631439    0.812835   -0.491843
      3          8           0       -0.725388    1.235691   -0.707451
      4          6           0       -1.502115    0.037403   -0.465904
      5          8           0       -0.662985   -1.001231   -0.906081
      6          6           0        0.430734   -0.675943   -0.010662
      7          6           0        1.596974   -1.616084   -0.170567
      8          6           0       -0.292692   -0.598870    1.330718
      9          6           0       -1.520840   -0.163464    1.047639
     10          1           0        0.867756    1.832898    1.406031
     11          1           0        2.399963    1.453839    0.578633
     12          1           0        1.375286    2.773179   -0.004608
     13          1           0        1.136245    0.765945   -1.466222
     14          1           0       -2.435491    0.087395   -1.022860
     15          1           0        1.301391   -2.639151    0.077004
     16          1           0        1.964827   -1.600701   -1.200562
     17          1           0        2.416834   -1.325196    0.493403
     18          1           0        0.169898   -0.754408    2.295781
     19          1           0       -2.318646    0.129103    1.715840
 ---------------------------------------------------------------------

 SCF Done:  E(RB3LYP) =  -423.187670979     A.U. after    1 cycles

 The electronic state is 1-A.
 Alpha  occ. eigenvalues --  -19.14211 -19.13425 -10.27614 -10.24525 -10.23156
 Alpha  occ. eigenvalues --  -10.18772 -10.18644 -10.18540 -10.17632  -1.09068
 Alpha  occ. eigenvalues --   -0.98307  -0.80288  -0.78248  -0.72981  -0.67177
 Alpha  occ. eigenvalues --   -0.59940  -0.58411  -0.55251  -0.52202  -0.49069
 Alpha  occ. eigenvalues --   -0.46234  -0.42907  -0.42426  -0.41359  -0.40057
 Alpha  occ. eigenvalues --   -0.38969  -0.38012  -0.36859  -0.35982  -0.34237
 Alpha  occ. eigenvalues --   -0.31596  -0.27879  -0.25999  -0.24109
 Alpha virt. eigenvalues --    0.00099   0.08998   0.11291   0.12872   0.12955
 Alpha virt. eigenvalues --    0.13602   0.14700   0.15189   0.15913   0.16658
 Alpha virt. eigenvalues --    0.17654   0.19978   0.20846   0.21694   0.22150

 Mulliken charges:
               1
     1  C   -0.415672
     2  C    0.130435
     3  O   -0.298594
     4  C    0.118528
     5  O   -0.259101
     6  C    0.293688
     7  C   -0.497725
     8  C   -0.139131
     9  C   -0.081329
    10  H    0.124163
    11  H    0.111551
    12  H    0.129582
    13  H    0.080952
    14  H    0.090771
    15  H    0.135442
    16  H    0.131665
    17  H    0.124343
    18  H    0.108228
    19  H    0.112205
 Sum of Mulliken charges =   0.00000

 Dipole moment (field-independent basis, Debye):
    X=              0.9869    Y=             -0.2441    Z=              1.5052  Tot=              1.8164
 Quadrupole moment (field-independent basis, Debye-Ang):
   XX=            -48.2860   YY=            -56.4539   ZZ=            -52.9118
   XY=             -0.6186   XZ=             -1.0453   YZ=             -0.4193

  Exact polarizability:  84.956  -2.632  68.441  -0.732  -1.587  68.835
 Approx polarizability: 128.580  -7.877 100.562   3.483  -4.354 104.943

                      1                      2                      3
                      A                      A                      A
 Frequencies --    164.1304               190.1835               210.3172
 Red. masses --      2.3191                 1.1391                 1.1950
 Frc consts  --      0.0368                 0.0243                 0.0311
 IR Inten    --      0.4563                 0.0869                 0.1630

                      4                      5                      6
                      A                      A                      A
 Frequencies --    240.3021               302.9582               332.1881
 Red. masses --      2.0264                 2.6011                 2.7276
 Frc consts  --      0.0689                 0.1407                 0.1773
 IR Inten    --      0.4996                 1.1035                 1.1320

                      7                      8                      9
                      A                      A                      A
 Frequencies --    431.8250               486.1157               523.0556
 Red. masses --      3.1438                 3.0204                 3.6285
 Frc consts  --      0.3454                 0.4205                 0.5849
 IR Inten    --      7.6236                 2.6831                 5.4701

                     10                     11                     12
                      A                      A                      A
 Frequencies --    611.2764               639.2035               711.5155
 Red. masses --      4.3800                 4.1839                 5.8071
 Frc consts  --      0.9643                 1.0072                 1.7321
 IR Inten    --      4.0285                 8.9590                 3.1193

                     13                     14                     15
                      A                      A                      A
 Frequencies --    729.8275               781.2709               836.2420
 Red. masses --      1.7060                 3.4007                 3.8064
 Frc consts  --      0.5354                 1.2230                 1.5683
 IR Inten    --      5.7162                17.2198                 5.9838

                     16                     17                     18
                      A                      A                      A
 Frequencies --    858.1774               870.1904               876.4862
 Red. masses --      2.5243                 3.6696                 3.0221
 Frc consts  --      1.0953                 1.6372                 1.3679
 IR Inten    --     36.7472                51.4245                 8.4266

                     19                     20                     21
                      A                      A                      A
 Frequencies --    892.4110               928.6472               943.5105
 Red. masses --      2.3034                 1.5019                 2.3596
 Frc consts  --      1.0808                 0.7631                 1.2376
 IR Inten    --     39.0671                 9.8658                18.2749

                     22                     23                     24
                      A                      A                      A
 Frequencies --   1037.1803              1051.2542              1093.9003
 Red. masses --      1.5579                 1.3639                 2.0889
 Frc consts  --      0.9874                 0.8881                 1.4728
 IR Inten    --     29.6067                 7.8825                26.6270

                     25                     26                     27
                      A                      A                      A
 Frequencies --   1114.8747              1133.3007              1156.1923
 Red. masses --      2.7014                 2.1997                 2.1939
 Frc consts  --      1.9783                 1.6646                 1.7279
 IR Inten    --     44.2870                29.5554                 2.4454

                     28                     29                     30
                      A                      A                      A
 Frequencies --   1195.5581              1262.1139              1280.3778
 Red. masses --      2.3456                 2.1743                 1.2621
 Frc consts  --      1.9754                 2.0407                 1.2190
 IR Inten    --      2.0073                 4.8451                 1.3284

                     31                     32                     33
                      A                      A                      A
 Frequencies --   1315.1183              1330.7773              1360.0446
 Red. masses --      1.4368                 1.6319                 1.5532
 Frc consts  --      1.4641                 1.7028                 1.6928
 IR Inten    --     17.5252                17.3445                 3.7915

                     34                     35                     36
                      A                      A                      A
 Frequencies --   1379.7227              1408.2783              1417.1625
 Red. masses --      1.4924                 1.3266                 1.4622
 Frc consts  --      1.6739                 1.5501                 1.7302
 IR Inten    --     14.8168                13.4707                12.4162

                     37                     38                     39
                      A                      A                      A
 Frequencies --   1482.3170              1484.5552              1495.2150
 Red. masses --      1.0504                 1.0507                 1.0498
 Frc consts  --      1.3599                 1.3644                 1.3828
 IR Inten    --      3.5880                 1.0583                 4.7455

                     40                     41                     42
                      A                      A                      A
 Frequencies --   1499.4257              1636.9767              3010.5385
 Red. masses --      1.0466                 6.3938                 1.0843
 Frc consts  --      1.3863                10.0947                 5.7901
 IR Inten    --      2.5841                 1.3910                36.8483

                     43                     44                     45
                      A                      A                      A
 Frequencies --   3039.6611              3044.2979              3107.1735
 Red. masses --      1.0371                 1.0354                 1.0992
 Frc consts  --      5.6460                 5.6538                 6.2526
 IR Inten    --     15.7099                17.9874                19.7265

                     46                     47                     48
                      A                      A                      A
 Frequencies --   3116.0136              3121.7607              3128.4860
 Red. masses --      1.1009                 1.1021                 1.1014
 Frc consts  --      6.2982                 6.3281                 6.3514
 IR Inten    --     13.9507                11.3936                21.1549

                     49                     50                     51
                      A                      A                      A
 Frequencies --   3151.2200              3216.7073              3243.8620
 Red. masses --      1.0928                 1.0869                 1.1087
 Frc consts  --      6.3936                 6.6259                 6.8737
 IR Inten    --     35.9887                 2.9802                 6.1795

 - Thermochemistry -
 -------------------
 Temperature   298.150 Kelvin.  Pressure   1.00000 Atm.
 Atom     1 has atomic number  6 and mass  12.00000

 Molecular mass:   126.06808 amu.
 Principal axes and moments of inertia in atomic units:
                           1         2         3
     Eigenvalues --   829.92348 866.349451131.45417
           X            0.99823  -0.05803  -0.01271
           Y            0.05831   0.99802   0.02367
           Z            0.01131  -0.02437   0.99964
 This molecule is an asymmetric top.
 Rotational symmetry number  1.
 Warning -- assumption of classical behavior for rotation
           may cause significant error
 Rotational temperatures (Kelvin)      0.10436     0.09998     0.07655
 Rotational constants (GHZ):           2.17459     2.08316     1.59506
 Zero-point vibrational energy     417938.7 (Joules/Mol)
                                   99.88975 (Kcal/Mol)
 Warning -- explicit consideration of  10 degrees of freedom as
           vibrations may cause significant error
 Vibrational temperatures:    236.15   273.63   302.60   345.74   435.89
          (Kelvin)            477.94   621.30   699.41   752.56   879.49
                              919.67  1023.71  1050.06  1124.07  1203.16
                             1234.72  1252.01  1261.07  1283.98  1336.11
                             1357.50  1492.27  1512.52  1573.88  1604.05
                             1630.56  1663.50  1720.14  1815.90  1842.18
                             1892.16  1914.69  1956.80  1985.11  2026.20
                             2038.98  2132.72  2135.94  2151.28  2157.34
                             2355.24  4331.49  4373.39  4380.06  4470.52
                             4483.24  4491.51  4501.19  4533.90  4628.12
                             4667.19

 Zero-point correction=                           0.159184 (Hartree/Particle)
 Thermal correction to Energy=                    0.167035
 Thermal correction to Enthalpy=                  0.167979
 Thermal correction to Gibbs Free Energy=         0.127460
 Sum of electronic and zero-point Energies=           -423.028487
 Sum of electronic and thermal Energies=              -423.020636
 Sum of electronic and thermal Enthalpies=            -423.019692
 Sum of electronic and thermal Free Energies=         -423.060211

                     E (Thermal)             CV                S
                      KCal/Mol        Cal/Mol-Kelvin    Cal/Mol-Kelvin
 Total                  104.816             31.635             85.280
 Electronic               0.000              0.000              0.000
 Translational            0.889              2.981             40.409
 Rotational               0.889              2.981             28.189
 Vibrational            103.038             25.673             16.683
 Vibration     1          0.623              1.886              2.502
 Vibration     2          0.634              1.853              2.226
 Vibration     3          0.642              1.825              2.041
 Vibration     4          0.657              1.779              1.801
 Vibration     5          0.694              1.668              1.401
 Vibration     6          0.714              1.611              1.249
 Vibration     7          0.793              1.401              0.853
 Vibration     8          0.842              1.281              0.694
 Vibration     9          0.878              1.199              0.603
 Vibration    10          0.970              1.008              0.431

 Optimization completed.
    -- Stationary point found.
 Normal termination of Gaussian 09 at Tue Jan 28 05:18:08 2020.
