 Gaussian 09, Revision D.01,
 Gaussian 09:  ES64L-G09RevD.01 24-Apr-2013

 -----------------------------
 # b3lyp 6-31G(2df,p) opt Freq
 -----------------------------

 -----
 titel
 -----
 Symbolic Z-matrix:
 Charge =  0 Multiplicity = 1

 SCF Done:  E(RB3LYP) =  -423.237128386     A.U. after   14 cycles
 Optimization completed.
    -- Stationary point found.
 Normal termination of Gaussian 09 at Tue Jan 28 13:26:06 2020.

 ----------------------------------------------------------------------
 #N Geom=AllCheck Guess=TCheck SCRF=Check GenChk RB3LYP/6-31G(2df,p) Fr
 eq
 ----------------------------------------------------------------------

 Structure from the checkpoint file:  "/scratch/puck/g09_3b57cea2-4486-4234-8e51-67935fe1dbb2/Gau-30929.chk"
 -----
 titel
 -----
 Charge =  0 Multiplicity = 1

                         Standard orientation:
 ---------------------------------------------------------------------
 Center     Atomic      Atomic             Coordinates (Angstroms)
 Number     Number       Type             X           Y           Z
 ---------------------------------------------------------------------
      1          6           0       -2.897829   -0.753521    0.169185
      2          6           0       -1.951546    0.412493    0.463440
      3          6           0       -0.762946    0.492127   -0.508276
      4          8           0       -0.044841   -0.757761   -0.446345
      5          6           0        1.232411   -0.908404   -0.030871
      6          8           0        1.699144   -2.013712    0.022552
      7          6           0        2.038021    0.325658    0.345435
      8          6           0        1.351301    1.635571    0.118418
      9          6           0        0.085457    1.700553   -0.271682
     10          1           0       -3.334289   -0.664086   -0.831882
     11          1           0       -2.366987   -1.707030    0.219565
     12          1           0       -3.719487   -0.778321    0.890718
     13          1           0       -2.493622    1.364458    0.405567
     14          1           0       -1.554393    0.339342    1.482971
     15          1           0       -1.162273    0.527605   -1.532617
     16          1           0        2.325473    0.204903    1.398493
     17          1           0        2.981546    0.263607   -0.210213
     18          1           0        1.929306    2.540125    0.285332
     19          1           0       -0.408914    2.654320   -0.431479
 ---------------------------------------------------------------------

 SCF Done:  E(RB3LYP) =  -423.237128386     A.U. after    1 cycles

 The electronic state is 1-A.
 Alpha  occ. eigenvalues --  -19.17729 -19.11198 -10.30434 -10.25688 -10.20692
 Alpha  occ. eigenvalues --  -10.20199 -10.19820 -10.19458 -10.17740  -1.09238
 Alpha  occ. eigenvalues --   -1.01043  -0.82611  -0.79785  -0.73641  -0.67948
 Alpha  occ. eigenvalues --   -0.62572  -0.60181  -0.52532  -0.50592  -0.48567
 Alpha  occ. eigenvalues --   -0.47567  -0.44859  -0.43380  -0.42826  -0.41647
 Alpha  occ. eigenvalues --   -0.38902  -0.38329  -0.37229  -0.36007  -0.34844
 Alpha  occ. eigenvalues --   -0.32580  -0.28982  -0.26378  -0.25956
 Alpha virt. eigenvalues --    0.00450   0.01925   0.07708   0.10963   0.11645
 Alpha virt. eigenvalues --    0.13062   0.13562   0.14514   0.15857   0.16317
 Alpha virt. eigenvalues --    0.17435   0.17980   0.20275   0.21175   0.21961

 Mulliken charges:
               1
     1  C   -0.388997
     2  C   -0.173442
     3  C    0.085129
     4  O   -0.243240
     5  C    0.409498
     6  O   -0.326503
     7  C   -0.404622
     8  C   -0.077881
     9  C   -0.076240
    10  H    0.114849
    11  H    0.145987
    12  H    0.115051
    13  H    0.100672
    14  H    0.107151
    15  H    0.103741
    16  H    0.150859
    17  H    0.150317
    18  H    0.103624
    19  H    0.104046
 Sum of Mulliken charges =   0.00000

 Dipole moment (field-independent basis, Debye):
    X=             -1.1228    Y=              3.9432    Z=              0.2963  Tot=              4.1106
 Quadrupole moment (field-independent basis, Debye-Ang):
   XX=            -50.6423   YY=            -59.0065   ZZ=            -52.2870
   XY=              4.8984   XZ=              1.0093   YZ=             -0.7731

  Exact polarizability:  98.841  -2.323  79.163   6.631  -0.928  57.193
 Approx polarizability: 137.676 -10.895 115.068  14.311  -2.349  89.931

                      1                      2                      3
                      A                      A                      A
 Frequencies --     32.3410                74.3997               104.2112
 Red. masses --      2.8602                 5.0863                 1.9235
 Frc consts  --      0.0018                 0.0166                 0.0123
 IR Inten    --      2.9859                 1.6059                 0.4439

                      4                      5                      6
                      A                      A                      A
 Frequencies --    190.2504               229.3080               312.2368
 Red. masses --      2.7982                 1.1728                 2.8501
 Frc consts  --      0.0597                 0.0363                 0.1637
 IR Inten    --      0.4048                 0.8051                 0.8196

                      7                      8                      9
                      A                      A                      A
 Frequencies --    404.5731               459.9187               463.9645
 Red. masses --      3.3602                 3.3032                 4.3553
 Frc consts  --      0.3240                 0.4117                 0.5524
 IR Inten    --      2.2500                 0.4904                 2.3471

                     10                     11                     12
                      A                      A                      A
 Frequencies --    537.0464               553.6735               574.2416
 Red. masses --      5.7358                 3.1618                 3.5224
 Frc consts  --      0.9747                 0.5711                 0.6843
 IR Inten    --      5.7390                 0.7481                 1.9832

                     13                     14                     15
                      A                      A                      A
 Frequencies --    702.9968               731.8155               814.6856
 Red. masses --      2.0594                 1.5769                 1.6978
 Frc consts  --      0.5997                 0.4976                 0.6639
 IR Inten    --     16.1799                20.0656                 1.4645

                     16                     17                     18
                      A                      A                      A
 Frequencies --    887.5681               904.4152               971.3577
 Red. masses --      1.9472                 4.5419                 2.0744
 Frc consts  --      0.9038                 2.1889                 1.1532
 IR Inten    --     11.8279                17.6815                 0.3084

                     19                     20                     21
                      A                      A                      A
 Frequencies --    973.0211               984.4591              1007.1864
 Red. masses --      2.2685                 2.9396                 1.3472
 Frc consts  --      1.2654                 1.6785                 0.8052
 IR Inten    --     12.0562                11.7638                 0.2295

                     22                     23                     24
                      A                      A                      A
 Frequencies --   1037.6774              1074.2570              1123.3058
 Red. masses --      1.6872                 2.6736                 2.2680
 Frc consts  --      1.0704                 1.8179                 1.6861
 IR Inten    --      7.2711                36.6983                40.4158

                     25                     26                     27
                      A                      A                      A
 Frequencies --   1145.3665              1181.7105              1212.5431
 Red. masses --      1.8121                 1.7368                 1.1463
 Frc consts  --      1.4006                 1.4289                 0.9930
 IR Inten    --     40.7313                64.6998                 3.8671

                     28                     29                     30
                      A                      A                      A
 Frequencies --   1236.7968              1289.0428              1315.1282
 Red. masses --      1.8610                 1.2952                 1.2360
 Frc consts  --      1.6773                 1.2680                 1.2595
 IR Inten    --    149.0781                 3.6288                21.3976

                     31                     32                     33
                      A                      A                      A
 Frequencies --   1351.3242              1376.9165              1403.1221
 Red. masses --      1.7656                 1.4007                 1.4216
 Frc consts  --      1.8996                 1.5646                 1.6490
 IR Inten    --     21.1336                 1.5079                36.1768

                     34                     35                     36
                      A                      A                      A
 Frequencies --   1413.3034              1418.8195              1449.4372
 Red. masses --      1.3385                 1.6470                 1.0804
 Frc consts  --      1.5752                 1.9534                 1.3373
 IR Inten    --      4.6472                 6.6832                 3.0721

                     37                     38                     39
                      A                      A                      A
 Frequencies --   1475.7792              1496.7782              1508.8077
 Red. masses --      1.0785                 1.0417                 1.0548
 Frc consts  --      1.3840                 1.3750                 1.4147
 IR Inten    --      0.7487                 4.2223                 5.0263

                     40                     41                     42
                      A                      A                      A
 Frequencies --   1751.6522              1840.1000              2996.9581
 Red. masses --      7.0880                12.7214                 1.0824
 Frc consts  --     12.8135                25.3786                 5.7277
 IR Inten    --      3.5538               332.4407                24.2543

                     43                     44                     45
                      A                      A                      A
 Frequencies --   3029.3817              3030.0833              3039.4301
 Red. masses --      1.0639                 1.0610                 1.0387
 Frc consts  --      5.7524                 5.7394                 5.6535
 IR Inten    --     13.5383                18.2176                24.5385

                     46                     47                     48
                      A                      A                      A
 Frequencies --   3057.8417              3069.0885              3105.6928
 Red. masses --      1.0946                 1.1008                 1.1003
 Frc consts  --      6.0303                 6.1092                 6.2527
 IR Inten    --      5.2578                20.0296                33.6239

                     49                     50                     51
                      A                      A                      A
 Frequencies --   3130.7720              3160.0479              3182.5690
 Red. masses --      1.1010                 1.0839                 1.0981
 Frc consts  --      6.3584                 6.3770                 6.5529
 IR Inten    --     17.3991                 5.8703                17.1346

 - Thermochemistry -
 -------------------
 Temperature   298.150 Kelvin.  Pressure   1.00000 Atm.
 Atom     1 has atomic number  6 and mass  12.00000

 Molecular mass:   126.06808 amu.
 Principal axes and moments of inertia in atomic units:
                           1         2         3
     Eigenvalues --   726.128981318.585031899.94760
           X            0.99842   0.05617   0.00192
           Y           -0.05617   0.99842  -0.00228
           Z           -0.00204   0.00217   1.00000
 This molecule is an asymmetric top.
 Rotational symmetry number  1.
 Warning -- assumption of classical behavior for rotation
           may cause significant error
 Rotational temperatures (Kelvin)      0.11928     0.06569     0.04559
 Rotational constants (GHZ):           2.48543     1.36870     0.94989
 Zero-point vibrational energy     417600.8 (Joules/Mol)
                                   99.80899 (Kcal/Mol)
 Warning -- explicit consideration of  12 degrees of freedom as
           vibrations may cause significant error
 Vibrational temperatures:     46.53   107.04   149.94   273.73   329.92
          (Kelvin)            449.24   582.09   661.72   667.54   772.69
                              796.61   826.20  1011.45  1052.92  1172.15
                             1277.01  1301.25  1397.57  1399.96  1416.42
                             1449.11  1492.98  1545.61  1616.18  1647.92
                             1700.22  1744.58  1779.47  1854.64  1892.17
                             1944.25  1981.07  2018.78  2033.43  2041.36
                             2085.41  2123.31  2153.53  2170.84  2520.23
                             2647.49  4311.95  4358.60  4359.61  4373.06
                             4399.55  4415.73  4468.39  4504.48  4546.60
                             4579.00

 Zero-point correction=                           0.159056 (Hartree/Particle)
 Thermal correction to Energy=                    0.167932
 Thermal correction to Enthalpy=                  0.168876
 Thermal correction to Gibbs Free Energy=         0.124189
 Sum of electronic and zero-point Energies=           -423.078073
 Sum of electronic and thermal Energies=              -423.069197
 Sum of electronic and thermal Enthalpies=            -423.068253
 Sum of electronic and thermal Free Energies=         -423.112939

                     E (Thermal)             CV                S
                      KCal/Mol        Cal/Mol-Kelvin    Cal/Mol-Kelvin
 Total                  105.379             32.437             94.051
 Electronic               0.000              0.000              0.000
 Translational            0.889              2.981             40.409
 Rotational               0.889              2.981             28.988
 Vibrational            103.601             26.475             24.654
 Vibration     1          0.594              1.983              5.680
 Vibration     2          0.599              1.966              4.033
 Vibration     3          0.605              1.946              3.374
 Vibration     4          0.634              1.853              2.225
 Vibration     5          0.652              1.796              1.884
 Vibration     6          0.701              1.650              1.350
 Vibration     7          0.770              1.460              0.946
 Vibration     8          0.818              1.339              0.766
 Vibration     9          0.822              1.330              0.755
 Vibration    10          0.892              1.168              0.572
 Vibration    11          0.909              1.132              0.537
 Vibration    12          0.931              1.087              0.496

 Normal termination of Gaussian 09 at Tue Jan 28 14:05:29 2020.
