 Gaussian 09, Revision D.01,
 Gaussian 09:  ES64L-G09RevD.01 24-Apr-2013

 -----------------------------
 # b3lyp 6-31G(2df,p) opt Freq
 -----------------------------

 -----
 titel
 -----
 Symbolic Z-matrix:
 Charge =  0 Multiplicity = 1

 SCF Done:  E(RB3LYP) =  -423.230626864     A.U. after   14 cycles
 Optimization completed.
    -- Stationary point found.
 Normal termination of Gaussian 09 at Mon Jan 27 18:51:15 2020.

 ----------------------------------------------------------------------
 #N Geom=AllCheck Guess=TCheck SCRF=Check GenChk RB3LYP/6-31G(2df,p) Fr
 eq
 ----------------------------------------------------------------------

 Structure from the checkpoint file:  "/scratch/puck/g09_fcd2f303-2407-4e8a-9bed-b917fe685599/Gau-64445.chk"
 -----
 titel
 -----
 Charge =  0 Multiplicity = 1

                         Standard orientation:
 ---------------------------------------------------------------------
 Center     Atomic      Atomic             Coordinates (Angstroms)
 Number     Number       Type             X           Y           Z
 ---------------------------------------------------------------------
      1          6           0       -0.452396   -1.702787    1.219565
      2          6           0        0.046296   -0.668115    0.221594
      3          6           0        0.967422   -1.146827   -0.940834
      4          6           0        1.859343    0.107093   -0.722563
      5          6           0        1.102387    0.406064    0.605562
      6          6           0        0.321254    1.715457    0.676084
      7          8           0       -0.879176    1.503455   -0.090559
      8          6           0       -1.109922    0.179452   -0.312985
      9          8           0       -2.100361   -0.209700   -0.862918
     10          1           0       -0.924036   -1.232759    2.089607
     11          1           0       -1.197175   -2.348878    0.745108
     12          1           0        0.374101   -2.325477    1.575751
     13          1           0        1.478178   -2.077470   -0.679260
     14          1           0        0.493668   -1.271294   -1.916849
     15          1           0        2.931741   -0.073447   -0.630396
     16          1           0        1.705660    0.883180   -1.477859
     17          1           0        1.683682    0.212241    1.508168
     18          1           0        0.032518    1.977809    1.700661
     19          1           0        0.851659    2.564035    0.234348
 ---------------------------------------------------------------------

 SCF Done:  E(RB3LYP) =  -423.230626864     A.U. after    1 cycles

 The electronic state is 1-A.
 Alpha  occ. eigenvalues --  -19.17837 -19.11862 -10.29670 -10.24724 -10.20905
 Alpha  occ. eigenvalues --  -10.20289 -10.19481 -10.19346 -10.18661  -1.09508
 Alpha  occ. eigenvalues --   -1.01630  -0.86685  -0.75248  -0.73188  -0.66630
 Alpha  occ. eigenvalues --   -0.64333  -0.57636  -0.54674  -0.50329  -0.48499
 Alpha  occ. eigenvalues --   -0.46828  -0.44292  -0.43506  -0.42270  -0.41851
 Alpha  occ. eigenvalues --   -0.41375  -0.38058  -0.35160  -0.34702  -0.34074
 Alpha  occ. eigenvalues --   -0.31550  -0.31023  -0.29002  -0.25812
 Alpha virt. eigenvalues --    0.01313   0.07320   0.09572   0.10413   0.10776
 Alpha virt. eigenvalues --    0.12418   0.12885   0.14572   0.15573   0.16514
 Alpha virt. eigenvalues --    0.17400   0.18162   0.19426   0.20960   0.21868

 Mulliken charges:
               1
     1  C   -0.475922
     2  C    0.172719
     3  C   -0.262578
     4  C   -0.237587
     5  C   -0.070276
     6  C   -0.104863
     7  O   -0.228093
     8  C    0.414868
     9  O   -0.356003
    10  H    0.121480
    11  H    0.146257
    12  H    0.114646
    13  H    0.105757
    14  H    0.121615
    15  H    0.106479
    16  H    0.114279
    17  H    0.079654
    18  H    0.115420
    19  H    0.122149
 Sum of Mulliken charges =   0.00000

 Dipole moment (field-independent basis, Debye):
    X=              3.7627    Y=             -0.1059    Z=              1.9203  Tot=              4.2257
 Quadrupole moment (field-independent basis, Debye-Ang):
   XX=            -59.3064   YY=            -51.8458   ZZ=            -52.2782
   XY=              1.1651   XZ=             -3.2380   YZ=              0.6579

  Exact polarizability:  76.555   3.783  77.314   0.715   2.580  68.541
 Approx polarizability: 113.146   6.807 110.532   7.145   5.536 101.923

                      1                      2                      3
                      A                      A                      A
 Frequencies --     82.6296               160.1187               206.1040
 Red. masses --      3.0995                 3.5618                 1.8582
 Frc consts  --      0.0125                 0.0538                 0.0465
 IR Inten    --      1.2184                 0.3932                 2.3747

                      4                      5                      6
                      A                      A                      A
 Frequencies --    222.1184               256.2840               282.0659
 Red. masses --      1.3064                 2.7316                 2.5870
 Frc consts  --      0.0380                 0.1057                 0.1213
 IR Inten    --      1.8839                 0.6519                 2.3855

                      7                      8                      9
                      A                      A                      A
 Frequencies --    371.2700               493.9585               588.4802
 Red. masses --      2.1944                 3.6575                 5.1168
 Frc consts  --      0.1782                 0.5258                 1.0440
 IR Inten    --      0.7640                 2.7788                 4.0456

                     10                     11                     12
                      A                      A                      A
 Frequencies --    625.3343               702.5108               730.9245
 Red. masses --      4.1584                 2.4503                 3.4552
 Frc consts  --      0.9581                 0.7125                 1.0876
 IR Inten    --      1.4581                 0.1986                 1.3982

                     13                     14                     15
                      A                      A                      A
 Frequencies --    759.1981               809.0309               827.3471
 Red. masses --      5.6155                 1.9013                 2.1200
 Frc consts  --      1.9070                 0.7332                 0.8550
 IR Inten    --      4.1918                 0.6147                 0.4343

                     16                     17                     18
                      A                      A                      A
 Frequencies --    876.6784               923.6419               950.1940
 Red. masses --      2.0962                 1.9491                 2.3154
 Frc consts  --      0.9492                 0.9797                 1.2317
 IR Inten    --      0.4933                 2.5326                 0.8095

                     19                     20                     21
                      A                      A                      A
 Frequencies --    978.4827              1008.3228              1032.7952
 Red. masses --      1.5958                 3.0312                 1.3441
 Frc consts  --      0.9002                 1.8158                 0.8447
 IR Inten    --      9.1847                38.4693                 2.8786

                     22                     23                     24
                      A                      A                      A
 Frequencies --   1081.7741              1104.9641              1146.6904
 Red. masses --      3.1071                 2.8499                 2.1740
 Frc consts  --      2.1423                 2.0501                 1.6842
 IR Inten    --     36.5705               111.8148                 6.5304

                     25                     26                     27
                      A                      A                      A
 Frequencies --   1163.6684              1175.3309              1205.7731
 Red. masses --      2.0481                 2.1145                 1.9990
 Frc consts  --      1.6340                 1.7210                 1.7124
 IR Inten    --     48.8078                 6.7545                23.2121

                     28                     29                     30
                      A                      A                      A
 Frequencies --   1238.5586              1245.9428              1255.8055
 Red. masses --      1.3220                 1.2502                 1.8531
 Frc consts  --      1.1949                 1.1435                 1.7218
 IR Inten    --     11.6911                 1.3531                14.9099

                     31                     32                     33
                      A                      A                      A
 Frequencies --   1273.6246              1316.7025              1333.3314
 Red. masses --      1.4635                 1.7935                 1.8220
 Frc consts  --      1.3987                 1.8320                 1.9084
 IR Inten    --      1.5144                 6.6946                 0.8777

                     34                     35                     36
                      A                      A                      A
 Frequencies --   1397.0395              1407.9042              1479.0969
 Red. masses --      1.4308                 1.2696                 1.0796
 Frc consts  --      1.6453                 1.4828                 1.3916
 IR Inten    --     15.7899                11.3617                 1.4789

                     37                     38                     39
                      A                      A                      A
 Frequencies --   1489.4376              1492.0854              1499.2094
 Red. masses --      1.0524                 1.0797                 1.0926
 Frc consts  --      1.3755                 1.4163                 1.4469
 IR Inten    --      4.5013                 2.5037                 5.5655

                     40                     41                     42
                      A                      A                      A
 Frequencies --   1518.9806              1869.2102              3031.2888
 Red. masses --      1.0882                12.7143                 1.0362
 Frc consts  --      1.4793                26.1734                 5.6100
 IR Inten    --      3.3471               308.7059                20.5110

                     43                     44                     45
                      A                      A                      A
 Frequencies --   3034.5621              3061.1177              3063.7420
 Red. masses --      1.0608                 1.0577                 1.0626
 Frc consts  --      5.7555                 5.8392                 5.8763
 IR Inten    --     46.9688                31.4296                21.8673

                     46                     47                     48
                      A                      A                      A
 Frequencies --   3088.9406              3097.6066              3098.9188
 Red. masses --      1.1025                 1.0925                 1.1008
 Frc consts  --      6.1978                 6.1760                 6.2284
 IR Inten    --     21.2654                21.8026                19.7313

                     49                     50                     51
                      A                      A                      A
 Frequencies --   3111.9808              3114.1585              3126.5059
 Red. masses --      1.1042                 1.1017                 1.1063
 Frc consts  --      6.3005                 6.2952                 6.3717
 IR Inten    --      4.3087                 9.1428                39.7957

 - Thermochemistry -
 -------------------
 Temperature   298.150 Kelvin.  Pressure   1.00000 Atm.
 Atom     1 has atomic number  6 and mass  12.00000

 Molecular mass:   126.06808 amu.
 Principal axes and moments of inertia in atomic units:
                           1         2         3
     Eigenvalues --   848.79330 951.719441246.65785
           X            0.99344   0.10273  -0.05020
           Y           -0.10366   0.99448  -0.01628
           Z            0.04825   0.02137   0.99861
 This molecule is an asymmetric top.
 Rotational symmetry number  1.
 Warning -- assumption of classical behavior for rotation
           may cause significant error
 Rotational temperatures (Kelvin)      0.10204     0.09101     0.06948
 Rotational constants (GHZ):           2.12624     1.89630     1.44766
 Zero-point vibrational energy     421153.9 (Joules/Mol)
                                  100.65821 (Kcal/Mol)
 Warning -- explicit consideration of   9 degrees of freedom as
           vibrations may cause significant error
 Vibrational temperatures:    118.89   230.37   296.54   319.58   368.74
          (Kelvin)            405.83   534.17   710.70   846.69   899.72
                             1010.76  1051.64  1092.32  1164.01  1190.37
                             1261.34  1328.91  1367.12  1407.82  1450.75
                             1485.96  1556.43  1589.79  1649.83  1674.26
                             1691.04  1734.84  1782.01  1792.63  1806.82
                             1832.46  1894.44  1918.36  2010.03  2025.66
                             2128.09  2142.97  2146.78  2157.03  2185.47
                             2689.37  4361.34  4366.05  4404.26  4408.04
                             4444.29  4456.76  4458.65  4477.44  4480.57
                             4498.34

 Zero-point correction=                           0.160409 (Hartree/Particle)
 Thermal correction to Energy=                    0.168467
 Thermal correction to Enthalpy=                  0.169412
 Thermal correction to Gibbs Free Energy=         0.127835
 Sum of electronic and zero-point Energies=           -423.070218
 Sum of electronic and thermal Energies=              -423.062159
 Sum of electronic and thermal Enthalpies=            -423.061215
 Sum of electronic and thermal Free Energies=         -423.102792

                     E (Thermal)             CV                S
                      KCal/Mol        Cal/Mol-Kelvin    Cal/Mol-Kelvin
 Total                  105.715             30.889             87.506
 Electronic               0.000              0.000              0.000
 Translational            0.889              2.981             40.409
 Rotational               0.889              2.981             28.401
 Vibrational            103.937             24.928             18.696
 Vibration     1          0.600              1.961              3.827
 Vibration     2          0.622              1.891              2.548
 Vibration     3          0.641              1.831              2.078
 Vibration     4          0.648              1.807              1.942
 Vibration     5          0.666              1.752              1.687
 Vibration     6          0.681              1.707              1.521
 Vibration     7          0.743              1.531              1.075
 Vibration     8          0.850              1.263              0.673
 Vibration     9          0.946              1.056              0.470

 Optimization completed.
    -- Stationary point found.
 Normal termination of Gaussian 09 at Mon Jan 27 19:36:35 2020.
