 Gaussian 09, Revision D.01,
 Gaussian 09:  ES64L-G09RevD.01 24-Apr-2013

 -----------------------------
 # b3lyp 6-31G(2df,p) opt Freq
 -----------------------------

 -----
 titel
 -----
 Symbolic Z-matrix:
 Charge =  0 Multiplicity = 1

 SCF Done:  E(RB3LYP) =  -423.149323771     A.U. after   14 cycles
 Optimization completed.
    -- Stationary point found.
 Normal termination of Gaussian 09 at Mon Jan 27 16:57:07 2020.

 ----------------------------------------------------------------------
 #N Geom=AllCheck Guess=TCheck SCRF=Check GenChk RB3LYP/6-31G(2df,p) Fr
 eq
 ----------------------------------------------------------------------

 Structure from the checkpoint file:  "/scratch/puck/g09_6aaa0f89-af77-428b-ad21-b0da5795f7e1/Gau-178023.chk"
 -----
 titel
 -----
 Charge =  0 Multiplicity = 1

                         Standard orientation:
 ---------------------------------------------------------------------
 Center     Atomic      Atomic             Coordinates (Angstroms)
 Number     Number       Type             X           Y           Z
 ---------------------------------------------------------------------
      1          6           0       -0.723087   -0.274236    1.735903
      2          6           0       -0.604450   -0.020324    0.218730
      3          6           0        0.152816    1.294150   -0.110734
      4          6           0        1.659659    1.118475    0.085321
      5          8           0        2.119749   -0.012644   -0.640029
      6          6           0        1.450626   -1.169101   -0.219742
      7          8           0        0.062436   -1.118255   -0.438588
      8          6           0       -1.951170    0.033785   -0.357799
      9          6           0       -3.063284    0.115771   -0.803854
     10          1           0       -1.346451    0.497890    2.194203
     11          1           0       -1.190011   -1.246725    1.906431
     12          1           0        0.250899   -0.262728    2.230687
     13          1           0       -0.037640    1.541889   -1.158272
     14          1           0       -0.230052    2.112607    0.506937
     15          1           0        2.204727    1.983776   -0.300406
     16          1           0        1.915007    1.009827    1.152376
     17          1           0        1.820619   -1.996705   -0.828202
     18          1           0        1.672477   -1.360729    0.845875
     19          1           0       -4.043714    0.176982   -1.207648
 ---------------------------------------------------------------------

 SCF Done:  E(RB3LYP) =  -423.149323771     A.U. after    1 cycles

 The electronic state is 1-A.
 Alpha  occ. eigenvalues --  -19.14622 -19.14552 -10.27302 -10.26848 -10.23621
 Alpha  occ. eigenvalues --  -10.19153 -10.18550 -10.18133 -10.17725  -1.07413
 Alpha  occ. eigenvalues --   -1.00829  -0.82163  -0.74870  -0.72244  -0.67982
 Alpha  occ. eigenvalues --   -0.66029  -0.57412  -0.54150  -0.50934  -0.49714
 Alpha  occ. eigenvalues --   -0.48032  -0.45867  -0.44751  -0.43806  -0.40672
 Alpha  occ. eigenvalues --   -0.39865  -0.38205  -0.35828  -0.33128  -0.32026
 Alpha  occ. eigenvalues --   -0.28155  -0.27571  -0.26699  -0.25805
 Alpha virt. eigenvalues --    0.03748   0.05060   0.08336   0.11499   0.12612
 Alpha virt. eigenvalues --    0.12819   0.13483   0.13999   0.14356   0.16530
 Alpha virt. eigenvalues --    0.17951   0.18845   0.19052   0.20836   0.21561

 Mulliken charges:
               1
     1  C   -0.425969
     2  C    0.151126
     3  C   -0.223911
     4  C   -0.105655
     5  O   -0.230496
     6  C    0.014122
     7  O   -0.280128
     8  C    0.320085
     9  C   -0.440933
    10  H    0.129803
    11  H    0.137747
    12  H    0.117703
    13  H    0.125273
    14  H    0.106801
    15  H    0.116165
    16  H    0.092735
    17  H    0.121681
    18  H    0.077862
    19  H    0.195990
 Sum of Mulliken charges =   0.00000

 Dipole moment (field-independent basis, Debye):
    X=             -0.2222    Y=              1.1061    Z=              1.6040  Tot=              1.9611
 Quadrupole moment (field-independent basis, Debye-Ang):
   XX=            -51.4658   YY=            -51.6107   ZZ=            -53.3714
   XY=             -1.0769   XZ=              2.9226   YZ=             -0.6030

  Exact polarizability:  95.783  -1.830  68.131   7.186  -0.424  66.952
 Approx polarizability: 136.152  -3.702  97.764  13.779   1.058 100.180

                      1                      2                      3
                      A                      A                      A
 Frequencies --    120.5990               149.5448               206.9334
 Red. masses --      4.6833                 3.6254                 2.6976
 Frc consts  --      0.0401                 0.0478                 0.0681
 IR Inten    --      0.9622                 1.0028                 0.4405

                      4                      5                      6
                      A                      A                      A
 Frequencies --    216.8672               248.2446               348.6725
 Red. masses --      1.3402                 1.7012                 2.3074
 Frc consts  --      0.0371                 0.0618                 0.1653
 IR Inten    --      0.6138                 0.6633                 2.8969

                      7                      8                      9
                      A                      A                      A
 Frequencies --    362.9319               415.2747               441.1324
 Red. masses --      2.6663                 2.7374                 3.9984
 Frc consts  --      0.2069                 0.2781                 0.4584
 IR Inten    --      1.4307                 4.2581                 3.3115

                     10                     11                     12
                      A                      A                      A
 Frequencies --    486.4170               536.2997               558.5937
 Red. masses --      3.9343                 4.3468                 4.8192
 Frc consts  --      0.5485                 0.7366                 0.8860
 IR Inten    --      0.7990                 2.2550                 7.4610

                     13                     14                     15
                      A                      A                      A
 Frequencies --    625.2650               668.8019               670.2883
 Red. masses --      1.2241                 1.6574                 2.1570
 Frc consts  --      0.2820                 0.4368                 0.5710
 IR Inten    --     42.3916                27.8159                12.7914

                     16                     17                     18
                      A                      A                      A
 Frequencies --    702.2579               851.3003               886.1266
 Red. masses --      3.3023                 2.6944                 2.3722
 Frc consts  --      0.9595                 1.1505                 1.0975
 IR Inten    --      3.4927                22.1160                 3.6494

                     19                     20                     21
                      A                      A                      A
 Frequencies --    923.3900               965.6003               998.6641
 Red. masses --      1.9207                 1.9278                 2.6774
 Frc consts  --      0.9649                 1.0590                 1.5732
 IR Inten    --      2.4109                 1.7239                56.6352

                     22                     23                     24
                      A                      A                      A
 Frequencies --   1013.0119              1055.1107              1106.2067
 Red. masses --      2.0658                 8.1891                 2.8416
 Frc consts  --      1.2490                 5.3714                 2.0487
 IR Inten    --      0.2103               153.0998                25.2912

                     25                     26                     27
                      A                      A                      A
 Frequencies --   1131.6286              1169.1849              1197.9219
 Red. masses --      2.1168                 2.3127                 3.6935
 Frc consts  --      1.5971                 1.8627                 3.1228
 IR Inten    --     13.2509                27.4493               156.4728

                     28                     29                     30
                      A                      A                      A
 Frequencies --   1245.8041              1263.3323              1272.3797
 Red. masses --      2.7658                 1.3018                 1.2509
 Frc consts  --      2.5291                 1.2242                 1.1932
 IR Inten    --     41.2868                 4.9135                24.3014

                     31                     32                     33
                      A                      A                      A
 Frequencies --   1328.2535              1369.2485              1396.4395
 Red. masses --      1.1837                 1.4022                 1.2574
 Frc consts  --      1.2304                 1.5489                 1.4446
 IR Inten    --      4.4310                 4.6497                12.6163

                     34                     35                     36
                      A                      A                      A
 Frequencies --   1402.5018              1444.5274              1467.7639
 Red. masses --      1.2414                 1.2107                 1.0928
 Frc consts  --      1.4387                 1.4884                 1.3871
 IR Inten    --      9.3256                20.1385                 3.3423

                     37                     38                     39
                      A                      A                      A
 Frequencies --   1486.2431              1489.8101              1505.3061
 Red. masses --      1.0577                 1.0648                 1.0743
 Frc consts  --      1.3766                 1.3925                 1.4343
 IR Inten    --      0.8969                 0.9862                 2.2288

                     40                     41                     42
                      A                      A                      A
 Frequencies --   1517.0582              2242.7716              2939.0647
 Red. masses --      1.0970                 5.8996                 1.0698
 Frc consts  --      1.4875                17.4841                 5.4447
 IR Inten    --      4.0942                 1.4046                69.9904

                     43                     44                     45
                      A                      A                      A
 Frequencies --   2973.3307              3053.3874              3057.9446
 Red. masses --      1.0706                 1.0401                 1.0543
 Frc consts  --      5.5765                 5.7131                 5.8086
 IR Inten    --     57.2037                15.5353                 9.3083

                     46                     47                     48
                      A                      A                      A
 Frequencies --   3093.2526              3109.8074              3112.2576
 Red. masses --      1.0917                 1.1044                 1.0936
 Frc consts  --      6.1542                 6.2926                 6.2410
 IR Inten    --     32.9893                16.2590                35.8173

                     49                     50                     51
                      A                      A                      A
 Frequencies --   3128.1752              3137.1785              3501.8697
 Red. masses --      1.1014                 1.1029                 1.1633
 Frc consts  --      6.3502                 6.3952                 8.4047
 IR Inten    --     21.3969                13.4865                64.0873

 - Thermochemistry -
 -------------------
 Temperature   298.150 Kelvin.  Pressure   1.00000 Atm.
 Atom     1 has atomic number  6 and mass  12.00000

 Molecular mass:   126.06808 amu.
 Principal axes and moments of inertia in atomic units:
                           1         2         3
     Eigenvalues --   599.680771462.734251522.95278
           X            0.99998   0.00025   0.00628
           Y            0.00035   0.99538  -0.09598
           Z           -0.00627   0.09598   0.99536
 This molecule is an asymmetric top.
 Rotational symmetry number  1.
 Warning -- assumption of classical behavior for rotation
           may cause significant error
 Rotational temperatures (Kelvin)      0.14443     0.05921     0.05687
 Rotational constants (GHZ):           3.00950     1.23381     1.18503
 Zero-point vibrational energy     416264.4 (Joules/Mol)
                                   99.48959 (Kcal/Mol)
 Warning -- explicit consideration of  12 degrees of freedom as
           vibrations may cause significant error
 Vibrational temperatures:    173.51   215.16   297.73   312.02   357.17
          (Kelvin)            501.66   522.18   597.49   634.69   699.84
                              771.61   803.69   899.62   962.26   964.39
                             1010.39  1224.83  1274.94  1328.55  1389.28
                             1436.85  1457.50  1518.07  1591.58  1628.16
                             1682.19  1723.54  1792.43  1817.65  1830.67
                             1911.06  1970.04  2009.16  2017.88  2078.35
                             2111.78  2138.37  2143.50  2165.80  2182.71
                             3226.84  4228.65  4277.95  4393.14  4399.69
                             4450.50  4474.31  4477.84  4500.74  4513.69
                             5038.40

 Zero-point correction=                           0.158547 (Hartree/Particle)
 Thermal correction to Energy=                    0.167198
 Thermal correction to Enthalpy=                  0.168142
 Thermal correction to Gibbs Free Energy=         0.125793
 Sum of electronic and zero-point Energies=           -422.990777
 Sum of electronic and thermal Energies=              -422.982126
 Sum of electronic and thermal Enthalpies=            -422.981182
 Sum of electronic and thermal Free Energies=         -423.023531

                     E (Thermal)             CV                S
                      KCal/Mol        Cal/Mol-Kelvin    Cal/Mol-Kelvin
 Total                  104.918             33.753             89.130
 Electronic               0.000              0.000              0.000
 Translational            0.889              2.981             40.409
 Rotational               0.889              2.981             28.681
 Vibrational            103.141             27.791             20.041
 Vibration     1          0.609              1.932              3.091
 Vibration     2          0.618              1.903              2.678
 Vibration     3          0.641              1.830              2.071
 Vibration     4          0.646              1.815              1.985
 Vibration     5          0.662              1.766              1.743
 Vibration     6          0.726              1.578              1.172
 Vibration     7          0.737              1.549              1.110
 Vibration     8          0.779              1.437              0.908
 Vibration     9          0.801              1.380              0.823
 Vibration    10          0.842              1.280              0.693
 Vibration    11          0.891              1.170              0.573
 Vibration    12          0.914              1.121              0.527

 Optimization completed.
    -- Stationary point found.
 Normal termination of Gaussian 09 at Mon Jan 27 17:42:34 2020.
