 Gaussian 09, Revision D.01,
 Gaussian 09:  ES64L-G09RevD.01 24-Apr-2013

 -----------------------------
 # b3lyp 6-31G(2df,p) opt Freq
 -----------------------------

 -----
 titel
 -----
 Symbolic Z-matrix:
 Charge =  0 Multiplicity = 1

 SCF Done:  E(RB3LYP) =  -423.231399409     A.U. after   14 cycles
 Optimization completed.
    -- Stationary point found.
 Normal termination of Gaussian 09 at Tue Jan 28 14:09:45 2020.

 ----------------------------------------------------------------------
 #N Geom=AllCheck Guess=TCheck SCRF=Check GenChk RB3LYP/6-31G(2df,p) Fr
 eq
 ----------------------------------------------------------------------

 Structure from the checkpoint file:  "/scratch/puck/g09_1ac5c6e3-9ef6-4b43-a993-ad28d9844629/Gau-3871.chk"
 -----
 titel
 -----
 Charge =  0 Multiplicity = 1

                         Standard orientation:
 ---------------------------------------------------------------------
 Center     Atomic      Atomic             Coordinates (Angstroms)
 Number     Number       Type             X           Y           Z
 ---------------------------------------------------------------------
      1          6           0       -2.833441   -0.250839    0.374435
      2          6           0       -1.479083   -0.955216    0.475459
      3          6           0       -0.415339   -0.471257   -0.555293
      4          6           0        0.750074   -1.416901   -0.594595
      5          6           0        1.926073   -1.105622   -0.066495
      6          6           0        2.186769    0.226132    0.555560
      7          8           0        1.190939    1.222627    0.302574
      8          6           0       -0.012427    0.969949   -0.265461
      9          8           0       -0.737075    1.900931   -0.500057
     10          1           0       -3.522212   -0.642103    1.129707
     11          1           0       -2.734451    0.827003    0.516046
     12          1           0       -3.286877   -0.414186   -0.609261
     13          1           0       -1.062855   -0.845539    1.484556
     14          1           0       -1.610253   -2.033124    0.319738
     15          1           0       -0.907036   -0.439618   -1.535296
     16          1           0        0.578155   -2.392930   -1.040729
     17          1           0        2.756014   -1.805925   -0.058387
     18          1           0        2.292890    0.133220    1.646217
     19          1           0        3.129963    0.647266    0.185615
 ------------------------------------------------------------------------------------------------------

 SCF Done:  E(RB3LYP) =  -423.231399409     A.U. after    1 cycles

 The electronic state is 1-A.
 Alpha  occ. eigenvalues --  -19.17979 -19.11399 -10.30258 -10.25638 -10.20874
 Alpha  occ. eigenvalues --  -10.20110 -10.19980 -10.19594 -10.17093  -1.09429
 Alpha  occ. eigenvalues --   -1.01153  -0.83300  -0.78561  -0.73715  -0.67711
 Alpha  occ. eigenvalues --   -0.61691  -0.60384  -0.52617  -0.51121  -0.49229
 Alpha  occ. eigenvalues --   -0.47666  -0.44800  -0.43097  -0.42031  -0.41016
 Alpha  occ. eigenvalues --   -0.40701  -0.38780  -0.35149  -0.34940  -0.34402
 Alpha  occ. eigenvalues --   -0.33173  -0.29273  -0.26671  -0.25459
 Alpha virt. eigenvalues --    0.00481   0.01526   0.07897   0.11208   0.11686
 Alpha virt. eigenvalues --    0.12498   0.14083   0.14690   0.15901   0.16150
 Alpha virt. eigenvalues --    0.16861   0.18065   0.19485   0.20333   0.22453

 Mulliken charges:
               1
     1  C   -0.387093
     2  C   -0.177053
     3  C   -0.184185
     4  C   -0.074747
     5  C   -0.088581
     6  C   -0.107820
     7  O   -0.232101
     8  C    0.414229
     9  O   -0.329096
    10  H    0.109317
    11  H    0.152332
    12  H    0.114999
    13  H    0.105566
    14  H    0.100361
    15  H    0.114282
    16  H    0.102381
    17  H    0.105519
    18  H    0.128916
    19  H    0.132774
 Sum of Mulliken charges =   0.00000

 Dipole moment (field-independent basis, Debye):
    X=              1.7154    Y=             -3.6342    Z=              0.5459  Tot=              4.0556
 Quadrupole moment (field-independent basis, Debye-Ang):
   XX=            -48.4022   YY=            -59.4075   ZZ=            -52.2494
   XY=              1.4743   XZ=              0.6545   YZ=              1.8705

  Exact polarizability:  99.935  -1.689  73.604   7.442   2.205  60.410
 Approx polarizability: 139.242  -2.843 109.905  17.932   2.631  95.459

                      1                      2                      3
                      A                      A                      A
 Frequencies --     36.1258               103.1460               109.0347
 Red. masses --      3.2126                 2.3468                 2.9046
 Frc consts  --      0.0025                 0.0147                 0.0203
 IR Inten    --      2.4032                 1.7124                 0.1620

                      4                      5                      6
                      A                      A                      A
 Frequencies --    201.4943               218.3904               261.0805
 Red. masses --      2.9036                 1.6807                 1.8236
 Frc consts  --      0.0695                 0.0472                 0.0732
 IR Inten    --      2.4655                 2.4548                 0.8444

                      7                      8                      9
                      A                      A                      A
 Frequencies --    359.0207               440.0887               452.7638
 Red. masses --      2.8374                 2.8553                 7.2383
 Frc consts  --      0.2155                 0.3258                 0.8742
 IR Inten    --      0.1132                 1.3218                 2.0083

                     10                     11                     12
                      A                      A                      A
 Frequencies --    536.3433               566.1804               693.9942
 Red. masses --      6.1615                 5.1832                 3.1202
 Frc consts  --      1.0443                 0.9789                 0.8854
 IR Inten    --      4.6398                 2.0427                 1.7503

                     13                     14                     15
                      A                      A                      A
 Frequencies --    717.6660               736.9533               820.4216
 Red. masses --      1.7045                 1.8978                 1.8759
 Frc consts  --      0.5173                 0.6073                 0.7439
 IR Inten    --     30.8898                 0.6578                 3.0228

                     16                     17                     18
                      A                      A                      A
 Frequencies --    890.8006               914.1016               945.8143
 Red. masses --      2.3851                 2.8523                 2.8083
 Frc consts  --      1.1151                 1.4042                 1.4802
 IR Inten    --      5.4168                14.9451                11.6757

                     19                     20                     21
                      A                      A                      A
 Frequencies --    999.2118              1004.9538              1031.8090
 Red. masses --      1.3631                 2.4242                 1.7786
 Frc consts  --      0.8018                 1.4425                 1.1156
 IR Inten    --      2.1981                 5.7196                10.3426

                     22                     23                     24
                      A                      A                      A
 Frequencies --   1043.9680              1093.1577              1102.1220
 Red. masses --      2.0135                 2.3886                 2.0209
 Frc consts  --      1.2930                 1.6817                 1.4463
 IR Inten    --      1.3256                16.5370                 5.0405

                     25                     26                     27
                      A                      A                      A
 Frequencies --   1141.0984              1167.1456              1244.8436
 Red. masses --      2.1818                 1.5926                 1.9150
 Frc consts  --      1.6738                 1.2782                 1.7484
 IR Inten    --    105.1148                39.0669               140.5485

                     28                     29                     30
                      A                      A                      A
 Frequencies --   1258.1335              1268.1745              1305.9111
 Red. masses --      1.0818                 1.3112                 1.2486
 Frc consts  --      1.0089                 1.2425                 1.2546
 IR Inten    --      2.6260                 5.2835                 0.6716

                     31                     32                     33
                      A                      A                      A
 Frequencies --   1348.5667              1374.5559              1412.9234
 Red. masses --      1.3209                 1.5696                 1.5608
 Frc consts  --      1.4153                 1.7473                 1.8358
 IR Inten    --     11.1920                 4.1887                10.3511

                     34                     35                     36
                      A                      A                      A
 Frequencies --   1416.9636              1429.6152              1487.0662
 Red. masses --      1.2565                 1.5742                 1.0674
 Frc consts  --      1.4864                 1.8956                 1.3907
 IR Inten    --      0.5527                34.9746                 0.0298

                     37                     38                     39
                      A                      A                      A
 Frequencies --   1493.9233              1504.4076              1507.6321
 Red. masses --      1.0396                 1.0921                 1.0632
 Frc consts  --      1.3670                 1.4562                 1.4238
 IR Inten    --      7.0717                 7.1229                 3.7087

                     40                     41                     42
                      A                      A                      A
 Frequencies --   1747.9341              1828.0954              3002.7185
 Red. masses --      6.9551                12.2141                 1.0665
 Frc consts  --     12.5200                24.0497                 5.6658
 IR Inten    --      3.6465               279.0108                41.5029

                     43                     44                     45
                      A                      A                      A
 Frequencies --   3023.0055              3035.4443              3038.9575
 Red. masses --      1.0609                 1.0819                 1.0397
 Frc consts  --      5.7122                 5.8731                 5.6574
 IR Inten    --     15.7515                16.9996                23.4672

                     46                     47                     48
                      A                      A                      A
 Frequencies --   3042.6796              3060.7088              3101.8610
 Red. masses --      1.0954                 1.0997                 1.1012
 Frc consts  --      5.9749                 6.0699                 6.2427
 IR Inten    --     25.0855                22.9632                35.1142

                     49                     50                     51
                      A                      A                      A
 Frequencies --   3139.0769              3157.1558              3183.1706
 Red. masses --      1.0993                 1.0848                 1.0976
 Frc consts  --      6.3824                 6.3707                 6.5526
 IR Inten    --     10.9277                 6.7407                15.3224

 - Thermochemistry -
 -------------------
 Temperature   298.150 Kelvin.  Pressure   1.00000 Atm.
 Atom     1 has atomic number  6 and mass  12.00000

 Molecular mass:   126.06808 amu.
 Principal axes and moments of inertia in atomic units:
                           1         2         3
     Eigenvalues --   696.544111271.609241733.58961
           X            0.99991   0.01324  -0.00183
           Y           -0.01322   0.99984   0.01181
           Z            0.00199  -0.01179   0.99993
 This molecule is an asymmetric top.
 Rotational symmetry number  1.
 Warning -- assumption of classical behavior for rotation
           may cause significant error
 Rotational temperatures (Kelvin)      0.12435     0.06811     0.04996
 Rotational constants (GHZ):           2.59099     1.41926     1.04104
 Zero-point vibrational energy     418695.4 (Joules/Mol)
                                  100.07061 (Kcal/Mol)
 Warning -- explicit consideration of  11 degrees of freedom as
           vibrations may cause significant error
 Vibrational temperatures:     51.98   148.40   156.88   289.90   314.21
          (Kelvin)            375.64   516.55   633.19   651.43   771.68
                              814.61   998.50  1032.56  1060.31  1180.40
                             1281.66  1315.19  1360.81  1437.64  1445.90
                             1484.54  1502.04  1572.81  1585.71  1641.78
                             1679.26  1791.05  1810.17  1824.62  1878.91
                             1940.28  1977.68  2032.88  2038.69  2056.89
                             2139.55  2149.42  2164.50  2169.14  2514.88
                             2630.22  4320.24  4349.43  4367.32  4372.38
                             4377.73  4403.67  4462.88  4516.43  4542.44
                             4579.87

 Zero-point correction=                           0.159473 (Hartree/Particle)
 Thermal correction to Energy=                    0.168325
 Thermal correction to Enthalpy=                  0.169269
 Thermal correction to Gibbs Free Energy=         0.124971
 Sum of electronic and zero-point Energies=           -423.071927
 Sum of electronic and thermal Energies=              -423.063075
 Sum of electronic and thermal Enthalpies=            -423.062130
 Sum of electronic and thermal Free Energies=         -423.106428

                     E (Thermal)             CV                S
                      KCal/Mol        Cal/Mol-Kelvin    Cal/Mol-Kelvin
 Total                  105.625             32.259             93.233
 Electronic               0.000              0.000              0.000
 Translational            0.889              2.981             40.409
 Rotational               0.889              2.981             28.820
 Vibrational            103.848             26.297             24.004
 Vibration     1          0.594              1.982              5.461
 Vibration     2          0.605              1.947              3.394
 Vibration     3          0.606              1.942              3.286
 Vibration     4          0.638              1.838              2.119
 Vibration     5          0.646              1.813              1.972
 Vibration     6          0.669              1.744              1.655
 Vibration     7          0.734              1.557              1.126
 Vibration     8          0.800              1.383              0.826
 Vibration     9          0.811              1.355              0.787
 Vibration    10          0.891              1.170              0.573
 Vibration    11          0.922              1.104              0.512

 Optimization completed.
    -- Stationary point found.
 Normal termination of Gaussian 09 at Tue Jan 28 15:04:46 2020.
