 Gaussian 09, Revision D.01,
 Gaussian 09:  ES64L-G09RevD.01 24-Apr-2013

 -----------------------------
 # b3lyp 6-31G(2df,p) opt Freq
 -----------------------------

 -----
 titel
 -----
 Symbolic Z-matrix:
 Charge =  0 Multiplicity = 1

 SCF Done:  E(RB3LYP) =  -423.165740046     A.U. after   14 cycles
 Optimization completed.
    -- Stationary point found.
 Normal termination of Gaussian 09 at Tue Jan 28 02:51:16 2020.

 ----------------------------------------------------------------------
 #N Geom=AllCheck Guess=TCheck SCRF=Check GenChk RB3LYP/6-31G(2df,p) Fr
 eq
 ----------------------------------------------------------------------

 Structure from the checkpoint file:  "/scratch/puck/g09_e4afa88a-2860-44d8-80e3-87be030f884e/Gau-60103.chk"
 -----
 titel
 -----
 Charge =  0 Multiplicity = 1

                         Standard orientation:
 ---------------------------------------------------------------------
 Center     Atomic      Atomic             Coordinates (Angstroms)
 Number     Number       Type             X           Y           Z
 ---------------------------------------------------------------------
      1          8           0       -2.963245   -0.536420   -0.303260
      2          6           0       -1.797882   -0.139384    0.409871
      3          6           0       -0.534716   -0.975232    0.073726
      4          6           0        0.628982    0.031295   -0.055722
      5          6           0        1.798338   -0.307863   -1.015846
      6          8           0        2.770350   -0.244414    0.044050
      7          6           0        1.753238    0.023628    1.024611
      8          6           0       -0.087599    1.340156   -0.248206
      9          6           0       -1.392304    1.253131   -0.000958
     10          1           0       -3.279555   -1.360460    0.079934
     11          1           0       -2.008476   -0.160603    1.492603
     12          1           0       -0.330579   -1.769441    0.797946
     13          1           0       -0.717983   -1.445606   -0.898404
     14          1           0        1.745099   -1.307546   -1.467803
     15          1           0        1.996874    0.429055   -1.804990
     16          1           0        1.674417   -0.779199    1.770582
     17          1           0        1.920986    0.976112    1.542977
     18          1           0        0.444515    2.246493   -0.519548
     19          1           0       -2.110477    2.063484   -0.044473
 ---------------------------------------------------------------------

 SCF Done:  E(RB3LYP) =  -423.165740046     A.U. after    1 cycles

 The electronic state is 1-A.
 Alpha  occ. eigenvalues --  -19.13660 -19.12900 -10.23759 -10.22818 -10.22685
 Alpha  occ. eigenvalues --  -10.20268 -10.18701 -10.18392 -10.18346  -1.03547
 Alpha  occ. eigenvalues --   -1.01877  -0.84435  -0.73189  -0.70898  -0.68997
 Alpha  occ. eigenvalues --   -0.62295  -0.56010  -0.53348  -0.51558  -0.50587
 Alpha  occ. eigenvalues --   -0.47271  -0.45120  -0.44277  -0.40847  -0.40072
 Alpha  occ. eigenvalues --   -0.39082  -0.37659  -0.34803  -0.32912  -0.32391
 Alpha  occ. eigenvalues --   -0.30733  -0.27087  -0.24974  -0.24440
 Alpha virt. eigenvalues --    0.00717   0.07427   0.08247   0.09569   0.11930
 Alpha virt. eigenvalues --    0.12484   0.13695   0.15166   0.16090   0.16656
 Alpha virt. eigenvalues --    0.17275   0.18171   0.20408   0.21050   0.22618

 Mulliken charges:
               1
     1  O   -0.433025
     2  C    0.072654
     3  C   -0.343093
     4  C    0.264017
     5  C   -0.120863
     6  O   -0.272544
     7  C   -0.115467
     8  C   -0.135191
     9  C   -0.082486
    10  H    0.283339
    11  H    0.073043
    12  H    0.095193
    13  H    0.115219
    14  H    0.096319
    15  H    0.099476
    16  H    0.095102
    17  H    0.099456
    18  H    0.103484
    19  H    0.105365
 Sum of Mulliken charges =   0.00000

 Dipole moment (field-independent basis, Debye):
    X=             -1.3221    Y=             -0.5577    Z=              0.9918  Tot=              1.7443
 Quadrupole moment (field-independent basis, Debye-Ang):
   XX=            -62.3710   YY=            -48.8674   ZZ=            -51.9621
   XY=              4.0705   XZ=             -3.9421   YZ=             -0.9216

  Exact polarizability:  92.419   1.399  72.678  -3.225  -1.467  65.893
 Approx polarizability: 131.842   2.762 104.817  -4.916  -2.814  99.727

                      1                      2                      3
                      A                      A                      A
 Frequencies --     46.8799                68.5147               192.7572
 Red. masses --      3.9505                 3.7358                 3.0161
 Frc consts  --      0.0051                 0.0103                 0.0660
 IR Inten    --      4.6495                 1.9961                 3.1459

                      4                      5                      6
                      A                      A                      A
 Frequencies --    258.0146               286.0702               313.5908
 Red. masses --      1.0887                 2.2716                 3.6429
 Frc consts  --      0.0427                 0.1095                 0.2111
 IR Inten    --     90.4227                 8.2682                 4.5645

                      7                      8                      9
                      A                      A                      A
 Frequencies --    401.4963               412.1231               457.3553
 Red. masses --      2.3604                 3.2967                 2.5830
 Frc consts  --      0.2242                 0.3299                 0.3183
 IR Inten    --      5.3198                 2.7615                 1.3510

                     10                     11                     12
                      A                      A                      A
 Frequencies --    582.9300               675.7074               794.5219
 Red. masses --      3.4109                 3.4468                 2.0452
 Frc consts  --      0.6829                 0.9272                 0.7607
 IR Inten    --      9.8338                 3.2386                13.4455

                     13                     14                     15
                      A                      A                      A
 Frequencies --    807.4729               855.9182               872.6037
 Red. masses --      2.3820                 3.5845                 2.7050
 Frc consts  --      0.9151                 1.5472                 1.2136
 IR Inten    --     11.2660                 7.8004                 1.8330

                     16                     17                     18
                      A                      A                      A
 Frequencies --    901.5125               925.9050               974.2487
 Red. masses --      2.0038                 1.8667                 1.3640
 Frc consts  --      0.9595                 0.9429                 0.7628
 IR Inten    --      1.6808                 4.8582                 2.1594

                     19                     20                     21
                      A                      A                      A
 Frequencies --    986.6204               994.0232              1011.2513
 Red. masses --      1.8774                 2.3311                 2.1171
 Frc consts  --      1.0767                 1.3571                 1.2756
 IR Inten    --      6.1704                13.6508                20.6937

                     22                     23                     24
                      A                      A                      A
 Frequencies --   1047.2025              1057.9273              1110.5860
 Red. masses --     10.9185                 2.3535                 3.9401
 Frc consts  --      7.0546                 1.5520                 2.8633
 IR Inten    --     84.1057                27.5240                72.6528

                     25                     26                     27
                      A                      A                      A
 Frequencies --   1122.9451              1155.1289              1161.7724
 Red. masses --      1.4548                 1.2872                 1.0735
 Frc consts  --      1.0808                 1.0120                 0.8537
 IR Inten    --      6.8567                 0.8969                 0.1032

                     28                     29                     30
                      A                      A                      A
 Frequencies --   1177.3006              1221.7581              1233.9111
 Red. masses --      2.0652                 1.3036                 1.3850
 Frc consts  --      1.6865                 1.1465                 1.2424
 IR Inten    --      8.3117                45.4133                18.4894

                     31                     32                     33
                      A                      A                      A
 Frequencies --   1263.4371              1285.6983              1308.3824
 Red. masses --      2.1383                 1.4499                 1.2676
 Frc consts  --      2.0110                 1.4121                 1.2785
 IR Inten    --      6.0923                 4.3729                 1.1443

                     34                     35                     36
                      A                      A                      A
 Frequencies --   1341.6277              1370.5435              1379.0376
 Red. masses --      1.4388                 1.5179                 1.5683
 Frc consts  --      1.5259                 1.6798                 1.7572
 IR Inten    --     28.7340                 3.5938                 5.0015

                     37                     38                     39
                      A                      A                      A
 Frequencies --   1434.1942              1482.6996              1511.6157
 Red. masses --      1.5953                 1.0917                 1.0775
 Frc consts  --      1.9333                 1.4140                 1.4506
 IR Inten    --     11.8465                 1.6342                 1.3878

                     40                     41                     42
                      A                      A                      A
 Frequencies --   1536.3454              1686.3657              2950.4726
 Red. masses --      1.1111                 6.9368                 1.0821
 Frc consts  --      1.5452                11.6229                 5.5502
 IR Inten    --      0.6005                 1.5231                53.7401

                     43                     44                     45
                      A                      A                      A
 Frequencies --   2993.8190              3005.7162              3042.7941
 Red. masses --      1.0526                 1.0587                 1.0942
 Frc consts  --      5.5587                 5.6352                 5.9689
 IR Inten    --    127.5466                 5.9042                11.0087

                     46                     47                     48
                      A                      A                      A
 Frequencies --   3045.4813              3047.7325              3095.3216
 Red. masses --      1.0995                 1.0844                 1.1048
 Frc consts  --      6.0083                 5.9346                 6.2365
 IR Inten    --      5.0920                87.5475                23.9764

                     49                     50                     51
                      A                      A                      A
 Frequencies --   3179.0056              3212.9212              3819.5738
 Red. masses --      1.0871                 1.1022                 1.0663
 Frc consts  --      6.4732                 6.7037                 9.1654
 IR Inten    --      6.6698                12.0789                18.8735

 - Thermochemistry -
 -------------------
 Temperature   298.150 Kelvin.  Pressure   1.00000 Atm.
 Atom     1 has atomic number  8 and mass  15.99491

 Molecular mass:   126.06808 amu.
 Principal axes and moments of inertia in atomic units:
                           1         2         3
     Eigenvalues --   439.408651740.572101863.61277
           X            0.99995   0.00589  -0.00817
           Y           -0.00600   0.99989  -0.01367
           Z            0.00809   0.01372   0.99987
 This molecule is an asymmetric top.
 Rotational symmetry number  1.
 Warning -- assumption of classical behavior for rotation
           may cause significant error
 Rotational temperatures (Kelvin)      0.19711     0.04976     0.04648
 Rotational constants (GHZ):           4.10720     1.03687     0.96841
 Zero-point vibrational energy     419296.1 (Joules/Mol)
                                  100.21417 (Kcal/Mol)
 Warning -- explicit consideration of  10 degrees of freedom as
           vibrations may cause significant error
 Vibrational temperatures:     67.45    98.58   277.33   371.23   411.59
          (Kelvin)            451.19   577.66   592.95   658.03   838.71
                              972.19  1143.14  1161.77  1231.47  1255.48
                             1297.07  1332.17  1401.72  1419.52  1430.18
                             1454.96  1506.69  1522.12  1597.88  1615.67
                             1661.97  1671.53  1693.87  1757.84  1775.32
                             1817.80  1849.83  1882.47  1930.30  1971.90
                             1984.13  2063.48  2133.27  2174.88  2210.46
                             2426.30  4245.07  4307.43  4324.55  4377.90
                             4381.76  4385.00  4453.47  4573.87  4622.67
                             5495.51

 Zero-point correction=                           0.159701 (Hartree/Particle)
 Thermal correction to Energy=                    0.168031
 Thermal correction to Enthalpy=                  0.168975
 Thermal correction to Gibbs Free Energy=         0.125949
 Sum of electronic and zero-point Energies=           -423.006039
 Sum of electronic and thermal Energies=              -422.997709
 Sum of electronic and thermal Enthalpies=            -422.996765
 Sum of electronic and thermal Free Energies=         -423.039791

                     E (Thermal)             CV                S
                      KCal/Mol        Cal/Mol-Kelvin    Cal/Mol-Kelvin
 Total                  105.441             31.385             90.555
 Electronic               0.000              0.000              0.000
 Translational            0.889              2.981             40.409
 Rotational               0.889              2.981             28.746
 Vibrational            103.663             25.423             21.401
 Vibration     1          0.595              1.979              4.945
 Vibration     2          0.598              1.969              4.196
 Vibration     3          0.635              1.850              2.201
 Vibration     4          0.667              1.749              1.675
 Vibration     5          0.684              1.700              1.497
 Vibration     6          0.701              1.648              1.343
 Vibration     7          0.767              1.467              0.957
 Vibration     8          0.776              1.444              0.919
 Vibration     9          0.815              1.345              0.774
 Vibration    10          0.940              1.068              0.480

 Normal termination of Gaussian 09 at Tue Jan 28 03:37:37 2020.
