 Gaussian 09, Revision D.01,
 Gaussian 09:  ES64L-G09RevD.01 24-Apr-2013

 -----------------------------
 # b3lyp 6-31G(2df,p) opt Freq
 -----------------------------

 -----
 titel
 -----
 Symbolic Z-matrix:
 Charge =  0 Multiplicity = 1

 SCF Done:  E(RB3LYP) =  -423.184190161     A.U. after   14 cycles
 Optimization completed.
    -- Stationary point found.
 Normal termination of Gaussian 09 at Tue Jan 28 14:03:19 2020.

 ----------------------------------------------------------------------
 #N Geom=AllCheck Guess=TCheck SCRF=Check GenChk RB3LYP/6-31G(2df,p) Fr
 eq
 ----------------------------------------------------------------------

 Structure from the checkpoint file:  "/scratch/puck/g09_9d89debf-55d4-4d98-8488-301d5f2165ee/Gau-28484.chk"
 -----
 titel
 -----
 Charge =  0 Multiplicity = 1

                         Standard orientation:
 ---------------------------------------------------------------------
 Center     Atomic      Atomic             Coordinates (Angstroms)
 Number     Number       Type             X           Y           Z
 ---------------------------------------------------------------------
      1          6           0       -2.062806   -0.862852    0.819107
      2          8           0       -1.674501   -0.804444   -0.540369
      3          6           0       -0.380089   -0.293580   -0.797363
      4          6           0        0.758579   -1.127404   -0.238084
      5          6           0        2.153885   -0.655667   -0.565015
      6          6           0        1.556617   -0.312831    0.772701
      7          6           0        0.931118    1.061770    0.898175
      8          6           0       -0.161329    1.126593   -0.179744
      9          8           0       -0.788822    2.104150   -0.486332
     10          1           0       -2.144135    0.137091    1.268741
     11          1           0       -3.049708   -1.330364    0.838480
     12          1           0       -1.375057   -1.468926    1.425066
     13          1           0       -0.335859   -0.204709   -1.887904
     14          1           0        0.585290   -2.188911   -0.106211
     15          1           0        2.936340   -1.405437   -0.595273
     16          1           0        2.277447    0.138815   -1.297655
     17          1           0        1.966197   -0.782500    1.659197
     18          1           0        0.441068    1.194377    1.871430
     19          1           0        1.629142    1.896744    0.779083
 ---------------------------------------------------------------------

 SCF Done:  E(RB3LYP) =  -423.184190161     A.U. after    1 cycles

 The electronic state is 1-A.
 Alpha  occ. eigenvalues --  -19.14724 -19.13748 -10.26980 -10.23907 -10.22729
 Alpha  occ. eigenvalues --  -10.20380 -10.19832 -10.19737 -10.19725  -1.05223
 Alpha  occ. eigenvalues --   -1.03165  -0.88882  -0.74822  -0.73742  -0.66666
 Alpha  occ. eigenvalues --   -0.60575  -0.57295  -0.54640  -0.51149  -0.48494
 Alpha  occ. eigenvalues --   -0.47396  -0.45902  -0.43858  -0.42472  -0.42260
 Alpha  occ. eigenvalues --   -0.40705  -0.38503  -0.36999  -0.36013  -0.32353
 Alpha  occ. eigenvalues --   -0.30503  -0.29298  -0.27173  -0.23192
 Alpha virt. eigenvalues --   -0.03171   0.08253   0.10351   0.10522   0.11388
 Alpha virt. eigenvalues --    0.13768   0.14006   0.15041   0.15456   0.16144
 Alpha virt. eigenvalues --    0.17774   0.18405   0.19160   0.20525   0.22473

 Mulliken charges:
               1
     1  C   -0.252677
     2  O   -0.242718
     3  C    0.029399
     4  C   -0.068915
     5  C   -0.304253
     6  C   -0.036848
     7  C   -0.333915
     8  C    0.348018
     9  O   -0.301413
    10  H    0.118400
    11  H    0.134215
    12  H    0.109155
    13  H    0.109982
    14  H    0.098646
    15  H    0.120204
    16  H    0.115676
    17  H    0.091360
    18  H    0.132860
    19  H    0.132824
 Sum of Mulliken charges =   0.00000

 Dipole moment (field-independent basis, Debye):
    X=              2.0588    Y=             -1.8743    Z=              1.7650  Tot=              3.2965
 Quadrupole moment (field-independent basis, Debye-Ang):
   XX=            -53.0629   YY=            -57.6336   ZZ=            -51.4272
   XY=              2.1242   XZ=             -3.4738   YZ=              0.3470

  Exact polarizability:  81.085  -1.172  73.964  -0.949   0.106  68.076
 Approx polarizability: 111.042  -3.229 110.818   2.226  -1.220 105.093

                      1                      2                      3
                      A                      A                      A
 Frequencies --     60.4861                99.7201               165.8061
 Red. masses --      3.9512                 2.1429                 3.4353
 Frc consts  --      0.0085                 0.0126                 0.0556
 IR Inten    --      2.0617                 2.1229                 2.6960

                      4                      5                      6
                      A                      A                      A
 Frequencies --    186.1552               270.0222               318.7778
 Red. masses --      1.2637                 3.1573                 3.0459
 Frc consts  --      0.0258                 0.1356                 0.1824
 IR Inten    --      0.3658                 5.0451                 2.2057

                      7                      8                      9
                      A                      A                      A
 Frequencies --    358.2068               451.0860               471.8507
 Red. masses --      2.3577                 4.3094                 4.0861
 Frc consts  --      0.1782                 0.5166                 0.5360
 IR Inten    --      1.0173                 6.7468                 2.2558

                     10                     11                     12
                      A                      A                      A
 Frequencies --    578.4589               610.9402               677.0417
 Red. masses --      2.8764                 5.5241                 3.6903
 Frc consts  --      0.5671                 1.2148                 0.9967
 IR Inten    --      2.1423                 3.4934                11.7399

                     13                     14                     15
                      A                      A                      A
 Frequencies --    759.5122               818.2375               833.9311
 Red. masses --      2.8105                 1.5725                 1.9996
 Frc consts  --      0.9552                 0.6203                 0.8193
 IR Inten    --      6.2509                 9.1718                 5.3491

                     16                     17                     18
                      A                      A                      A
 Frequencies --    865.5112               892.2373               967.7340
 Red. masses --      1.8612                 2.5139                 2.7953
 Frc consts  --      0.8215                 1.1791                 1.5424
 IR Inten    --      0.0407                 7.3697                24.1799

                     19                     20                     21
                      A                      A                      A
 Frequencies --   1010.1695              1029.7725              1045.1908
 Red. masses --      2.5935                 2.5069                 1.6153
 Frc consts  --      1.5593                 1.5663                 1.0397
 IR Inten    --      6.5515                13.9065                 6.9414

                     22                     23                     24
                      A                      A                      A
 Frequencies --   1074.5239              1093.1083              1116.6538
 Red. masses --      1.4236                 1.3835                 1.3142
 Frc consts  --      0.9684                 0.9740                 0.9655
 IR Inten    --     12.5370                14.5034                 1.5550

                     25                     26                     27
                      A                      A                      A
 Frequencies --   1123.4514              1162.9874              1180.0451
 Red. masses --      3.1876                 2.5186                 1.3922
 Frc consts  --      2.3704                 2.0070                 1.1422
 IR Inten    --     77.7106                34.0870                13.5247

                     28                     29                     30
                      A                      A                      A
 Frequencies --   1182.6295              1201.7978              1227.2098
 Red. masses --      1.4795                 1.5890                 1.5712
 Frc consts  --      1.2192                 1.3522                 1.3941
 IR Inten    --     15.9784                 2.6221                18.1087

                     31                     32                     33
                      A                      A                      A
 Frequencies --   1265.9094              1278.8273              1339.3237
 Red. masses --      1.4972                 1.7692                 1.6188
 Frc consts  --      1.4136                 1.7047                 1.7109
 IR Inten    --      5.2459                 7.3710                 4.9806

                     34                     35                     36
                      A                      A                      A
 Frequencies --   1372.5716              1387.1705              1451.3558
 Red. masses --      1.4734                 1.8253                 1.0907
 Frc consts  --      1.6355                 2.0694                 1.3537
 IR Inten    --      2.5054                 7.3547                 8.5259

                     37                     38                     39
                      A                      A                      A
 Frequencies --   1478.2319              1489.7563              1494.0549
 Red. masses --      1.1357                 1.2098                 1.0772
 Frc consts  --      1.4622                 1.5819                 1.4167
 IR Inten    --      0.2645                 1.7100                 5.3976

                     40                     41                     42
                      A                      A                      A
 Frequencies --   1508.4880              1849.3005              2991.3178
 Red. masses --      1.0497                12.8339                 1.0358
 Frc consts  --      1.4074                25.8597                 5.4605
 IR Inten    --      9.8649               165.6582                37.7385

                     43                     44                     45
                      A                      A                      A
 Frequencies --   3034.8233              3044.6319              3059.6331
 Red. masses --      1.0634                 1.1034                 1.0843
 Frc consts  --      5.7703                 6.0265                 5.9805
 IR Inten    --     12.4911                43.4668                16.9148

                     46                     47                     48
                      A                      A                      A
 Frequencies --   3081.5610              3113.5983              3120.3979
 Red. masses --      1.0981                 1.0578                 1.0972
 Frc consts  --      6.1436                 6.0420                 6.2942
 IR Inten    --      9.8263                14.0804                25.9329

                     49                     50                     51
                      A                      A                      A
 Frequencies --   3175.1756              3183.0960              3208.8594
 Red. masses --      1.0893                 1.0940                 1.1111
 Frc consts  --      6.4706                 6.5310                 6.7409
 IR Inten    --     10.9953                 6.0073                12.0588

 - Thermochemistry -
 -------------------
 Temperature   298.150 Kelvin.  Pressure   1.00000 Atm.
 Atom     1 has atomic number  6 and mass  12.00000

 Molecular mass:   126.06808 amu.
 Principal axes and moments of inertia in atomic units:
                           1         2         3
     Eigenvalues --   786.816521106.117961446.41526
           X            0.99902   0.03077  -0.03173
           Y           -0.03064   0.99952   0.00458
           Z            0.03186  -0.00360   0.99949
 This molecule is an asymmetric top.
 Rotational symmetry number  1.
 Warning -- assumption of classical behavior for rotation
           may cause significant error
 Rotational temperatures (Kelvin)      0.11008     0.07830     0.05988
 Rotational constants (GHZ):           2.29373     1.63160     1.24773
 Zero-point vibrational energy     417265.5 (Joules/Mol)
                                   99.72884 (Kcal/Mol)
 Warning -- explicit consideration of  11 degrees of freedom as
           vibrations may cause significant error
 Vibrational temperatures:     87.03   143.47   238.56   267.84   388.50
          (Kelvin)            458.65   515.38   649.01   678.89   832.27
                              879.01   974.11  1092.77  1177.26  1199.84
                             1245.28  1283.73  1392.35  1453.41  1481.61
                             1503.79  1546.00  1572.74  1606.61  1616.39
                             1673.28  1697.82  1701.54  1729.12  1765.68
                             1821.36  1839.94  1926.99  1974.82  1995.83
                             2088.17  2126.84  2143.42  2149.61  2170.38
                             2660.73  4303.83  4366.43  4380.54  4402.12
                             4433.67  4479.77  4489.55  4568.36  4579.76
                             4616.83

 Zero-point correction=                           0.158928 (Hartree/Particle)
 Thermal correction to Energy=                    0.167430
 Thermal correction to Enthalpy=                  0.168374
 Thermal correction to Gibbs Free Energy=         0.125406
 Sum of electronic and zero-point Energies=           -423.025262
 Sum of electronic and thermal Energies=              -423.016761
 Sum of electronic and thermal Enthalpies=            -423.015816
 Sum of electronic and thermal Free Energies=         -423.058784

                     E (Thermal)             CV                S
                      KCal/Mol        Cal/Mol-Kelvin    Cal/Mol-Kelvin
 Total                  105.064             31.908             90.433
 Electronic               0.000              0.000              0.000
 Translational            0.889              2.981             40.409
 Rotational               0.889              2.981             28.622
 Vibrational            103.286             25.946             21.402
 Vibration     1          0.597              1.973              4.441
 Vibration     2          0.604              1.949              3.460
 Vibration     3          0.624              1.884              2.482
 Vibration     4          0.632              1.859              2.266
 Vibration     5          0.674              1.728              1.596
 Vibration     6          0.705              1.638              1.316
 Vibration     7          0.733              1.558              1.130
 Vibration     8          0.810              1.358              0.792
 Vibration     9          0.829              1.313              0.732
 Vibration    10          0.935              1.078              0.488
 Vibration    11          0.970              1.009              0.431

 Normal termination of Gaussian 09 at Tue Jan 28 14:50:33 2020.
 Normal termination of Gaussian 09 at Tue Jan 28 13:59:03 2020.
