 Gaussian 09, Revision D.01,
 Gaussian 09:  ES64L-G09RevD.01 24-Apr-2013

 -----------------------------
 # b3lyp 6-31G(2df,p) opt Freq
 -----------------------------

 -----
 titel
 -----
 Symbolic Z-matrix:
 Charge =  0 Multiplicity = 1

 SCF Done:  E(RB3LYP) =  -423.148375744     A.U. after   13 cycles
 Optimization completed.
    -- Stationary point found.
 Normal termination of Gaussian 09 at Tue Jan 28 14:07:36 2020.

 ----------------------------------------------------------------------
 #N Geom=AllCheck Guess=TCheck SCRF=Check GenChk RB3LYP/6-31G(2df,p) Fr
 eq
 ----------------------------------------------------------------------

 Structure from the checkpoint file:  "/scratch/puck/g09_8233e047-2717-425c-bc2f-677b0835e700/Gau-111521.chk"
 -----
 titel
 -----
 Charge =  0 Multiplicity = 1

                         Standard orientation:
 ---------------------------------------------------------------------
 Center     Atomic      Atomic             Coordinates (Angstroms)
 Number     Number       Type             X           Y           Z
 ---------------------------------------------------------------------
      1          6           0       -3.135830   -0.546923    0.232377
      2          8           0       -2.262200    0.489577   -0.170387
      3          6           0       -0.961383    0.309990    0.283036
      4          6           0        0.113013    0.953673   -0.537722
      5          6           0        1.403871    1.350797    0.180340
      6          6           0        2.009099    0.022631    0.626207
      7          8           0        2.410166   -0.816061   -0.461343
      8          6           0        1.164239   -1.103278    0.194647
      9          6           0       -0.029396   -0.564876   -0.531181
     10          1           0       -3.206859   -0.612763    1.328638
     11          1           0       -4.122646   -0.311258   -0.172353
     12          1           0       -2.811166   -1.524266   -0.152620
     13          1           0       -0.857409    0.300425    1.371605
     14          1           0       -0.216533    1.515074   -1.403258
     15          1           0        2.092089    1.875676   -0.490280
     16          1           0        1.218721    2.004221    1.041342
     17          1           0        2.644004   -0.026065    1.507641
     18          1           0        1.129030   -2.051744    0.726209
     19          1           0       -0.434646   -1.089511   -1.389301
 ---------------------------------------------------------------------

 SCF Done:  E(RB3LYP) =  -423.148375744     A.U. after    1 cycles

 The electronic state is 1-A.
 Alpha  occ. eigenvalues --  -19.14881 -19.14475 -10.23776 -10.23540 -10.23479
 Alpha  occ. eigenvalues --  -10.22759 -10.19231 -10.19042 -10.19037  -1.06775
 Alpha  occ. eigenvalues --   -1.04401  -0.86880  -0.74164  -0.70205  -0.66703
 Alpha  occ. eigenvalues --   -0.60814  -0.57172  -0.56467  -0.52970  -0.49975
 Alpha  occ. eigenvalues --   -0.46763  -0.45272  -0.43411  -0.42795  -0.42273
 Alpha  occ. eigenvalues --   -0.38279  -0.37683  -0.36790  -0.34715  -0.31495
 Alpha  occ. eigenvalues --   -0.29968  -0.27214  -0.26205  -0.24527
 Alpha virt. eigenvalues --    0.09322   0.09534   0.10093   0.10878   0.12129
 Alpha virt. eigenvalues --    0.13467   0.13994   0.14752   0.15691   0.16550
 Alpha virt. eigenvalues --    0.16634   0.18056   0.18805   0.19836   0.21381

 Mulliken charges:
               1
     1  C   -0.236547
     2  O   -0.241785
     3  C    0.108650
     4  C   -0.083474
     5  C   -0.269579
     6  C    0.052958
     7  O   -0.255816
     8  C    0.015826
     9  C   -0.120438
    10  H    0.106828
    11  H    0.129360
    12  H    0.108488
    13  H    0.079509
    14  H    0.100883
    15  H    0.116768
    16  H    0.102579
    17  H    0.093292
    18  H    0.093815
    19  H    0.098681
 Sum of Mulliken charges =   0.00000

 Dipole moment (field-independent basis, Debye):
    X=             -1.1538    Y=             -0.2807    Z=              1.5689  Tot=              1.9677
 Quadrupole moment (field-independent basis, Debye-Ang):
   XX=            -55.6619   YY=            -52.2478   ZZ=            -51.8880
   XY=              5.7312   XZ=              2.5031   YZ=             -0.8316

  Exact polarizability:  89.140   4.914  72.244   2.121   0.242  63.832
 Approx polarizability: 114.748   4.395 110.022  -0.657   2.781 100.094

                      1                      2                      3
                      A                      A                      A
 Frequencies --     96.6107               141.9504               174.1512
 Red. masses --      2.8769                 3.0102                 1.6167
 Frc consts  --      0.0158                 0.0357                 0.0289
 IR Inten    --      2.2043                 1.0032                 1.4521

                      4                      5                      6
                      A                      A                      A
 Frequencies --    220.0063               280.0296               364.9885
 Red. masses --      1.7920                 3.2757                 2.6048
 Frc consts  --      0.0511                 0.1513                 0.2044
 IR Inten    --      3.6724                 2.2946                 1.7705

                      7                      8                      9
                      A                      A                      A
 Frequencies --    398.2575               449.1942               469.8610
 Red. masses --      4.2279                 4.5231                 2.8711
 Frc consts  --      0.3951                 0.5377                 0.3735
 IR Inten    --      0.6846                10.9338                 8.2249

                     10                     11                     12
                      A                      A                      A
 Frequencies --    693.7948               735.1335               816.5224
 Red. masses --      3.8872                 4.7225                 4.6598
 Frc consts  --      1.1024                 1.5037                 1.8304
 IR Inten    --      2.3584                 0.6707                 8.3985

                     13                     14                     15
                      A                      A                      A
 Frequencies --    853.8882               863.4552               887.8383
 Red. masses --      2.3895                 2.3696                 2.1722
 Frc consts  --      1.0265                 1.0409                 1.0088
 IR Inten    --     10.8165                23.3960                19.6107

                     16                     17                     18
                      A                      A                      A
 Frequencies --    916.3110               946.8636               984.8858
 Red. masses --      2.6599                 2.7453                 2.0051
 Frc consts  --      1.3158                 1.4501                 1.1459
 IR Inten    --      7.4074                11.4831                 1.1410

                     19                     20                     21
                      A                      A                      A
 Frequencies --   1009.3709              1025.5933              1040.3071
 Red. masses --      1.8484                 2.8873                 1.3840
 Frc consts  --      1.1095                 1.7893                 0.8825
 IR Inten    --     10.5009                19.4338                15.7336

                     22                     23                     24
                      A                      A                      A
 Frequencies --   1051.9811              1091.2734              1112.5753
 Red. masses --      1.7792                 1.3913                 1.7840
 Frc consts  --      1.1601                 0.9762                 1.3011
 IR Inten    --      7.7509                 7.2367                 1.9032

                     25                     26                     27
                      A                      A                      A
 Frequencies --   1130.3927              1169.5263              1182.5540
 Red. masses --      1.4638                 1.9959                 1.4267
 Frc consts  --      1.1020                 1.6084                 1.1755
 IR Inten    --      1.3266                35.7171                19.4599

                     28                     29                     30
                      A                      A                      A
 Frequencies --   1185.6655              1215.7932              1243.7012
 Red. masses --      1.8370                 1.2978                 1.9141
 Frc consts  --      1.5215                 1.1303                 1.7444
 IR Inten    --     50.9265                 9.5821                49.0913

                     31                     32                     33
                      A                      A                      A
 Frequencies --   1258.9891              1282.8072              1295.7541
 Red. masses --      1.3851                 1.3956                 1.6487
 Frc consts  --      1.2935                 1.3531                 1.6309
 IR Inten    --      4.0772                 2.3953                 1.5730

                     34                     35                     36
                      A                      A                      A
 Frequencies --   1326.2783              1348.0481              1423.8595
 Red. masses --      1.4792                 1.5427                 3.0813
 Frc consts  --      1.5330                 1.6517                 3.6805
 IR Inten    --      5.5495                 6.9295                57.0188

                     37                     38                     39
                      A                      A                      A
 Frequencies --   1436.9086              1481.4410              1485.8542
 Red. masses --      2.0393                 1.0980                 1.0817
 Frc consts  --      2.4808                 1.4198                 1.4070
 IR Inten    --     15.8677                 0.9270                 5.8435

                     40                     41                     42
                      A                      A                      A
 Frequencies --   1488.7853              1508.4753              2983.5589
 Red. masses --      1.2274                 1.0779                 1.0364
 Frc consts  --      1.6028                 1.4451                 5.4358
 IR Inten    --      6.5496                 4.2193                55.6875

                     43                     44                     45
                      A                      A                      A
 Frequencies --   3034.6021              3034.8832              3059.5033
 Red. masses --      1.0795                 1.0836                 1.0866
 Frc consts  --      5.8568                 5.8803                 5.9929
 IR Inten    --     14.1769                74.2043                27.3743

                     46                     47                     48
                      A                      A                      A
 Frequencies --   3078.5464              3120.8048              3133.2278
 Red. masses --      1.1019                 1.0975                 1.0865
 Frc consts  --      6.1531                 6.2977                 6.2845
 IR Inten    --     17.7854                30.1000                18.1495

                     49                     50                     51
                      A                      A                      A
 Frequencies --   3146.7356              3176.9565              3193.5231
 Red. masses --      1.0941                 1.0897                 1.0914
 Frc consts  --      6.3829                 6.4803                 6.5579
 IR Inten    --     43.6584                 8.5056                 7.0271

 - Thermochemistry -
 -------------------
 Temperature   298.150 Kelvin.  Pressure   1.00000 Atm.
 Atom     1 has atomic number  6 and mass  12.00000

 Molecular mass:   126.06808 amu.
 Principal axes and moments of inertia in atomic units:
                           1         2         3
     Eigenvalues --   421.477281688.710171898.55137
           X            0.99949   0.03192   0.00329
           Y           -0.03185   0.99934  -0.01762
           Z           -0.00385   0.01750   0.99984
 This molecule is an asymmetric top.
 Rotational symmetry number  1.
 Rotational temperatures (Kelvin)      0.20550     0.05129     0.04562
 Rotational constants (GHZ):           4.28194     1.06871     0.95059
 Zero-point vibrational energy     419004.1 (Joules/Mol)
                                  100.14439 (Kcal/Mol)
 Warning -- explicit consideration of   9 degrees of freedom as
           vibrations may cause significant error
 Vibrational temperatures:    139.00   204.23   250.56   316.54   402.90
          (Kelvin)            525.14   573.00   646.29   676.02   998.21
                             1057.69  1174.79  1228.55  1242.32  1277.40
                             1318.37  1362.32  1417.03  1452.26  1475.60
                             1496.77  1513.56  1570.10  1600.75  1626.38
                             1682.69  1701.43  1705.91  1749.25  1789.41
                             1811.40  1845.67  1864.30  1908.22  1939.54
                             2048.61  2067.39  2131.46  2137.81  2142.03
                             2170.36  4292.67  4366.11  4366.51  4401.94
                             4429.34  4490.14  4508.01  4527.44  4570.93
                             4594.76

 Zero-point correction=                           0.159590 (Hartree/Particle)
 Thermal correction to Energy=                    0.167549
 Thermal correction to Enthalpy=                  0.168494
 Thermal correction to Gibbs Free Energy=         0.126958
 Sum of electronic and zero-point Energies=           -422.988786
 Sum of electronic and thermal Energies=              -422.980826
 Sum of electronic and thermal Enthalpies=            -422.979882
 Sum of electronic and thermal Free Energies=         -423.021418

                     E (Thermal)             CV                S
                      KCal/Mol        Cal/Mol-Kelvin    Cal/Mol-Kelvin
 Total                  105.139             30.549             87.420
 Electronic               0.000              0.000              0.000
 Translational            0.889              2.981             40.409
 Rotational               0.889              2.981             28.693
 Vibrational            103.361             24.587             18.318
 Vibration     1          0.603              1.952              3.522
 Vibration     2          0.615              1.911              2.777
 Vibration     3          0.627              1.874              2.390
 Vibration     4          0.647              1.811              1.959
 Vibration     5          0.680              1.711              1.533
 Vibration     6          0.738              1.544              1.101
 Vibration     7          0.765              1.474              0.969
 Vibration     8          0.808              1.363              0.798
 Vibration     9          0.827              1.317              0.738

 Normal termination of Gaussian 09 at Tue Jan 28 14:48:34 2020.
