 Gaussian 09, Revision D.01,
 Gaussian 09:  ES64L-G09RevD.01 24-Apr-2013

 -----------------------------
 # b3lyp 6-31G(2df,p) opt Freq
 -----------------------------

 -----
 titel
 -----
 Symbolic Z-matrix:
 Charge =  0 Multiplicity = 1

 SCF Done:  E(RB3LYP) =  -423.135578322     A.U. after   14 cycles
 Optimization completed.
    -- Stationary point found.
 Normal termination of Gaussian 09 at Mon Jan 27 18:47:03 2020.

 ----------------------------------------------------------------------
 #N Geom=AllCheck Guess=TCheck SCRF=Check GenChk RB3LYP/6-31G(2df,p) Fr
 eq
 ----------------------------------------------------------------------

 Structure from the checkpoint file:  "/scratch/puck/g09_7476ce9f-a76b-4579-a8d0-8ffc7d7c4daf/Gau-90671.chk"
 -----
 titel
 -----
 Charge =  0 Multiplicity = 1

                         Standard orientation:
 ---------------------------------------------------------------------
 Center     Atomic      Atomic             Coordinates (Angstroms)
 Number     Number       Type             X           Y           Z
 ---------------------------------------------------------------------
      1          8           0       -0.053221    1.865350   -0.721411
      2          6           0       -0.343758    0.623170   -0.159551
      3          6           0       -1.304561    0.545506    1.052483
      4          6           0       -2.058970   -0.646977    0.387568
      5          6           0       -1.116335   -0.595431   -0.843383
      6          6           0        0.156439   -1.474794   -0.691330
      7          6           0        0.878420   -0.284007   -0.044504
      8          6           0        2.281691    0.116795   -0.115347
      9          8           0        1.695785   -0.348847    1.111477
     10          1           0       -0.837880    2.420445   -0.664644
     11          1           0       -0.823338    0.365515    2.016728
     12          1           0       -1.924627    1.444008    1.141834
     13          1           0       -2.035559   -1.587604    0.943500
     14          1           0       -3.101038   -0.418115    0.152539
     15          1           0       -1.566682   -0.540436   -1.833925
     16          1           0        0.046182   -2.350716   -0.045779
     17          1           0        0.602416   -1.790242   -1.638289
     18          1           0        3.010059   -0.555490   -0.568008
     19          1           0        2.532393    1.175036   -0.140104
 ---------------------------------------------------------------------

 SCF Done:  E(RB3LYP) =  -423.135578322     A.U. after    1 cycles

 The electronic state is 1-A.
 Alpha  occ. eigenvalues --  -19.14680 -19.14526 -10.23408 -10.23212 -10.22564
 Alpha  occ. eigenvalues --  -10.18432 -10.18411 -10.18265 -10.18232  -1.06618
 Alpha  occ. eigenvalues --   -1.02973  -0.86076  -0.74800  -0.67407  -0.65355
 Alpha  occ. eigenvalues --   -0.62258  -0.58093  -0.53944  -0.51046  -0.48960
 Alpha  occ. eigenvalues --   -0.46890  -0.44929  -0.42703  -0.41259  -0.40463
 Alpha  occ. eigenvalues --   -0.37940  -0.36299  -0.34068  -0.32571  -0.32354
 Alpha  occ. eigenvalues --   -0.31037  -0.27806  -0.25584  -0.24686
 Alpha virt. eigenvalues --    0.06541   0.07320   0.10202   0.11476   0.12241
 Alpha virt. eigenvalues --    0.12305   0.13042   0.14972   0.16013   0.17218
 Alpha virt. eigenvalues --    0.18366   0.19097   0.20405   0.21400   0.23278

 Mulliken charges:
               1
     1  O   -0.480170
     2  C    0.322809
     3  C   -0.300060
     4  C   -0.218774
     5  C   -0.103728
     6  C   -0.334166
     7  C    0.425457
     8  C   -0.259574
     9  O   -0.276527
    10  H    0.279204
    11  H    0.122904
    12  H    0.089981
    13  H    0.104068
    14  H    0.101065
    15  H    0.068673
    16  H    0.110292
    17  H    0.108678
    18  H    0.111134
    19  H    0.128734
 Sum of Mulliken charges =   0.00000

 Dipole moment (field-independent basis, Debye):
    X=             -1.6785    Y=              0.3194    Z=             -1.1574  Tot=              2.0637
 Quadrupole moment (field-independent basis, Debye-Ang):
   XX=            -50.3648   YY=            -50.8316   ZZ=            -55.6024
   XY=             -2.6289   XZ=             -2.4914   YZ=              1.3453

  Exact polarizability:  86.202   0.609  73.990  -2.782   2.155  64.961
 Approx polarizability: 114.481   1.617 107.200  -1.042  -0.363 101.730

                      1                      2                      3
                      A                      A                      A
 Frequencies --     51.7238               170.5111               238.9222
 Red. masses --      2.7891                 2.5158                 2.3273
 Frc consts  --      0.0044                 0.0431                 0.0783
 IR Inten    --      0.7560                 3.5848                 7.9507

                      4                      5                      6
                      A                      A                      A
 Frequencies --    240.8405               289.4388               349.5634
 Red. masses --      3.7219                 1.3411                 2.5981
 Frc consts  --      0.1272                 0.0662                 0.1871
 IR Inten    --      1.2031                76.1088                 5.7232

                      7                      8                      9
                      A                      A                      A
 Frequencies --    390.5614               445.2221               461.6314
 Red. masses --      2.6499                 2.8754                 2.8614
 Frc consts  --      0.2382                 0.3358                 0.3593
 IR Inten    --      5.6778                10.1795                 2.9819

                     10                     11                     12
                      A                      A                      A
 Frequencies --    547.2881               652.6151               712.7011
 Red. masses --      4.6334                 3.8841                 2.5539
 Frc consts  --      0.8177                 0.9747                 0.7643
 IR Inten    --      6.5129                 7.2678                 2.3314

                     13                     14                     15
                      A                      A                      A
 Frequencies --    749.1274               809.6496               867.0098
 Red. masses --      1.3953                 2.3816                 2.4474
 Frc consts  --      0.4613                 0.9198                 1.0839
 IR Inten    --      4.5349                11.0631                13.1493

                     16                     17                     18
                      A                      A                      A
 Frequencies --    871.1066               890.2223               908.9037
 Red. masses --      2.0736                 1.8677                 2.5159
 Frc consts  --      0.9271                 0.8721                 1.2246
 IR Inten    --      1.9679                12.2222                 8.9320

                     19                     20                     21
                      A                      A                      A
 Frequencies --    948.8831               977.6545              1022.7174
 Red. masses --      3.1667                 2.8491                 1.7511
 Frc consts  --      1.6799                 1.6045                 1.0791
 IR Inten    --      7.7621                20.1266                 3.7949

                     22                     23                     24
                      A                      A                      A
 Frequencies --   1051.3268              1070.9320              1098.1675
 Red. masses --      2.7538                 1.5966                 1.5493
 Frc consts  --      1.7933                 1.0789                 1.1009
 IR Inten    --     23.5581                 5.4693                 0.9329

                     25                     26                     27
                      A                      A                      A
 Frequencies --   1105.1427              1129.6752              1155.9754
 Red. masses --      1.9362                 1.3537                 1.3657
 Frc consts  --      1.3933                 1.0179                 1.0752
 IR Inten    --     32.4515                 3.3205                 0.3268

                     28                     29                     30
                      A                      A                      A
 Frequencies --   1173.5153              1194.1004              1222.1941
 Red. masses --      2.0125                 1.7707                 1.5004
 Frc consts  --      1.6329                 1.4876                 1.3205
 IR Inten    --      5.5647                 1.5049                18.3988

                     31                     32                     33
                      A                      A                      A
 Frequencies --   1230.1716              1235.1333              1276.2237
 Red. masses --      1.3211                 1.5189                 1.5894
 Frc consts  --      1.1779                 1.3652                 1.5252
 IR Inten    --      5.7388                31.5432                27.7142

                     34                     35                     36
                      A                      A                      A
 Frequencies --   1287.1196              1299.2815              1369.0934
 Red. masses --      1.7617                 1.7953                 2.1955
 Frc consts  --      1.7196                 1.7856                 2.4246
 IR Inten    --     62.3985                27.0314                11.9198

                     37                     38                     39
                      A                      A                      A
 Frequencies --   1445.2374              1474.5368              1475.1368
 Red. masses --      1.7915                 1.0913                 1.1931
 Frc consts  --      2.2047                 1.3980                 1.5297
 IR Inten    --     11.9556                 3.5115                 2.1896

                     40                     41                     42
                      A                      A                      A
 Frequencies --   1495.3228              1530.4863              3042.6646
 Red. masses --      1.1197                 1.6535                 1.0630
 Frc consts  --      1.4751                 2.2820                 5.7983
 IR Inten    --      3.5197                 7.3366                36.1426

                     43                     44                     45
                      A                      A                      A
 Frequencies --   3054.7961              3060.9876              3084.4640
 Red. masses --      1.0585                 1.0597                 1.0511
 Frc consts  --      5.8198                 5.8499                 5.8916
 IR Inten    --     22.7812                40.0594                26.6392

                     46                     47                     48
                      A                      A                      A
 Frequencies --   3098.4329              3104.3954              3113.4787
 Red. masses --      1.1039                 1.1058                 1.1008
 Frc consts  --      6.2438                 6.2789                 6.2873
 IR Inten    --      5.9405                10.5518                 8.4914

                     49                     50                     51
                      A                      A                      A
 Frequencies --   3121.6127              3179.0832              3809.5981
 Red. masses --      1.0970                 1.1185                 1.0659
 Frc consts  --      6.2980                 6.6604                 9.1140
 IR Inten    --     58.1187                16.0509                15.6232

 - Thermochemistry -
 -------------------
 Temperature   298.150 Kelvin.  Pressure   1.00000 Atm.
 Atom     1 has atomic number  8 and mass  15.99491

 Molecular mass:   126.06808 amu.
 Principal axes and moments of inertia in atomic units:
                           1         2         3
     Eigenvalues --   696.095621121.242401312.03742
           X            0.99942   0.00672  -0.03342
           Y           -0.00460   0.99801   0.06292
           Z            0.03377  -0.06273   0.99746
 This molecule is an asymmetric top.
 Rotational symmetry number  1.
 Warning -- assumption of classical behavior for rotation
           may cause significant error
 Rotational temperatures (Kelvin)      0.12443     0.07725     0.06601
 Rotational constants (GHZ):           2.59266     1.60959     1.37553
 Zero-point vibrational energy     416208.2 (Joules/Mol)
                                   99.47615 (Kcal/Mol)
 Warning -- explicit consideration of  10 degrees of freedom as
           vibrations may cause significant error
 Vibrational temperatures:     74.42   245.33   343.76   346.52   416.44
          (Kelvin)            502.94   561.93   640.57   664.18   787.42
                              938.97  1025.42  1077.83  1164.90  1247.43
                             1253.33  1280.83  1307.71  1365.23  1406.62
                             1471.46  1512.62  1540.83  1580.02  1590.05
                             1625.35  1663.19  1688.42  1718.04  1758.46
                             1769.94  1777.08  1836.20  1851.88  1869.37
                             1969.82  2079.37  2121.53  2122.39  2151.43
                             2202.03  4377.71  4395.16  4404.07  4437.85
                             4457.95  4466.53  4479.60  4491.30  4573.99
                             5481.16

 Zero-point correction=                           0.158525 (Hartree/Particle)
 Thermal correction to Energy=                    0.166686
 Thermal correction to Enthalpy=                  0.167631
 Thermal correction to Gibbs Free Energy=         0.125756
 Sum of electronic and zero-point Energies=           -422.977053
 Sum of electronic and thermal Energies=              -422.968892
 Sum of electronic and thermal Enthalpies=            -422.967948
 Sum of electronic and thermal Free Energies=         -423.009822

                     E (Thermal)             CV                S
                      KCal/Mol        Cal/Mol-Kelvin    Cal/Mol-Kelvin
 Total                  104.597             32.019             88.132
 Electronic               0.000              0.000              0.000
 Translational            0.889              2.981             40.409
 Rotational               0.889              2.981             28.417
 Vibrational            102.820             26.057             19.306
 Vibration     1          0.596              1.977              4.750
 Vibration     2          0.626              1.879              2.430
 Vibration     3          0.657              1.781              1.811
 Vibration     4          0.658              1.778              1.797
 Vibration     5          0.686              1.693              1.477
 Vibration     6          0.727              1.576              1.168
 Vibration     7          0.758              1.490              0.998
 Vibration     8          0.805              1.371              0.810
 Vibration     9          0.819              1.335              0.761
 Vibration    10          0.902              1.146              0.550

 Optimization completed.
    -- Stationary point found.
 Normal termination of Gaussian 09 at Mon Jan 27 19:28:55 2020.
