 Gaussian 09, Revision D.01,
 Gaussian 09:  ES64L-G09RevD.01 24-Apr-2013

 -----------------------------
 # b3lyp 6-31G(2df,p) opt Freq
 -----------------------------

 -----
 titel
 -----
 Symbolic Z-matrix:
 Charge =  0 Multiplicity = 1

 SCF Done:  E(RB3LYP) =  -423.128040245     A.U. after   13 cycles
 Optimization completed.
    -- Stationary point found.
 Normal termination of Gaussian 09 at Tue Jan 28 12:39:48 2020.

 ----------------------------------------------------------------------
 #N Geom=AllCheck Guess=TCheck SCRF=Check GenChk RB3LYP/6-31G(2df,p) Fr
 eq
 ----------------------------------------------------------------------

 Structure from the checkpoint file:  "/scratch/puck/g09_d6212771-d1e8-4e06-a0e1-76ff268a15bf/Gau-106746.chk"
 -----
 titel
 -----
 Charge =  0 Multiplicity = 1

                         Standard orientation:
 ---------------------------------------------------------------------
 Center     Atomic      Atomic             Coordinates (Angstroms)
 Number     Number       Type             X           Y           Z
 ---------------------------------------------------------------------
      1          6           0       -0.762286    1.765689    0.784745
      2          6           0        0.062100    0.788185   -0.016520
      3          8           0        0.763203    1.426301   -1.043965
      4          6           0       -0.407342   -0.615396   -0.289635
      5          6           0       -1.717574   -1.169193    0.223360
      6          8           0       -2.849916   -0.603251   -0.421623
      7          6           0        0.759485   -0.383914    0.682456
      8          6           0        2.099411   -0.699196    0.296398
      9          6           0        3.231550   -0.886681   -0.071854
     10          1           0       -0.113238    2.528125    1.225792
     11          1           0       -1.484021    2.263073    0.130569
     12          1           0       -1.317538    1.273136    1.585872
     13          1           0        1.682240    1.127949   -1.017372
     14          1           0       -0.101229   -0.985838   -1.265326
     15          1           0       -1.712785   -2.266922    0.132894
     16          1           0       -1.843242   -0.940439    1.286078
     17          1           0       -2.766470   -0.769393   -1.366166
     18          1           0        0.531141   -0.515608    1.736710
     19          1           0        4.226775   -1.095450   -0.378054
 ---------------------------------------------------------------------

 SCF Done:  E(RB3LYP) =  -423.128040245     A.U. after    1 cycles

 The electronic state is 1-A.
 Alpha  occ. eigenvalues --  -19.13793 -19.13789 -10.25123 -10.23548 -10.21851
 Alpha  occ. eigenvalues --  -10.19766 -10.19435 -10.18374 -10.17747  -1.03027
 Alpha  occ. eigenvalues --   -1.01835  -0.86625  -0.76145  -0.72305  -0.69710
 Alpha  occ. eigenvalues --   -0.63051  -0.56924  -0.55139  -0.52104  -0.50262
 Alpha  occ. eigenvalues --   -0.47982  -0.44638  -0.43080  -0.41509  -0.39967
 Alpha  occ. eigenvalues --   -0.39325  -0.37940  -0.35049  -0.33018  -0.31986
 Alpha  occ. eigenvalues --   -0.29131  -0.27918  -0.25081  -0.24311
 Alpha virt. eigenvalues --    0.03304   0.03718   0.07587   0.09603   0.11014
 Alpha virt. eigenvalues --    0.11404   0.12718   0.14411   0.14805   0.15999
 Alpha virt. eigenvalues --    0.16945   0.18693   0.19289   0.20062   0.22920

 Mulliken charges:
               1
     1  C   -0.432143
     2  C    0.424218
     3  O   -0.476152
     4  C   -0.118324
     5  C   -0.091133
     6  O   -0.411843
     7  C   -0.330605
     8  C    0.280289
     9  C   -0.409504
    10  H    0.121711
    11  H    0.138517
    12  H    0.117084
    13  H    0.286266
    14  H    0.096734
    15  H    0.096296
    16  H    0.109119
    17  H    0.285124
    18  H    0.113237
    19  H    0.201109
 Sum of Mulliken charges =   0.00000

 Dipole moment (field-independent basis, Debye):
    X=              1.0077    Y=             -1.2646    Z=              0.0624  Tot=              1.6182
 Quadrupole moment (field-independent basis, Debye-Ang):
   XX=            -52.7894   YY=            -54.7858   ZZ=            -50.6842
   XY=              0.2735   XZ=              0.0930   YZ=              3.2294

  Exact polarizability: 105.720  -7.157  70.818  -3.988   0.878  63.650
 Approx polarizability: 153.496 -12.137  99.557  -9.129  -1.188  99.993

                      1                      2                      3
                      A                      A                      A
 Frequencies --     71.6910               114.2331               121.5278
 Red. masses --      3.5502                 2.8589                 3.9574
 Frc consts  --      0.0108                 0.0220                 0.0344
 IR Inten    --      1.2942                14.9518                 1.3703

                      4                      5                      6
                      A                      A                      A
 Frequencies --    150.0430               197.5846               204.9832
 Red. masses --      3.3039                 1.3772                 1.4482
 Frc consts  --      0.0438                 0.0317                 0.0359
 IR Inten    --      9.5854                43.1931                 5.0325

                      7                      8                      9
                      A                      A                      A
 Frequencies --    230.4796               294.4017               337.7247
 Red. masses --      1.4771                 1.3128                 2.6992
 Frc consts  --      0.0462                 0.0670                 0.1814
 IR Inten    --      6.3558                95.1344                 9.0077

                     10                     11                     12
                      A                      A                      A
 Frequencies --    363.3856               406.0966               426.3501
 Red. masses --      4.1926                 4.6065                 2.8699
 Frc consts  --      0.3262                 0.4476                 0.3074
 IR Inten    --      0.5084                16.8818                 2.1022

                     13                     14                     15
                      A                      A                      A
 Frequencies --    452.4638               567.4030               586.9817
 Red. masses --      4.2088                 4.1241                 1.2851
 Frc consts  --      0.5077                 0.7823                 0.2609
 IR Inten    --      7.6193                 6.4261                48.0128

                     16                     17                     18
                      A                      A                      A
 Frequencies --    626.3434               662.3559               724.4666
 Red. masses --      2.8673                 1.2333                 3.9838
 Frc consts  --      0.6628                 0.3188                 1.2319
 IR Inten    --      8.6341                35.9552                 4.9141

                     19                     20                     21
                      A                      A                      A
 Frequencies --    776.0240               933.9248               957.1015
 Red. masses --      3.2397                 3.2552                 1.6388
 Frc consts  --      1.1495                 1.6728                 0.8845
 IR Inten    --     20.0899                19.4254                12.8240

                     22                     23                     24
                      A                      A                      A
 Frequencies --    972.7849               998.0431              1048.3414
 Red. masses --      1.6715                 1.6977                 2.8926
 Frc consts  --      0.9319                 0.9964                 1.8730
 IR Inten    --     11.8538                24.4000                33.3500

                     25                     26                     27
                      A                      A                      A
 Frequencies --   1075.1672              1092.7232              1102.2396
 Red. masses --      2.4142                 1.6778                 1.7700
 Frc consts  --      1.6443                 1.1804                 1.2670
 IR Inten    --     38.8351                11.4248                28.3071

                     28                     29                     30
                      A                      A                      A
 Frequencies --   1114.9795              1188.8946              1248.0133
 Red. masses --      2.1720                 1.4718                 1.6970
 Frc consts  --      1.5909                 1.2257                 1.5573
 IR Inten    --     12.8187                47.6997                51.5731

                     31                     32                     33
                      A                      A                      A
 Frequencies --   1278.1513              1317.8626              1371.5768
 Red. masses --      1.8488                 1.3136                 1.2445
 Frc consts  --      1.7795                 1.3441                 1.3793
 IR Inten    --     33.1787                22.6535                22.3427

                     34                     35                     36
                      A                      A                      A
 Frequencies --   1386.3229              1422.6586              1423.2437
 Red. masses --      1.3793                 1.2495                 1.3982
 Frc consts  --      1.5619                 1.4900                 1.6687
 IR Inten    --     11.2389                68.9091                 4.2717

                     37                     38                     39
                      A                      A                      A
 Frequencies --   1448.2444              1478.3900              1497.4577
 Red. masses --      2.4477                 1.0515                 1.1478
 Frc consts  --      3.0248                 1.3541                 1.5165
 IR Inten    --     35.3731                 2.9413                 2.5412

                     40                     41                     42
                      A                      A                      A
 Frequencies --   1508.8665              2222.1833              2981.1291
 Red. masses --      1.0802                 6.0631                 1.0715
 Frc consts  --      1.4489                17.6403                 5.6104
 IR Inten    --      3.1269                21.0635                64.5273

                     43                     44                     45
                      A                      A                      A
 Frequencies --   3046.8977              3076.1476              3115.7935
 Red. masses --      1.0358                 1.0905                 1.1018
 Frc consts  --      5.6654                 6.0800                 6.3024
 IR Inten    --     16.8034                21.5797                15.2216

                     46                     47                     48
                      A                      A                      A
 Frequencies --   3130.9089              3138.5662              3146.5429
 Red. masses --      1.1002                 1.0889                 1.0859
 Frc consts  --      6.3540                 6.3198                 6.3345
 IR Inten    --     16.2653                 2.1167                15.3002

                     49                     50                     51
                      A                      A                      A
 Frequencies --   3501.3849              3741.4318              3816.1706
 Red. masses --      1.1585                 1.0662                 1.0663
 Frc consts  --      8.3683                 8.7938                 9.1489
 IR Inten    --     92.6025                72.4989                22.1027

 - Thermochemistry -
 -------------------
 Temperature   298.150 Kelvin.  Pressure   1.00000 Atm.
 Atom     1 has atomic number  6 and mass  12.00000

 Molecular mass:   126.06808 amu.
 Principal axes and moments of inertia in atomic units:
                           1         2         3
     Eigenvalues --   693.742381632.445271975.02241
           X            0.99995  -0.00119  -0.00986
           Y            0.00166   0.99887   0.04743
           Z            0.00979  -0.04744   0.99883
 This molecule is an asymmetric top.
 Rotational symmetry number  1.
 Warning -- assumption of classical behavior for rotation
           may cause significant error
 Rotational temperatures (Kelvin)      0.12485     0.05306     0.04385
 Rotational constants (GHZ):           2.60146     1.10554     0.91378
 Zero-point vibrational energy     407308.6 (Joules/Mol)
                                   97.34910 (Kcal/Mol)
 Warning -- explicit consideration of  15 degrees of freedom as
           vibrations may cause significant error
 Vibrational temperatures:    103.15   164.36   174.85   215.88   284.28
          (Kelvin)            294.92   331.61   423.58   485.91   522.83
                              584.28   613.42   650.99   816.37   844.53
                              901.17   952.98  1042.34  1116.52  1343.71
                             1377.05  1399.62  1435.96  1508.33  1546.92
                             1572.18  1585.87  1604.20  1710.55  1795.61
                             1838.97  1896.11  1973.39  1994.61  2046.89
                             2047.73  2083.70  2127.07  2154.50  2170.92
                             3197.22  4289.17  4383.80  4425.88  4482.93
                             4504.67  4515.69  4527.17  5037.71  5383.08
                             5490.61

 Zero-point correction=                           0.155136 (Hartree/Particle)
 Thermal correction to Energy=                    0.165650
 Thermal correction to Enthalpy=                  0.166594
 Thermal correction to Gibbs Free Energy=         0.119834
 Sum of electronic and zero-point Energies=           -422.972905
 Sum of electronic and thermal Energies=              -422.962390
 Sum of electronic and thermal Enthalpies=            -422.961446
 Sum of electronic and thermal Free Energies=         -423.008206

                     E (Thermal)             CV                S
                      KCal/Mol        Cal/Mol-Kelvin    Cal/Mol-Kelvin
 Total                  103.947             38.308             98.415
 Electronic               0.000              0.000              0.000
 Translational            0.889              2.981             40.409
 Rotational               0.889              2.981             29.193
 Vibrational            102.170             32.346             28.813
 Vibration     1          0.598              1.968              4.106
 Vibration     2          0.607              1.938              3.196
 Vibration     3          0.609              1.931              3.076
 Vibration     4          0.618              1.903              2.672
 Vibration     5          0.637              1.843              2.155
 Vibration     6          0.640              1.833              2.088
 Vibration     7          0.652              1.794              1.875
 Vibration     8          0.689              1.684              1.449
 Vibration     9          0.718              1.600              1.223
 Vibration    10          0.737              1.548              1.108
 Vibration    11          0.771              1.457              0.941
 Vibration    12          0.788              1.413              0.871
 Vibration    13          0.811              1.355              0.788
 Vibration    14          0.923              1.102              0.509
 Vibration    15          0.944              1.060              0.473

 Normal termination of Gaussian 09 at Tue Jan 28 13:20:09 2020.
