 Gaussian 09, Revision D.01,
 Gaussian 09:  ES64L-G09RevD.01 24-Apr-2013

 -----------------------------
 # b3lyp 6-31G(2df,p) opt Freq
 -----------------------------

 -----
 titel
 -----
 Symbolic Z-matrix:
 Charge =  0 Multiplicity = 1

 SCF Done:  E(RB3LYP) =  -423.168284491     A.U. after   14 cycles
 Optimization completed.
    -- Stationary point found.
 Normal termination of Gaussian 09 at Tue Jan 28 08:13:47 2020.

 ----------------------------------------------------------------------
 #N Geom=AllCheck Guess=TCheck SCRF=Check GenChk RB3LYP/6-31G(2df,p) Fr
 eq
 ----------------------------------------------------------------------

 Structure from the checkpoint file:  "/scratch/puck/g09_25a911d2-c125-45c3-84f0-fcf80c11df5d/Gau-91848.chk"
 -----
 titel
 -----
 Charge =  0 Multiplicity = 1

                         Standard orientation:
 ---------------------------------------------------------------------
 Center     Atomic      Atomic             Coordinates (Angstroms)
 Number     Number       Type             X           Y           Z
 ---------------------------------------------------------------------
      1          6           0        3.039918   -0.505232    0.001848
      2          8           0        1.622142   -0.711186   -0.002469
      3          6           0        0.877179    0.415005   -0.002628
      4          8           0        1.343104    1.527248   -0.000098
      5          6           0       -0.582149    0.088326   -0.003329
      6          6           0       -1.385461   -0.654569    1.113357
      7          6           0       -2.417339   -0.305081    0.002105
      8          6           0       -1.752299    1.102252   -0.080516
      9          6           0       -1.360461   -0.794204   -1.030527
     10          1           0        3.347555    0.046335    0.894055
     11          1           0        3.485467   -1.500113   -0.004284
     12          1           0        3.350813    0.058844   -0.881328
     13          1           0       -1.149700   -1.711434    1.257549
     14          1           0       -1.484941   -0.126035    2.065042
     15          1           0       -3.483992   -0.527835    0.004558
     16          1           0       -1.860915    1.646024   -1.021946
     17          1           0       -1.880885    1.760992    0.781360
     18          1           0       -1.123289   -1.860422   -1.031534
     19          1           0       -1.438408   -0.393836   -2.044793
 ---------------------------------------------------------------------

 SCF Done:  E(RB3LYP) =  -423.168284491     A.U. after    1 cycles

 The electronic state is 1-A.
 Alpha  occ. eigenvalues --  -19.18005 -19.12206 -10.29880 -10.23540 -10.21475
 Alpha  occ. eigenvalues --  -10.20675 -10.19523 -10.19450 -10.18905  -1.09724
 Alpha  occ. eigenvalues --   -1.00927  -0.91909  -0.73847  -0.67231  -0.67068
 Alpha  occ. eigenvalues --   -0.65253  -0.56688  -0.53985  -0.52513  -0.47763
 Alpha  occ. eigenvalues --   -0.46776  -0.45438  -0.45222  -0.42938  -0.39652
 Alpha  occ. eigenvalues --   -0.36335  -0.35683  -0.33951  -0.32783  -0.32339
 Alpha  occ. eigenvalues --   -0.32172  -0.31973  -0.29849  -0.26026
 Alpha virt. eigenvalues --    0.00838   0.10057   0.10753   0.11844   0.12687
 Alpha virt. eigenvalues --    0.14819   0.15141   0.15479   0.15867   0.16019
 Alpha virt. eigenvalues --    0.16311   0.16392   0.18096   0.18924   0.21809

 Mulliken charges:
               1
     1  C   -0.239408
     2  O   -0.235570
     3  C    0.280166
     4  O   -0.375162
     5  C    0.284177
     6  C   -0.248141
     7  C   -0.055568
     8  C   -0.248913
     9  C   -0.248550
    10  H    0.139848
    11  H    0.131512
    12  H    0.140182
    13  H    0.101018
    14  H    0.099002
    15  H    0.077930
    16  H    0.098716
    17  H    0.099878
    18  H    0.101123
    19  H    0.097758
 Sum of Mulliken charges =   0.00000

 Dipole moment (field-independent basis, Debye):
    X=             -0.2684    Y=             -1.7707    Z=              0.0152  Tot=              1.7910
 Quadrupole moment (field-independent basis, Debye-Ang):
   XX=            -47.3855   YY=            -57.3615   ZZ=            -51.6084
   XY=             -3.6115   XZ=             -0.0182   YZ=             -0.0088

  Exact polarizability:  89.210  -1.846  75.296  -0.029  -0.017  67.189
 Approx polarizability: 112.207   1.349 121.563  -0.138  -0.053 100.565

                      1                      2                      3
                      A                      A                      A
 Frequencies --     20.0770               109.5986               126.3614
 Red. masses --      4.2648                 1.6157                 1.5695
 Frc consts  --      0.0010                 0.0114                 0.0148
 IR Inten    --      0.7619                 0.8565                 0.2638

                      4                      5                      6
                      A                      A                      A
 Frequencies --    137.8341               246.8438               307.8897
 Red. masses --      3.6566                 3.9167                 4.1122
 Frc consts  --      0.0409                 0.1406                 0.2297
 IR Inten    --      1.0253                 4.9729                16.2662

                      7                      8                      9
                      A                      A                      A
 Frequencies --    374.8989               453.2753               536.0195
 Red. masses --      4.5295                 4.3615                 1.8381
 Frc consts  --      0.3751                 0.5280                 0.3112
 IR Inten    --      0.2855                 5.3370                 0.0032

                     10                     11                     12
                      A                      A                      A
 Frequencies --    561.0882               723.0174               796.7696
 Red. masses --      2.0323                 5.5000                 4.2918
 Frc consts  --      0.3770                 1.6940                 1.6053
 IR Inten    --      0.2005                 2.4884                 6.6805

                     13                     14                     15
                      A                      A                      A
 Frequencies --    807.4090               818.8968               890.9872
 Red. masses --      2.8629                 3.2541                 3.4669
 Frc consts  --      1.0996                 1.2857                 1.6216
 IR Inten    --      0.3340                 2.6625                 3.3112

                     16                     17                     18
                      A                      A                      A
 Frequencies --    929.1707               958.7792               963.9673
 Red. masses --      3.6254                 1.8695                 1.2538
 Frc consts  --      1.8442                 1.0125                 0.6864
 IR Inten    --      5.9899                 0.2330                 0.0037

                     19                     20                     21
                      A                      A                      A
 Frequencies --    967.5218               997.3643              1018.7393
 Red. masses --      1.8853                 1.0141                 3.9272
 Frc consts  --      1.0398                 0.5943                 2.4014
 IR Inten    --      0.1572                 0.0048                 9.4575

                     22                     23                     24
                      A                      A                      A
 Frequencies --   1096.5970              1102.1321              1135.1406
 Red. masses --      1.5105                 1.5917                 1.3547
 Frc consts  --      1.0702                 1.1392                 1.0285
 IR Inten    --      0.0112                 0.8776                 0.5072

                     25                     26                     27
                      A                      A                      A
 Frequencies --   1141.6111              1165.0366              1165.4454
 Red. masses --      1.4251                 1.9492                 2.3515
 Frc consts  --      1.0943                 1.5588                 1.8818
 IR Inten    --      1.5504                59.3493               109.5510

                     28                     29                     30
                      A                      A                      A
 Frequencies --   1169.1713              1178.4732              1215.2821
 Red. masses --      1.8295                 1.2840                 1.6929
 Frc consts  --      1.4735                 1.0507                 1.4731
 IR Inten    --     22.7639                 1.0775                50.9859

                     31                     32                     33
                      A                      A                      A
 Frequencies --   1231.9807              1234.1814              1252.3560
 Red. masses --      1.6668                 1.7691                 1.7497
 Frc consts  --      1.4905                 1.5876                 1.6168
 IR Inten    --      1.2258                 1.7399               108.0690

                     34                     35                     36
                      A                      A                      A
 Frequencies --   1344.3501              1473.2716              1481.6698
 Red. masses --      5.2878                 1.2123                 1.0471
 Frc consts  --      5.6306                 1.5503                 1.3544
 IR Inten    --    141.1725                15.4944                 5.9468

                     37                     38                     39
                      A                      A                      A
 Frequencies --   1497.4376              1498.5224              1500.8301
 Red. masses --      1.0587                 1.0952                 1.0981
 Frc consts  --      1.3987                 1.4491                 1.4573
 IR Inten    --      6.4085                 0.1064                 0.4240

                     40                     41                     42
                      A                      A                      A
 Frequencies --   1554.7299              1814.0036              3050.1877
 Red. masses --      1.1809                12.0879                 1.0298
 Frc consts  --      1.6818                23.4358                 5.6451
 IR Inten    --      1.8794               202.6994                33.0410

                     43                     44                     45
                      A                      A                      A
 Frequencies --   3054.8468              3056.8161              3063.6280
 Red. masses --      1.0536                 1.0541                 1.0545
 Frc consts  --      5.7932                 5.8032                 5.8316
 IR Inten    --     61.1738                41.2361                 8.4779

                     46                     47                     48
                      A                      A                      A
 Frequencies --   3117.1774              3122.9755              3123.8001
 Red. masses --      1.0926                 1.1127                 1.1054
 Frc consts  --      6.2551                 6.3941                 6.3555
 IR Inten    --     64.1783                 1.0607                17.5885

                     49                     50                     51
                      A                      A                      A
 Frequencies --   3127.9320              3129.0041              3157.1416
 Red. masses --      1.1107                 1.1112                 1.1058
 Frc consts  --      6.4027                 6.4099                 6.4941
 IR Inten    --     46.9778                45.0969                15.8664

 - Thermochemistry -
 -------------------
 Temperature   298.150 Kelvin.  Pressure   1.00000 Atm.
 Atom     1 has atomic number  6 and mass  12.00000

 Molecular mass:   126.06808 amu.
 Principal axes and moments of inertia in atomic units:
                           1         2         3
     Eigenvalues --   485.895181608.974381793.96487
           X            0.99990  -0.01436   0.00008
           Y            0.01436   0.99990  -0.00003
           Z           -0.00008   0.00003   1.00000
 This molecule is an asymmetric top.
 Rotational symmetry number  1.
 Warning -- assumption of classical behavior for rotation
           may cause significant error
 Rotational temperatures (Kelvin)      0.17826     0.05383     0.04828
 Rotational constants (GHZ):           3.71426     1.12167     1.00601
 Zero-point vibrational energy     418706.4 (Joules/Mol)
                                  100.07323 (Kcal/Mol)
 Warning -- explicit consideration of  10 degrees of freedom as
           vibrations may cause significant error
 Vibrational temperatures:     28.89   157.69   181.81   198.31   355.15
          (Kelvin)            442.98   539.40   652.16   771.21   807.28
                             1040.26  1146.37  1161.68  1178.21  1281.93
                             1336.87  1379.47  1386.93  1392.05  1434.98
                             1465.74  1577.76  1585.72  1633.21  1642.52
                             1676.23  1676.81  1682.17  1695.56  1748.52
                             1772.54  1775.71  1801.86  1934.22  2119.71
                             2131.79  2154.48  2156.04  2159.36  2236.91
                             2609.94  4388.53  4395.24  4398.07  4407.87
                             4484.92  4493.26  4494.45  4500.39  4501.93
                             4542.42

 Zero-point correction=                           0.159477 (Hartree/Particle)
 Thermal correction to Energy=                    0.168056
 Thermal correction to Enthalpy=                  0.169001
 Thermal correction to Gibbs Free Energy=         0.124689
 Sum of electronic and zero-point Energies=           -423.008808
 Sum of electronic and thermal Energies=              -423.000228
 Sum of electronic and thermal Enthalpies=            -422.999284
 Sum of electronic and thermal Free Energies=         -423.043596

                     E (Thermal)             CV                S
                      KCal/Mol        Cal/Mol-Kelvin    Cal/Mol-Kelvin
 Total                  105.457             31.290             93.262
 Electronic               0.000              0.000              0.000
 Translational            0.889              2.981             40.409
 Rotational               0.889              2.981             28.730
 Vibrational            103.680             25.329             24.124
 Vibration     1          0.593              1.986              6.627
 Vibration     2          0.606              1.942              3.276
 Vibration     3          0.611              1.927              3.001
 Vibration     4          0.614              1.916              2.834
 Vibration     5          0.661              1.768              1.753
 Vibration     6          0.698              1.659              1.374
 Vibration     7          0.746              1.524              1.060
 Vibration     8          0.812              1.354              0.786
 Vibration     9          0.891              1.170              0.574
 Vibration    10          0.917              1.115              0.522

 Normal termination of Gaussian 09 at Tue Jan 28 08:54:48 2020.
