 Gaussian 09, Revision D.01,
 Gaussian 09:  ES64L-G09RevD.01 24-Apr-2013

 -----------------------------
 # b3lyp 6-31G(2df,p) opt Freq
 -----------------------------

 -----
 titel
 -----
 Symbolic Z-matrix:
 Charge =  0 Multiplicity = 1

 SCF Done:  E(RB3LYP) =  -423.195299031     A.U. after   14 cycles
 Optimization completed.
    -- Stationary point found.
 Normal termination of Gaussian 09 at Mon Jan 27 22:00:36 2020.

 ----------------------------------------------------------------------
 #N Geom=AllCheck Guess=TCheck SCRF=Check GenChk RB3LYP/6-31G(2df,p) Fr
 eq
 ----------------------------------------------------------------------

 Structure from the checkpoint file:  "/scratch/puck/g09_7aff4f15-7fdc-4330-8d33-b364027583cd/Gau-76329.chk"
 -----
 titel
 -----
 Charge =  0 Multiplicity = 1

                         Standard orientation:
 ---------------------------------------------------------------------
 Center     Atomic      Atomic             Coordinates (Angstroms)
 Number     Number       Type             X           Y           Z
 ---------------------------------------------------------------------
      1          6           0        0.567078    1.914225    0.373437
      2          6           0       -0.164902    0.660521   -0.003436
      3          8           0       -1.436293    0.914649   -0.531710
      4          6           0       -2.245622   -0.259732   -0.405764
      5          6           0       -1.611176   -1.119398    0.710110
      6          6           0       -0.175189   -0.629303    0.724005
      7          6           0        0.556183   -0.584690   -0.623228
      8          6           0        2.026056   -0.658433   -0.616146
      9          8           0        2.730993   -0.420535    0.342571
     10          1           0        1.563894    1.678260    0.746342
     11          1           0        0.656173    2.579367   -0.490818
     12          1           0        0.010663    2.444416    1.152744
     13          1           0       -3.267267    0.060141   -0.184904
     14          1           0       -2.261963   -0.801860   -1.360469
     15          1           0       -2.071421   -0.911894    1.681735
     16          1           0       -1.716707   -2.189365    0.510151
     17          1           0        0.460409   -0.784221    1.588214
     18          1           0        0.074546   -1.014979   -1.495163
     19          1           0        2.479508   -0.951923   -1.588595
 ---------------------------------------------------------------------

 SCF Done:  E(RB3LYP) =  -423.195299031     A.U. after    1 cycles

 The electronic state is 1-A.
 Alpha  occ. eigenvalues --  -19.15332 -19.12875 -10.26502 -10.25721 -10.23908
 Alpha  occ. eigenvalues --  -10.20266 -10.20015 -10.19787 -10.17923  -1.05710
 Alpha  occ. eigenvalues --   -1.03491  -0.86104  -0.77915  -0.71882  -0.67856
 Alpha  occ. eigenvalues --   -0.62612  -0.57158  -0.53491  -0.51260  -0.48685
 Alpha  occ. eigenvalues --   -0.46642  -0.45519  -0.43234  -0.42101  -0.40630
 Alpha  occ. eigenvalues --   -0.39559  -0.38879  -0.37847  -0.36386  -0.34267
 Alpha  occ. eigenvalues --   -0.32171  -0.29117  -0.25440  -0.23598
 Alpha virt. eigenvalues --   -0.02259   0.08313   0.09231   0.11971   0.12186
 Alpha virt. eigenvalues --    0.13316   0.14345   0.15172   0.16276   0.16767
 Alpha virt. eigenvalues --    0.17583   0.18979   0.20240   0.21398   0.21906

 Mulliken charges:
               1
     1  C   -0.481981
     2  C    0.447200
     3  O   -0.287222
     4  C   -0.096278
     5  C   -0.258486
     6  C   -0.114004
     7  C   -0.208297
     8  C    0.124475
     9  O   -0.281839
    10  H    0.159668
    11  H    0.128984
    12  H    0.125980
    13  H    0.116573
    14  H    0.106528
    15  H    0.117309
    16  H    0.113081
    17  H    0.118588
    18  H    0.092541
    19  H    0.077178
 Sum of Mulliken charges =   0.00000

 Dipole moment (field-independent basis, Debye):
    X=             -2.3761    Y=             -1.0611    Z=             -0.5474  Tot=              2.6592
 Quadrupole moment (field-independent basis, Debye-Ang):
   XX=            -58.7228   YY=            -52.5034   ZZ=            -51.5710
   XY=              3.4345   XZ=             -4.2105   YZ=              2.1007

  Exact polarizability:  93.486  -0.117  70.809  -2.762   3.473  69.088
 Approx polarizability: 131.159  -5.210 103.930   2.563   4.354 109.843

                      1                      2                      3
                      A                      A                      A
 Frequencies --    126.5124               168.9428               203.3955
 Red. masses --      4.8328                 3.0029                 2.7015
 Frc consts  --      0.0456                 0.0505                 0.0658
 IR Inten    --      9.2553                 3.2305                 4.1410

                      4                      5                      6
                      A                      A                      A
 Frequencies --    214.0013               214.9765               234.9526
 Red. masses --      1.4222                 2.1591                 1.6929
 Frc consts  --      0.0384                 0.0588                 0.0551
 IR Inten    --      3.5622                 2.1350                 5.9984

                      7                      8                      9
                      A                      A                      A
 Frequencies --    328.5903               351.8377               419.8449
 Red. masses --      3.3546                 3.2256                 2.8977
 Frc consts  --      0.2134                 0.2353                 0.3009
 IR Inten    --      0.9781                 1.5455                 1.5487

                     10                     11                     12
                      A                      A                      A
 Frequencies --    619.5844               653.8571               682.6780
 Red. masses --      4.4469                 2.9967                 5.0400
 Frc consts  --      1.0058                 0.7549                 1.3839
 IR Inten    --      5.2820                 9.7348                15.7658

                     13                     14                     15
                      A                      A                      A
 Frequencies --    720.2737               798.9580               869.0358
 Red. masses --      3.0153                 3.9222                 1.6861
 Frc consts  --      0.9217                 1.4751                 0.7503
 IR Inten    --      2.8251                99.2939                 7.7104

                     16                     17                     18
                      A                      A                      A
 Frequencies --    896.6066               922.9243               951.5023
 Red. masses --      2.8744                 2.1276                 2.3014
 Frc consts  --      1.3615                 1.0678                 1.2276
 IR Inten    --      9.7530                19.9861                10.3976

                     19                     20                     21
                      A                      A                      A
 Frequencies --    966.2395              1022.5402              1036.9442
 Red. masses --      1.4379                 1.7500                 1.9314
 Frc consts  --      0.7910                 1.0781                 1.2236
 IR Inten    --     23.2436                64.3922                43.7932

                     22                     23                     24
                      A                      A                      A
 Frequencies --   1045.5898              1087.7717              1099.9289
 Red. masses --      1.9115                 1.6916                 1.9803
 Frc consts  --      1.2312                 1.1793                 1.4116
 IR Inten    --      8.6695                 4.6281                19.4800

                     25                     26                     27
                      A                      A                      A
 Frequencies --   1105.3951              1124.2506              1214.4244
 Red. masses --      1.9556                 1.8490                 1.3320
 Frc consts  --      1.4078                 1.3770                 1.1574
 IR Inten    --     69.5361                 4.6202                 0.6390

                     28                     29                     30
                      A                      A                      A
 Frequencies --   1217.0167              1235.7168              1262.3513
 Red. masses --      2.3181                 1.3964                 1.3524
 Frc consts  --      2.0229                 1.2563                 1.2698
 IR Inten    --     62.5649                 2.7644                10.9216

                     31                     32                     33
                      A                      A                      A
 Frequencies --   1322.3038              1340.1171              1393.5503
 Red. masses --      1.5832                 1.6223                 1.3804
 Frc consts  --      1.6310                 1.7166                 1.5795
 IR Inten    --     11.6698                44.6501                 6.8828

                     34                     35                     36
                      A                      A                      A
 Frequencies --   1409.1745              1429.8045              1445.0647
 Red. masses --      1.3879                 1.2652                 2.7923
 Frc consts  --      1.6238                 1.5239                 3.4355
 IR Inten    --     40.8806                15.4433                29.5869

                     37                     38                     39
                      A                      A                      A
 Frequencies --   1491.2177              1492.7439              1502.2134
 Red. masses --      1.0713                 1.0624                 1.1339
 Frc consts  --      1.4036                 1.3948                 1.5077
 IR Inten    --      4.0532                 0.9983                 7.4550

                     40                     41                     42
                      A                      A                      A
 Frequencies --   1527.7383              1783.3948              2884.2077
 Red. masses --      1.0909                 9.0845                 1.0828
 Frc consts  --      1.5001                17.0233                 5.3071
 IR Inten    --      0.7872               172.3272               149.4482

                     43                     44                     45
                      A                      A                      A
 Frequencies --   3013.9935              3046.7759              3050.0181
 Red. masses --      1.0702                 1.0378                 1.0612
 Frc consts  --      5.7277                 5.6759                 5.8161
 IR Inten    --     46.3168                25.6562                24.4966

                     46                     47                     48
                      A                      A                      A
 Frequencies --   3087.2763              3100.2287              3107.3886
 Red. masses --      1.0943                 1.1046                 1.1012
 Frc consts  --      6.1455                 6.2550                 6.2648
 IR Inten    --     29.2691                30.6634                15.8691

                     49                     50                     51
                      A                      A                      A
 Frequencies --   3157.4643              3167.2072              3187.5195
 Red. masses --      1.0989                 1.0890                 1.0904
 Frc consts  --      6.4547                 6.4363                 6.5275
 IR Inten    --      1.5672                 8.3479                 2.3698

 - Thermochemistry -
 -------------------
 Temperature   298.150 Kelvin.  Pressure   1.00000 Atm.
 Atom     1 has atomic number  6 and mass  12.00000

 Molecular mass:   126.06808 amu.
 Principal axes and moments of inertia in atomic units:
                           1         2         3
     Eigenvalues --   590.952831357.780491620.55053
           X            0.99910   0.04121  -0.00965
           Y           -0.04080   0.99839   0.03935
           Z            0.01126  -0.03892   0.99918
 This molecule is an asymmetric top.
 Rotational symmetry number  1.
 Warning -- assumption of classical behavior for rotation
           may cause significant error
 Rotational temperatures (Kelvin)      0.14657     0.06379     0.05345
 Rotational constants (GHZ):           3.05395     1.32918     1.11366
 Zero-point vibrational energy     417114.2 (Joules/Mol)
                                   99.69268 (Kcal/Mol)
 Warning -- explicit consideration of  10 degrees of freedom as
           vibrations may cause significant error
 Vibrational temperatures:    182.02   243.07   292.64   307.90   309.30
          (Kelvin)            338.04   472.77   506.22   604.06   891.44
                              940.75   982.22  1036.31  1149.52  1250.35
                             1290.02  1327.88  1369.00  1390.20  1471.21
                             1491.93  1504.37  1565.06  1582.55  1590.41
                             1617.54  1747.28  1751.01  1777.92  1816.24
                             1902.50  1928.13  2005.01  2027.49  2057.17
                             2079.12  2145.53  2147.72  2161.35  2198.07
                             2565.90  4149.73  4336.46  4383.63  4388.29
                             4441.90  4460.53  4470.83  4542.88  4556.90
                             4586.12

 Zero-point correction=                           0.158870 (Hartree/Particle)
 Thermal correction to Energy=                    0.167333
 Thermal correction to Enthalpy=                  0.168277
 Thermal correction to Gibbs Free Energy=         0.126073
 Sum of electronic and zero-point Energies=           -423.036429
 Sum of electronic and thermal Energies=              -423.027966
 Sum of electronic and thermal Enthalpies=            -423.027022
 Sum of electronic and thermal Free Energies=         -423.069226

                     E (Thermal)             CV                S
                      KCal/Mol        Cal/Mol-Kelvin    Cal/Mol-Kelvin
 Total                  105.003             32.086             88.827
 Electronic               0.000              0.000              0.000
 Translational            0.889              2.981             40.409
 Rotational               0.889              2.981             28.655
 Vibrational            103.226             26.124             19.764
 Vibration     1          0.611              1.927              2.998
 Vibration     2          0.625              1.881              2.447
 Vibration     3          0.639              1.835              2.102
 Vibration     4          0.644              1.820              2.009
 Vibration     5          0.645              1.818              2.001
 Vibration     6          0.655              1.787              1.841
 Vibration     7          0.712              1.618              1.267
 Vibration     8          0.728              1.571              1.158
 Vibration     9          0.783              1.427              0.892
 Vibration    10          0.980              0.991              0.417

 Normal termination of Gaussian 09 at Mon Jan 27 22:42:25 2020.
