 Gaussian 09, Revision D.01,
 Gaussian 09:  ES64L-G09RevD.01 24-Apr-2013

 -----------------------------
 # b3lyp 6-31G(2df,p) opt Freq
 -----------------------------

 -----
 titel
 -----
 Symbolic Z-matrix:
 Charge =  0 Multiplicity = 1

 SCF Done:  E(RB3LYP) =  -423.153233918     A.U. after   14 cycles
 Optimization completed.
    -- Stationary point found.
 Normal termination of Gaussian 09 at Tue Jan 28 03:58:25 2020.

 ----------------------------------------------------------------------
 #N Geom=AllCheck Guess=TCheck SCRF=Check GenChk RB3LYP/6-31G(2df,p) Fr
 eq
 ----------------------------------------------------------------------

 Structure from the checkpoint file:  "/scratch/puck/g09_6ae966ec-d162-4da1-bcc4-30f0cae58f70/Gau-69797.chk"
 -----
 titel
 -----
 Charge =  0 Multiplicity = 1

                         Standard orientation:
 ---------------------------------------------------------------------
 Center     Atomic      Atomic             Coordinates (Angstroms)
 Number     Number       Type             X           Y           Z
 ---------------------------------------------------------------------
      1          6           0       -1.425981    1.971424   -0.004981
      2          6           0       -0.607992    0.752524    0.271281
      3          6           0        0.708638    0.605825    0.385299
      4          6           0        2.043996    0.971521   -0.212195
      5          8           0        2.264232   -0.450790   -0.479654
      6          6           0        1.168361   -0.810345    0.434850
      7          6           0       -0.062005   -1.606720   -0.014421
      8          6           0       -1.242692   -0.653883    0.375849
      9          8           0       -2.395321   -0.813697   -0.432001
     10          1           0       -2.165271    1.781626   -0.789231
     11          1           0       -1.994469    2.271101    0.885288
     12          1           0       -0.800062    2.817711   -0.300818
     13          1           0        2.036636    1.579846   -1.123322
     14          1           0        2.801411    1.359868    0.481601
     15          1           0        1.596481   -1.178828    1.376588
     16          1           0       -0.042943   -1.699864   -1.106893
     17          1           0       -0.154437   -2.606610    0.416956
     18          1           0       -1.600175   -0.868325    1.391187
     19          1           0       -2.122413   -0.722705   -1.352219
 ---------------------------------------------------------------------

 SCF Done:  E(RB3LYP) =  -423.153233918     A.U. after    1 cycles

 The electronic state is 1-A.
 Alpha  occ. eigenvalues --  -19.14197 -19.13522 -10.24024 -10.24017 -10.22864
 Alpha  occ. eigenvalues --  -10.19110 -10.18660 -10.18569 -10.18306  -1.03280
 Alpha  occ. eigenvalues --   -1.02374  -0.83343  -0.75291  -0.71343  -0.66748
 Alpha  occ. eigenvalues --   -0.64884  -0.58955  -0.52399  -0.50030  -0.47810
 Alpha  occ. eigenvalues --   -0.46807  -0.44394  -0.43032  -0.42389  -0.40810
 Alpha  occ. eigenvalues --   -0.39702  -0.36810  -0.36415  -0.34363  -0.32413
 Alpha  occ. eigenvalues --   -0.31100  -0.27337  -0.25153  -0.23507
 Alpha virt. eigenvalues --    0.00537   0.07230   0.08111   0.10474   0.11244
 Alpha virt. eigenvalues --    0.12326   0.14006   0.15394   0.16062   0.17078
 Alpha virt. eigenvalues --    0.17267   0.18169   0.18626   0.22284   0.22494

 Mulliken charges:
               1
     1  C   -0.488070
     2  C    0.120754
     3  C    0.093421
     4  C   -0.155351
     5  O   -0.309358
     6  C    0.111710
     7  C   -0.289515
     8  C    0.068398
     9  O   -0.424787
    10  H    0.127431
    11  H    0.135450
    12  H    0.121809
    13  H    0.116151
    14  H    0.107168
    15  H    0.079391
    16  H    0.106971
    17  H    0.102981
    18  H    0.097739
    19  H    0.277707
 Sum of Mulliken charges =   0.00000

 Dipole moment (field-independent basis, Debye):
    X=             -0.2007    Y=              1.1499    Z=              0.0171  Tot=              1.1674
 Quadrupole moment (field-independent basis, Debye-Ang):
   XX=            -61.1096   YY=            -51.2568   ZZ=            -50.2969
   XY=              0.9579   XZ=              3.0622   YZ=             -1.3541

  Exact polarizability:  95.197  -0.050  79.895   1.399  -3.773  61.618
 Approx polarizability: 143.345  -1.323 109.645   1.818  -3.986  97.878

                      1                      2                      3
                      A                      A                      A
 Frequencies --    101.2490               124.8077               149.3578
 Red. masses --      3.2794                 1.1195                 3.1499
 Frc consts  --      0.0198                 0.0103                 0.0414
 IR Inten    --      2.9425                 0.1776                 1.7378

                      4                      5                      6
                      A                      A                      A
 Frequencies --    235.6700               252.5924               318.5488
 Red. masses --      2.2159                 3.0641                 2.6363
 Frc consts  --      0.0725                 0.1152                 0.1576
 IR Inten    --      3.3738                 1.3887                 6.2768

                      7                      8                      9
                      A                      A                      A
 Frequencies --    374.7395               410.0023               479.7099
 Red. masses --      1.2836                 3.2130                 3.0832
 Frc consts  --      0.1062                 0.3182                 0.4180
 IR Inten    --     81.3934                 2.7572                16.0551

                     10                     11                     12
                      A                      A                      A
 Frequencies --    513.5272               547.8382               622.9590
 Red. masses --      4.3473                 2.5239                 3.8349
 Frc consts  --      0.6755                 0.4463                 0.8769
 IR Inten    --      4.2686                10.7903                 2.9375

                     13                     14                     15
                      A                      A                      A
 Frequencies --    720.2294               775.4042               855.0786
 Red. masses --      3.2058                 3.8292                 2.6653
 Frc consts  --      0.9798                 1.3565                 1.1482
 IR Inten    --      4.6505                 5.8455                11.8968

                     16                     17                     18
                      A                      A                      A
 Frequencies --    897.9928               926.8514               947.3683
 Red. masses --      3.3924                 4.0181                 1.9681
 Frc consts  --      1.6118                 2.0337                 1.0407
 IR Inten    --     32.0236                42.7495                30.4720

                     19                     20                     21
                      A                      A                      A
 Frequencies --    980.2140              1014.0831              1052.1919
 Red. masses --      2.4987                 2.5915                 1.8244
 Frc consts  --      1.4145                 1.5702                 1.1900
 IR Inten    --     13.5476                14.1642                19.5386

                     22                     23                     24
                      A                      A                      A
 Frequencies --   1060.9645              1065.0997              1119.9906
 Red. masses --      1.6397                 2.7871                 1.7104
 Frc consts  --      1.0875                 1.8629                 1.2641
 IR Inten    --     13.5686                73.1082                 3.2082

                     25                     26                     27
                      A                      A                      A
 Frequencies --   1130.9856              1147.5622              1161.9455
 Red. masses --      2.8640                 1.2657                 1.5138
 Frc consts  --      2.1584                 0.9821                 1.2041
 IR Inten    --     28.1896                 0.6338                 3.7897

                     28                     29                     30
                      A                      A                      A
 Frequencies --   1221.2190              1236.0004              1268.8967
 Red. masses --      1.6121                 2.4836                 1.4798
 Frc consts  --      1.4166                 2.2355                 1.4038
 IR Inten    --     20.3620                 2.0666                 1.9004

                     31                     32                     33
                      A                      A                      A
 Frequencies --   1303.5274              1305.5467              1332.0080
 Red. masses --      1.4349                 1.5366                 1.6580
 Frc consts  --      1.4366                 1.5431                 1.7332
 IR Inten    --      0.4572                 8.6757                 6.1476

                     34                     35                     36
                      A                      A                      A
 Frequencies --   1357.5491              1408.6352              1428.9712
 Red. masses --      1.3276                 1.2739                 1.2052
 Frc consts  --      1.4415                 1.4893                 1.4499
 IR Inten    --     16.1752                 2.3951                61.6011

                     37                     38                     39
                      A                      A                      A
 Frequencies --   1471.9951              1473.8343              1487.8046
 Red. masses --      1.0512                 1.0928                 1.0504
 Frc consts  --      1.3420                 1.3985                 1.3699
 IR Inten    --      6.8374                 2.8847                 9.1931

                     40                     41                     42
                      A                      A                      A
 Frequencies --   1510.1044              1779.4434              3007.1331
 Red. masses --      1.1050                10.0203                 1.0685
 Frc consts  --      1.4846                18.6939                 5.6931
 IR Inten    --      0.9841                 1.3655                54.7706

                     43                     44                     45
                      A                      A                      A
 Frequencies --   3014.5135              3022.9108              3026.1232
 Red. masses --      1.0749                 1.0465                 1.0791
 Frc consts  --      5.7549                 5.6345                 5.8223
 IR Inten    --     81.1950                21.1105                34.0025

                     46                     47                     48
                      A                      A                      A
 Frequencies --   3043.0189              3067.3145              3079.0591
 Red. masses --      1.0622                 1.1046                 1.0908
 Frc consts  --      5.7952                 6.1229                 6.0928
 IR Inten    --     19.3055                30.4577                15.8505

                     49                     50                     51
                      A                      A                      A
 Frequencies --   3108.0674              3116.9180              3791.7572
 Red. masses --      1.1026                 1.1021                 1.0658
 Frc consts  --      6.2754                 6.3083                 9.0283
 IR Inten    --     39.7520                15.3119                11.2314

 - Thermochemistry -
 -------------------
 Temperature   298.150 Kelvin.  Pressure   1.00000 Atm.
 Atom     1 has atomic number  6 and mass  12.00000

 Molecular mass:   126.06808 amu.
 Principal axes and moments of inertia in atomic units:
                           1         2         3
     Eigenvalues --   657.375001245.643891732.26912
           X            0.99990  -0.01270   0.00696
           Y            0.01282   0.99976  -0.01774
           Z           -0.00673   0.01783   0.99982
 This molecule is an asymmetric top.
 Rotational symmetry number  1.
 Warning -- assumption of classical behavior for rotation
           may cause significant error
 Rotational temperatures (Kelvin)      0.13176     0.06953     0.05000
 Rotational constants (GHZ):           2.74538     1.44884     1.04184
 Zero-point vibrational energy     417791.7 (Joules/Mol)
                                   99.85461 (Kcal/Mol)
 Warning -- explicit consideration of  11 degrees of freedom as
           vibrations may cause significant error
 Vibrational temperatures:    145.67   179.57   214.89   339.08   363.42
          (Kelvin)            458.32   539.17   589.90   690.19   738.85
                              788.22   896.30  1036.25  1115.63  1230.27
                             1292.01  1333.53  1363.05  1410.31  1459.04
                             1513.87  1526.49  1532.44  1611.41  1627.23
                             1651.08  1671.78  1757.06  1778.33  1825.66
                             1875.48  1878.39  1916.46  1953.21  2026.71
                             2055.97  2117.87  2120.52  2140.62  2172.70
                             2560.22  4326.59  4337.21  4349.29  4353.91
                             4378.22  4413.18  4430.07  4471.81  4484.54
                             5455.49

 Zero-point correction=                           0.159128 (Hartree/Particle)
 Thermal correction to Energy=                    0.167610
 Thermal correction to Enthalpy=                  0.168554
 Thermal correction to Gibbs Free Energy=         0.126075
 Sum of electronic and zero-point Energies=           -422.994105
 Sum of electronic and thermal Energies=              -422.985624
 Sum of electronic and thermal Enthalpies=            -422.984680
 Sum of electronic and thermal Free Energies=         -423.027159

                     E (Thermal)             CV                S
                      KCal/Mol        Cal/Mol-Kelvin    Cal/Mol-Kelvin
 Total                  105.177             32.322             89.406
 Electronic               0.000              0.000              0.000
 Translational            0.889              2.981             40.409
 Rotational               0.889              2.981             28.741
 Vibrational            103.400             26.360             20.257
 Vibration     1          0.604              1.948              3.430
 Vibration     2          0.610              1.928              3.025
 Vibration     3          0.618              1.903              2.680
 Vibration     4          0.655              1.786              1.835
 Vibration     5          0.664              1.758              1.712
 Vibration     6          0.705              1.638              1.318
 Vibration     7          0.746              1.524              1.060
 Vibration     8          0.774              1.449              0.927
 Vibration     9          0.836              1.295              0.711
 Vibration    10          0.869              1.220              0.625
 Vibration    11          0.903              1.144              0.549

 Optimization completed.
    -- Stationary point found.
 Normal termination of Gaussian 09 at Tue Jan 28 04:44:10 2020.
