 Gaussian 09, Revision D.01,
 Gaussian 09:  ES64L-G09RevD.01 24-Apr-2013

 -----------------------------
 # b3lyp 6-31G(2df,p) opt Freq
 -----------------------------

 -----
 titel
 -----
 Symbolic Z-matrix:
 Charge =  0 Multiplicity = 1

 SCF Done:  E(RB3LYP) =  -423.087096597     A.U. after   14 cycles
 Optimization completed.
    -- Stationary point found.
 Normal termination of Gaussian 09 at Tue Jan 28 14:11:45 2020.

 ----------------------------------------------------------------------
 #N Geom=AllCheck Guess=TCheck SCRF=Check GenChk RB3LYP/6-31G(2df,p) Fr
 eq
 ----------------------------------------------------------------------

 Structure from the checkpoint file:  "/scratch/puck/g09_b8958a3d-474b-495c-b93a-177af7beacfb/Gau-33651.chk"
 -----
 titel
 -----
 Charge =  0 Multiplicity = 1

                         Standard orientation:
 ---------------------------------------------------------------------
 Center     Atomic      Atomic             Coordinates (Angstroms)
 Number     Number       Type             X           Y           Z
 ---------------------------------------------------------------------
      1          6           0       -3.314561   -0.362131    0.089699
      2          8           0       -1.919838   -0.411922    0.269430
      3          6           0       -1.237310    0.604370   -0.443489
      4          6           0        0.230877    0.418138   -0.263197
      5          6           0        1.243188    1.532542   -0.243628
      6          6           0        1.100686    0.651018    0.969174
      7          6           0        1.754423   -0.746672    0.731275
      8          8           0        2.353552   -0.783101   -0.574265
      9          6           0        0.935759   -0.970543   -0.450795
     10          1           0       -3.596644   -0.478578   -0.969098
     11          1           0       -3.748682   -1.184772    0.663081
     12          1           0       -3.740612    0.586998    0.452821
     13          1           0       -1.505240    0.551706   -1.514782
     14          1           0       -1.542649    1.602773   -0.085872
     15          1           0        2.130188    1.471637   -0.861050
     16          1           0        0.821713    2.526863   -0.131092
     17          1           0        0.795318    1.015825    1.940595
     18          1           0        2.140389   -1.425465    1.481369
     19          1           0        0.498139   -1.867130   -0.871536
 ---------------------------------------------------------------------

 SCF Done:  E(RB3LYP) =  -423.087096597     A.U. after    1 cycles

 The electronic state is 1-A.
 Alpha  occ. eigenvalues --  -19.14952 -19.14149 -10.23528 -10.23379 -10.23333
 Alpha  occ. eigenvalues --  -10.22594 -10.19842 -10.19309 -10.18886  -1.07460
 Alpha  occ. eigenvalues --   -1.03414  -0.87217  -0.73488  -0.68981  -0.65722
 Alpha  occ. eigenvalues --   -0.62807  -0.56790  -0.53891  -0.51857  -0.49212
 Alpha  occ. eigenvalues --   -0.48129  -0.46102  -0.46009  -0.41617  -0.40121
 Alpha  occ. eigenvalues --   -0.39115  -0.37912  -0.34925  -0.33944  -0.31910
 Alpha  occ. eigenvalues --   -0.29880  -0.26490  -0.25352  -0.22876
 Alpha virt. eigenvalues --    0.06373   0.08762   0.09936   0.10766   0.13001
 Alpha virt. eigenvalues --    0.13990   0.14545   0.15173   0.15977   0.16179
 Alpha virt. eigenvalues --    0.17020   0.17981   0.18956   0.19365   0.21628

 Mulliken charges:
               1
     1  C   -0.220290
     2  O   -0.237918
     3  C   -0.188723
     4  C    0.308466
     5  C   -0.347746
     6  C   -0.142052
     7  C    0.029317
     8  O   -0.244725
     9  C   -0.027203
    10  H    0.103477
    11  H    0.127349
    12  H    0.103054
    13  H    0.088136
    14  H    0.087494
    15  H    0.137231
    16  H    0.111017
    17  H    0.097311
    18  H    0.108293
    19  H    0.107511
 Sum of Mulliken charges =   0.00000

 Dipole moment (field-independent basis, Debye):
    X=             -2.0759    Y=              0.6635    Z=              0.4761  Tot=              2.2308
 Quadrupole moment (field-independent basis, Debye-Ang):
   XX=            -54.0629   YY=            -51.0074   ZZ=            -52.2180
   XY=              0.1042   XZ=              3.6703   YZ=             -0.4341

  Exact polarizability:  85.667   0.702  73.944   3.388  -0.159  67.197
 Approx polarizability: 112.467   0.457 106.520   4.700   0.790 108.559

                      1                      2                      3
                      A                      A                      A
 Frequencies --     75.9666                93.8882               112.9176
 Red. masses --      3.1641                 2.2446                 3.8277
 Frc consts  --      0.0108                 0.0117                 0.0288
 IR Inten    --      0.0886                 4.1366                 1.7692

                      4                      5                      6
                      A                      A                      A
 Frequencies --    227.3547               271.4684               328.5303
 Red. masses --      1.3641                 2.2770                 3.1589
 Frc consts  --      0.0415                 0.0989                 0.2009
 IR Inten    --      3.2945                 0.3014                 1.6362

                      7                      8                      9
                      A                      A                      A
 Frequencies --    355.0346               419.1795               478.2319
 Red. masses --      3.1944                 3.5527                 3.0421
 Frc consts  --      0.2372                 0.3678                 0.4099
 IR Inten    --      2.3515                 5.4993                 4.7945

                     10                     11                     12
                      A                      A                      A
 Frequencies --    595.6450               657.0051               755.7072
 Red. masses --      3.7232                 2.9162                 2.8126
 Frc consts  --      0.7783                 0.7417                 0.9464
 IR Inten    --      6.6741                 1.2141                 4.9191

                     13                     14                     15
                      A                      A                      A
 Frequencies --    781.5428               806.5793               865.6990
 Red. masses --      2.7697                 5.6051                 2.1338
 Frc consts  --      0.9967                 2.1485                 0.9422
 IR Inten    --      8.0940                 4.8236                 9.8483

                     16                     17                     18
                      A                      A                      A
 Frequencies --    877.0283               913.8734               961.1860
 Red. masses --      2.0646                 1.5445                 2.5195
 Frc consts  --      0.9357                 0.7600                 1.3714
 IR Inten    --     20.9069                 5.3942                30.9506

                     19                     20                     21
                      A                      A                      A
 Frequencies --    974.2219               979.4593              1011.7219
 Red. masses --      2.6037                 1.9082                 1.5259
 Frc consts  --      1.4560                 1.0786                 0.9203
 IR Inten    --     19.1940                12.7277                 5.0882

                     22                     23                     24
                      A                      A                      A
 Frequencies --   1023.7452              1040.5420              1081.2213
 Red. masses --      2.4073                 1.5513                 1.8491
 Frc consts  --      1.4865                 0.9896                 1.2736
 IR Inten    --      2.4689                 0.3679                 3.3639

                     25                     26                     27
                      A                      A                      A
 Frequencies --   1101.3822              1148.3783              1178.8983
 Red. masses --      1.2540                 5.1000                 1.3597
 Frc consts  --      0.8962                 3.9627                 1.1134
 IR Inten    --      3.9363               157.1826                 8.5637

                     28                     29                     30
                      A                      A                      A
 Frequencies --   1194.7975              1209.7934              1224.0710
 Red. masses --      1.5302                 1.4109                 1.5807
 Frc consts  --      1.2870                 1.2166                 1.3955
 IR Inten    --     20.7409                10.6354                32.4681

                     31                     32                     33
                      A                      A                      A
 Frequencies --   1243.5294              1271.2550              1298.3247
 Red. masses --      1.3367                 1.6868                 1.6761
 Frc consts  --      1.2178                 1.6062                 1.6647
 IR Inten    --      6.2193                 6.9337                 2.4187

                     34                     35                     36
                      A                      A                      A
 Frequencies --   1352.6129              1394.3769              1429.7218
 Red. masses --      2.3572                 2.3089                 1.5026
 Frc consts  --      2.5410                 2.6449                 1.8096
 IR Inten    --     16.2063                 6.5941                48.4442

                     37                     38                     39
                      A                      A                      A
 Frequencies --   1475.9316              1481.2069              1485.7047
 Red. masses --      1.4593                 1.3644                 1.0617
 Frc consts  --      1.8730                 1.7637                 1.3807
 IR Inten    --      5.9848                 2.0345                 4.8355

                     40                     41                     42
                      A                      A                      A
 Frequencies --   1499.7462              1519.5678              2932.9861
 Red. masses --      1.0746                 1.0851                 1.0594
 Frc consts  --      1.4241                 1.4762                 5.3693
 IR Inten    --      6.1047                 2.1777                46.6081

                     43                     44                     45
                      A                      A                      A
 Frequencies --   2965.8363              2970.1283              3009.9167
 Red. masses --      1.0677                 1.0666                 1.1030
 Frc consts  --      5.5336                 5.5440                 5.8875
 IR Inten    --     65.2601                67.0526                56.2491

                     46                     47                     48
                      A                      A                      A
 Frequencies --   3113.9723              3137.1129              3189.6864
 Red. masses --      1.0956                 1.0549                 1.0871
 Frc consts  --      6.2593                 6.1167                 6.5168
 IR Inten    --     28.0835                15.3459                11.2524

                     49                     50                     51
                      A                      A                      A
 Frequencies --   3203.2835              3209.8171              3231.6286
 Red. masses --      1.0975                 1.0989                 1.1138
 Frc consts  --      6.6350                 6.6709                 6.8532
 IR Inten    --     15.8556                 9.3676                 2.5993

 - Thermochemistry -
 -------------------
 Temperature   298.150 Kelvin.  Pressure   1.00000 Atm.
 Atom     1 has atomic number  6 and mass  12.00000

 Molecular mass:   126.06808 amu.
 Principal axes and moments of inertia in atomic units:
                           1         2         3
     Eigenvalues --   477.970621704.152841882.50053
           X            0.99992   0.00756   0.01005
           Y           -0.00733   0.99973  -0.02208
           Z           -0.01022   0.02200   0.99971
 This molecule is an asymmetric top.
 Rotational symmetry number  1.
 Warning -- assumption of classical behavior for rotation
           may cause significant error
 Rotational temperatures (Kelvin)      0.18121     0.05083     0.04601
 Rotational constants (GHZ):           3.77584     1.05903     0.95869
 Zero-point vibrational energy     413677.1 (Joules/Mol)
                                   98.87121 (Kcal/Mol)
 Warning -- explicit consideration of  10 degrees of freedom as
           vibrations may cause significant error
 Vibrational temperatures:    109.30   135.08   162.46   327.11   390.58
          (Kelvin)            472.68   510.81   603.10   688.07   857.00
                              945.28  1087.29  1124.46  1160.49  1245.55
                             1261.85  1314.86  1382.93  1401.69  1409.22
                             1455.64  1472.94  1497.11  1555.63  1584.64
                             1652.26  1696.17  1719.05  1740.62  1761.16
                             1789.16  1829.05  1868.00  1946.11  2006.19
                             2057.05  2123.53  2131.12  2137.60  2157.80
                             2186.32  4219.91  4267.17  4273.35  4330.59
                             4480.31  4513.60  4589.24  4608.80  4618.21
                             4649.59

 Zero-point correction=                           0.157561 (Hartree/Particle)
 Thermal correction to Energy=                    0.166048
 Thermal correction to Enthalpy=                  0.166993
 Thermal correction to Gibbs Free Energy=         0.123955
 Sum of electronic and zero-point Energies=           -422.929535
 Sum of electronic and thermal Energies=              -422.921048
 Sum of electronic and thermal Enthalpies=            -422.920104
 Sum of electronic and thermal Free Energies=         -422.963142

                     E (Thermal)             CV                S
                      KCal/Mol        Cal/Mol-Kelvin    Cal/Mol-Kelvin
 Total                  104.197             31.935             90.581
 Electronic               0.000              0.000              0.000
 Translational            0.889              2.981             40.409
 Rotational               0.889              2.981             28.818
 Vibrational            102.419             25.973             21.354
 Vibration     1          0.599              1.965              3.992
 Vibration     2          0.603              1.954              3.577
 Vibration     3          0.607              1.939              3.218
 Vibration     4          0.651              1.799              1.900
 Vibration     5          0.675              1.726              1.587
 Vibration     6          0.712              1.618              1.267
 Vibration     7          0.731              1.565              1.144
 Vibration     8          0.782              1.429              0.895
 Vibration     9          0.835              1.298              0.715
 Vibration    10          0.953              1.041              0.457

 Optimization completed.
    -- Stationary point found.
 Normal termination of Gaussian 09 at Tue Jan 28 14:51:17 2020.
