 Gaussian 09, Revision D.01,
 Gaussian 09:  ES64L-G09RevD.01 24-Apr-2013

 -----------------------------
 # b3lyp 6-31G(2df,p) opt Freq
 -----------------------------

 -----
 titel
 -----
 Symbolic Z-matrix:
 Charge =  0 Multiplicity = 1

 SCF Done:  E(RB3LYP) =  -423.134337908     A.U. after   14 cycles
 Optimization completed.
    -- Stationary point found.
 Normal termination of Gaussian 09 at Mon Jan 27 22:04:34 2020.

 ----------------------------------------------------------------------
 #N Geom=AllCheck Guess=TCheck SCRF=Check GenChk RB3LYP/6-31G(2df,p) Fr
 eq
 ----------------------------------------------------------------------

 Structure from the checkpoint file:  "/scratch/puck/g09_77cc204d-42c7-447c-8aee-7012675623f9/Gau-62977.chk"
 -----
 titel
 -----
 Charge =  0 Multiplicity = 1

                         Standard orientation:
 ---------------------------------------------------------------------
 Center     Atomic      Atomic             Coordinates (Angstroms)
 Number     Number       Type             X           Y           Z
 ---------------------------------------------------------------------
      1          6           0       -2.605493   -0.338262   -0.618764
      2          6           0       -1.207372   -0.209198   -0.112757
      3          8           0       -0.947689   -0.485560    1.278230
      4          6           0       -0.173069   -1.186854    0.275686
      5          6           0        0.943350   -0.254357   -0.127845
      6          6           0        2.200041   -0.576819   -0.877425
      7          6           0        2.267694   -0.024661    0.529494
      8          6           0       -0.116478    0.821444   -0.510069
      9          8           0       -0.115345    2.030868    0.195651
     10          1           0       -3.202070    0.531897   -0.323298
     11          1           0       -2.617407   -0.397860   -1.711795
     12          1           0       -3.080997   -1.234496   -0.211510
     13          1           0       -0.204133   -2.270496    0.298066
     14          1           0        2.454959   -1.621437   -1.027544
     15          1           0        2.481967    0.071976   -1.700843
     16          1           0        2.573119   -0.689896    1.330315
     17          1           0        2.575036    1.008477    0.656568
     18          1           0       -0.113249    1.065219   -1.576483
     19          1           0       -0.214996    1.786394    1.125560
 ---------------------------------------------------------------------

 SCF Done:  E(RB3LYP) =  -423.134337908     A.U. after    1 cycles

 The electronic state is 1-A.
 Alpha  occ. eigenvalues --  -19.15225 -19.13525 -10.23866 -10.23743 -10.23497
 Alpha  occ. eigenvalues --  -10.19717 -10.19084 -10.18866 -10.18592  -1.07768
 Alpha  occ. eigenvalues --   -1.01640  -0.86210  -0.76726  -0.73121  -0.64474
 Alpha  occ. eigenvalues --   -0.60453  -0.57483  -0.56147  -0.50280  -0.49219
 Alpha  occ. eigenvalues --   -0.47383  -0.44456  -0.43446  -0.41374  -0.40607
 Alpha  occ. eigenvalues --   -0.38605  -0.37809  -0.36611  -0.33623  -0.31870
 Alpha  occ. eigenvalues --   -0.30367  -0.27793  -0.26293  -0.24390
 Alpha virt. eigenvalues --    0.08573   0.08826   0.10341   0.10612   0.11126
 Alpha virt. eigenvalues --    0.12084   0.13681   0.14639   0.15613   0.16823
 Alpha virt. eigenvalues --    0.17134   0.18544   0.19304   0.22374   0.22745

 Mulliken charges:
               1
     1  C   -0.512650
     2  C    0.391604
     3  O   -0.305374
     4  C   -0.160459
     5  C    0.349134
     6  C   -0.344044
     7  C   -0.321370
     8  C   -0.017978
     9  O   -0.435685
    10  H    0.137703
    11  H    0.127106
    12  H    0.134347
    13  H    0.105714
    14  H    0.113487
    15  H    0.117341
    16  H    0.116285
    17  H    0.125574
    18  H    0.090618
    19  H    0.288646
 Sum of Mulliken charges =   0.00000

 Dipole moment (field-independent basis, Debye):
    X=              0.0395    Y=             -1.5614    Z=             -1.1180  Tot=              1.9208
 Quadrupole moment (field-independent basis, Debye-Ang):
   XX=            -51.4322   YY=            -54.4909   ZZ=            -52.8448
   XY=             -0.3806   XZ=              1.9807   YZ=              1.4807

  Exact polarizability:  89.382  -2.241  71.280   1.071  -0.401  67.478
 Approx polarizability: 113.800  -5.222 107.311  -1.230  -0.954 108.547

                      1                      2                      3
                      A                      A                      A
 Frequencies --     97.0493               185.2171               199.0823
 Red. masses --      3.4610                 1.1859                 2.5540
 Frc consts  --      0.0192                 0.0240                 0.0596
 IR Inten    --      1.4098                 0.5438                 0.5473

                      4                      5                      6
                      A                      A                      A
 Frequencies --    213.5369               214.6294               260.0572
 Red. masses --      2.9183                 3.4203                 2.5481
 Frc consts  --      0.0784                 0.0928                 0.1015
 IR Inten    --      0.1660                 3.5146                 3.3967

                      7                      8                      9
                      A                      A                      A
 Frequencies --    328.5139               451.5244               480.4122
 Red. masses --      3.0427                 1.8523                 4.3096
 Frc consts  --      0.1935                 0.2225                 0.5860
 IR Inten    --      1.9178                19.1461                 8.7748

                     10                     11                     12
                      A                      A                      A
 Frequencies --    511.0793               570.3470               613.6012
 Red. masses --      1.4309                 4.4608                 3.5332
 Frc consts  --      0.2202                 0.8550                 0.7838
 IR Inten    --     60.2001                20.0832                 6.6473

                     13                     14                     15
                      A                      A                      A
 Frequencies --    718.8200               779.3579               793.2050
 Red. masses --      5.1132                 1.0579                 3.7012
 Frc consts  --      1.5566                 0.3786                 1.3720
 IR Inten    --      4.1501                 0.6951                16.5533

                     16                     17                     18
                      A                      A                      A
 Frequencies --    848.2219               866.7120               895.8656
 Red. masses --      3.1910                 2.2008                 2.1183
 Frc consts  --      1.3527                 0.9741                 1.0017
 IR Inten    --     32.0044                 4.9877                 9.3910

                     19                     20                     21
                      A                      A                      A
 Frequencies --    935.7083               965.7793               979.5577
 Red. masses --      1.2448                 2.9808                 1.9380
 Frc consts  --      0.6421                 1.6381                 1.0956
 IR Inten    --      0.5281                 7.5538                12.0783

                     22                     23                     24
                      A                      A                      A
 Frequencies --   1015.6521              1030.5898              1052.3325
 Red. masses --      3.3209                 2.2056                 1.3816
 Frc consts  --      2.0183                 1.3803                 0.9014
 IR Inten    --      5.0990                19.0316                 4.2340

                     25                     26                     27
                      A                      A                      A
 Frequencies --   1077.3379              1096.2408              1124.2583
 Red. masses --      1.4028                 1.7021                 3.2639
 Frc consts  --      0.9593                 1.2052                 2.4306
 IR Inten    --      0.2056                 5.4309               118.6641

                     28                     29                     30
                      A                      A                      A
 Frequencies --   1186.0802              1187.5240              1201.3507
 Red. masses --      1.4314                 1.2876                 1.7429
 Frc consts  --      1.1864                 1.0698                 1.4821
 IR Inten    --      3.2271                 0.4486                 4.0906

                     31                     32                     33
                      A                      A                      A
 Frequencies --   1219.8634              1263.3905              1291.4911
 Red. masses --      1.8264                 2.2167                 1.7160
 Frc consts  --      1.6013                 2.0846                 1.6864
 IR Inten    --     14.1791                 8.0518                 6.7269

                     34                     35                     36
                      A                      A                      A
 Frequencies --   1396.8663              1403.9138              1428.8914
 Red. masses --      1.4837                 1.9477                 1.4317
 Frc consts  --      1.7057                 2.2617                 1.7223
 IR Inten    --      4.2027                 8.1972                65.2138

                     37                     38                     39
                      A                      A                      A
 Frequencies --   1462.3432              1466.5544              1482.9624
 Red. masses --      1.0901                 1.9979                 1.1916
 Frc consts  --      1.3735                 2.5317                 1.5440
 IR Inten    --      1.9151                29.3585                 6.1333

                     40                     41                     42
                      A                      A                      A
 Frequencies --   1492.6720              1505.2708              3035.6077
 Red. masses --      1.1292                 1.6941                 1.0357
 Frc consts  --      1.4823                 2.2616                 5.6229
 IR Inten    --      1.7886                 1.7841                21.5654

                     43                     44                     45
                      A                      A                      A
 Frequencies --   3075.8084              3099.4273              3120.8807
 Red. masses --      1.0867                 1.1001                 1.1012
 Frc consts  --      6.0575                 6.2265                 6.3193
 IR Inten    --     25.4168                14.6843                12.0384

                     46                     47                     48
                      A                      A                      A
 Frequencies --   3121.3770              3128.6229              3183.3305
 Red. masses --      1.0527                 1.0552                 1.0944
 Frc consts  --      6.0428                 6.0854                 6.5344
 IR Inten    --     19.4707                12.3548                15.4975

                     49                     50                     51
                      A                      A                      A
 Frequencies --   3200.5613              3217.7312              3764.8972
 Red. masses --      1.1177                 1.1159                 1.0648
 Frc consts  --      6.7458                 6.8073                 8.8928
 IR Inten    --      2.5420                10.8782                23.5647

 - Thermochemistry -
 -------------------
 Temperature   298.150 Kelvin.  Pressure   1.00000 Atm.
 Atom     1 has atomic number  6 and mass  12.00000

 Molecular mass:   126.06808 amu.
 Principal axes and moments of inertia in atomic units:
                           1         2         3
     Eigenvalues --   637.181121279.993751479.45714
           X            0.99983  -0.00014   0.01848
           Y           -0.00044   0.99951   0.03122
           Z           -0.01847  -0.03122   0.99934
 This molecule is an asymmetric top.
 Rotational symmetry number  1.
 Warning -- assumption of classical behavior for rotation
           may cause significant error
 Rotational temperatures (Kelvin)      0.13593     0.06767     0.05854
 Rotational constants (GHZ):           2.83238     1.40996     1.21987
 Zero-point vibrational energy     414159.8 (Joules/Mol)
                                   98.98656 (Kcal/Mol)
 Warning -- explicit consideration of  12 degrees of freedom as
           vibrations may cause significant error
 Vibrational temperatures:    139.63   266.49   286.43   307.23   308.80
          (Kelvin)            374.16   472.66   649.64   691.21   735.33
                              820.60   882.83  1034.22  1121.32  1141.24
                             1220.40  1247.00  1288.95  1346.27  1389.54
                             1409.36  1461.30  1482.79  1514.07  1550.05
                             1577.24  1617.55  1706.50  1708.58  1728.47
                             1755.11  1817.73  1858.17  2009.78  2019.92
                             2055.85  2103.98  2110.04  2133.65  2147.62
                             2165.75  4367.56  4425.40  4459.38  4490.25
                             4490.96  4501.38  4580.10  4604.89  4629.59
                             5416.84

 Zero-point correction=                           0.157745 (Hartree/Particle)
 Thermal correction to Energy=                    0.166342
 Thermal correction to Enthalpy=                  0.167286
 Thermal correction to Gibbs Free Energy=         0.124891
 Sum of electronic and zero-point Energies=           -422.976593
 Sum of electronic and thermal Energies=              -422.967996
 Sum of electronic and thermal Enthalpies=            -422.967052
 Sum of electronic and thermal Free Energies=         -423.009447

                     E (Thermal)             CV                S
                      KCal/Mol        Cal/Mol-Kelvin    Cal/Mol-Kelvin
 Total                  104.381             33.352             89.227
 Electronic               0.000              0.000              0.000
 Translational            0.889              2.981             40.409
 Rotational               0.889              2.981             28.580
 Vibrational            102.603             27.391             20.238
 Vibration     1          0.603              1.951              3.513
 Vibration     2          0.631              1.860              2.275
 Vibration     3          0.637              1.841              2.142
 Vibration     4          0.644              1.820              2.013
 Vibration     5          0.645              1.819              2.004
 Vibration     6          0.668              1.746              1.661
 Vibration     7          0.712              1.619              1.267
 Vibration     8          0.810              1.358              0.791
 Vibration     9          0.837              1.294              0.709
 Vibration    10          0.866              1.225              0.631
 Vibration    11          0.926              1.095              0.504
 Vibration    12          0.973              1.003              0.427

 Optimization completed.
    -- Stationary point found.
 Normal termination of Gaussian 09 at Mon Jan 27 22:49:27 2020.
