 Gaussian 09, Revision D.01,
 Gaussian 09:  ES64L-G09RevD.01 24-Apr-2013

 -----------------------------
 # b3lyp 6-31G(2df,p) opt Freq
 -----------------------------

 -----
 titel
 -----
 Symbolic Z-matrix:
 Charge =  0 Multiplicity = 1

 SCF Done:  E(RB3LYP) =  -423.214432878     A.U. after   14 cycles
 SCF Done:  E(RB3LYP) =  -423.214432983     A.U. after    7 cycles
 Optimization completed.
    -- Stationary point found.
 Normal termination of Gaussian 09 at Tue Jan 28 14:16:09 2020.

 ----------------------------------------------------------------------
 #N Geom=AllCheck Guess=TCheck SCRF=Check GenChk RB3LYP/6-31G(2df,p) Fr
 eq
 ----------------------------------------------------------------------

 Structure from the checkpoint file:  "/scratch/puck/g09_4bb4f27b-fc67-45c5-8462-bd483becb8f9/Gau-111659.chk"
 -----
 titel
 -----
 Charge =  0 Multiplicity = 1

                         Standard orientation:
 ---------------------------------------------------------------------
 Center     Atomic      Atomic             Coordinates (Angstroms)
 Number     Number       Type             X           Y           Z
 ---------------------------------------------------------------------
      1          6           0        3.682504   -0.043051   -0.176048
      2          8           0        2.313078    0.232630   -0.360505
      3          6           0        1.477153   -0.630852    0.379670
      4          6           0        0.051601   -0.221591    0.181222
      5          6           0       -1.000685   -1.038835    0.032681
      6          6           0       -2.256748   -0.266571   -0.081986
      7          8           0       -3.375250   -0.705051   -0.221153
      8          6           0       -1.873150    1.221273    0.005552
      9          6           0       -0.343559    1.239695    0.176142
     10          1           0        3.940917   -1.062428   -0.502294
     11          1           0        4.242480    0.674222   -0.780087
     12          1           0        3.981343    0.066360    0.878473
     13          1           0        1.627107   -1.681227    0.082808
     14          1           0        1.723900   -0.564059    1.456823
     15          1           0       -0.979192   -2.120992   -0.007343
     16          1           0       -2.212417    1.735420   -0.898213
     17          1           0       -2.402748    1.679543    0.845878
     18          1           0        0.176430    1.764524   -0.631239
     19          1           0       -0.023135    1.727591    1.105066
 ---------------------------------------------------------------------

 SCF Done:  E(RB3LYP) =  -423.214432983     A.U. after    1 cycles

 The electronic state is 1-A.
 Alpha  occ. eigenvalues --  -19.15568 -19.11223 -10.25555 -10.24833 -10.23602
 Alpha  occ. eigenvalues --  -10.21668 -10.19611 -10.18635 -10.18631  -1.04892
 Alpha  occ. eigenvalues --   -1.02277  -0.85465  -0.75881  -0.71971  -0.67580
 Alpha  occ. eigenvalues --   -0.64712  -0.55357  -0.53369  -0.49947  -0.49273
 Alpha  occ. eigenvalues --   -0.48000  -0.46684  -0.43411  -0.41980  -0.40064
 Alpha  occ. eigenvalues --   -0.38854  -0.38566  -0.37718  -0.35995  -0.34817
 Alpha  occ. eigenvalues --   -0.33231  -0.27528  -0.26169  -0.23247
 Alpha virt. eigenvalues --   -0.04080   0.05959   0.07910   0.10041   0.12057
 Alpha virt. eigenvalues --    0.12530   0.14014   0.14756   0.15290   0.16290
 Alpha virt. eigenvalues --    0.16766   0.17772   0.19764   0.20590   0.22666

 Mulliken charges:
               1
     1  C   -0.224023
     2  O   -0.233547
     3  C   -0.168573
     4  C    0.333441
     5  C   -0.309891
     6  C    0.398416
     7  O   -0.337252
     8  C   -0.339398
     9  C   -0.305386
    10  H    0.109820
    11  H    0.133320
    12  H    0.107430
    13  H    0.103702
    14  H    0.104369
    15  H    0.107110
    16  H    0.133773
    17  H    0.132339
    18  H    0.138052
    19  H    0.116298
 Sum of Mulliken charges =   0.00000

 Dipole moment (field-independent basis, Debye):
    X=              4.2312    Y=              0.6419    Z=              1.0457  Tot=              4.4055
 Quadrupole moment (field-independent basis, Debye-Ang):
   XX=            -61.6733   YY=            -51.2149   ZZ=            -52.5713
   XY=             -6.1700   XZ=             -0.2069   YZ=             -0.2183

  Exact polarizability: 111.674   5.001  77.124   3.481   1.005  56.026
 Approx polarizability: 155.899  18.847 116.105   8.161   2.223  87.705

                      1                      2                      3
                      A                      A                      A
 Frequencies --     51.6024                84.9406               102.7134
 Red. masses --      3.4402                 2.3277                 1.9196
 Frc consts  --      0.0054                 0.0099                 0.0119
 IR Inten    --      3.6068                 3.8329                 0.7428

                      4                      5                      6
                      A                      A                      A
 Frequencies --    116.0728               206.2031               231.1807
 Red. masses --      3.8110                 2.9460                 1.2944
 Frc consts  --      0.0303                 0.0738                 0.0408
 IR Inten    --      2.1617                 2.8745                 1.8610

                      7                      8                      9
                      A                      A                      A
 Frequencies --    327.8998               340.2952               460.3887
 Red. masses --      4.1589                 3.2875                 2.7654
 Frc consts  --      0.2635                 0.2243                 0.3453
 IR Inten    --      2.6298                 1.7209                 3.5492

                     10                     11                     12
                      A                      A                      A
 Frequencies --    505.5377               552.3772               632.5335
 Red. masses --      3.9535                 1.8393                 5.8938
 Frc consts  --      0.5953                 0.3307                 1.3894
 IR Inten    --      2.6865                 0.0711                 5.2654

                     13                     14                     15
                      A                      A                      A
 Frequencies --    680.8083               823.9810               835.6614
 Red. masses --      3.9447                 1.4502                 4.6397
 Frc consts  --      1.0773                 0.5801                 1.9090
 IR Inten    --      0.9030                 2.0127                10.2292

                     16                     17                     18
                      A                      A                      A
 Frequencies --    876.5243               881.9674               990.9591
 Red. masses --      2.9966                 1.4268                 1.8976
 Frc consts  --      1.3564                 0.6539                 1.0979
 IR Inten    --      3.6962                19.2256                 2.1088

                     19                     20                     21
                      A                      A                      A
 Frequencies --    994.3092              1010.3280              1039.6457
 Red. masses --      3.0368                 2.3108                 1.9023
 Frc consts  --      1.7689                 1.3897                 1.2115
 IR Inten    --     20.5237                 6.0850                 4.4022

                     22                     23                     24
                      A                      A                      A
 Frequencies --   1136.0619              1152.8547              1165.4867
 Red. masses --      3.5551                 1.3069                 4.2488
 Frc consts  --      2.7034                 1.0234                 3.4004
 IR Inten    --     19.7069                 9.9476               231.3521

                     25                     26                     27
                      A                      A                      A
 Frequencies --   1183.7211              1186.9241              1219.9967
 Red. masses --      1.2893                 1.6373                 1.4380
 Frc consts  --      1.0644                 1.3590                 1.2610
 IR Inten    --      2.0622                16.9167                31.4078

                     28                     29                     30
                      A                      A                      A
 Frequencies --   1228.5250              1248.6948              1259.0453
 Red. masses --      1.2996                 1.2330                 1.6495
 Frc consts  --      1.1556                 1.1327                 1.5406
 IR Inten    --     14.7168                 6.9262                 3.9173

                     31                     32                     33
                      A                      A                      A
 Frequencies --   1302.1041              1352.5390              1405.2472
 Red. masses --      1.7472                 2.5538                 1.3818
 Frc consts  --      1.7453                 2.7526                 1.6076
 IR Inten    --     14.7967                 4.8124                65.2989

                     34                     35                     36
                      A                      A                      A
 Frequencies --   1451.7954              1478.2963              1481.0944
 Red. masses --      1.0770                 1.1275                 1.1164
 Frc consts  --      1.3374                 1.4517                 1.4428
 IR Inten    --      2.5312                 3.1185                 6.0887

                     37                     38                     39
                      A                      A                      A
 Frequencies --   1485.3979              1495.8705              1516.9397
 Red. masses --      1.0478                 1.0705                 1.0804
 Frc consts  --      1.3621                 1.4113                 1.4648
 IR Inten    --      6.5288                 8.8636                 3.4521

                     40                     41                     42
                      A                      A                      A
 Frequencies --   1685.3930              1813.2077              2923.1526
 Red. masses --      7.4541                12.4546                 1.0673
 Frc consts  --     12.4752                24.1255                 5.3734
 IR Inten    --     49.9138               319.7625                35.3636

                     43                     44                     45
                      A                      A                      A
 Frequencies --   2973.0153              2988.7059              3019.4317
 Red. masses --      1.0401                 1.0862                 1.1032
 Frc consts  --      5.4168                 5.7163                 5.9260
 IR Inten    --     63.0912                48.5293                50.1320

                     46                     47                     48
                      A                      A                      A
 Frequencies --   3036.6843              3066.6571              3078.7131
 Red. masses --      1.0673                 1.0618                 1.0940
 Frc consts  --      5.7988                 5.8831                 6.1096
 IR Inten    --     22.2224                10.7017                 3.2814

                     49                     50                     51
                      A                      A                      A
 Frequencies --   3107.7529              3121.2234              3213.1987
 Red. masses --      1.1025                 1.0962                 1.0958
 Frc consts  --      6.2737                 6.2919                 6.6661
 IR Inten    --      9.5879                24.8645                 4.0274

 - Thermochemistry -
 -------------------
 Temperature   298.150 Kelvin.  Pressure   1.00000 Atm.
 Atom     1 has atomic number  6 and mass  12.00000

 Molecular mass:   126.06808 amu.
 Principal axes and moments of inertia in atomic units:
                           1         2         3
     Eigenvalues --   350.733862330.927112590.52392
           X            0.99984  -0.01808   0.00131
           Y            0.01809   0.99983  -0.00283
           Z           -0.00126   0.00286   1.00000
 This molecule is an asymmetric top.
 Rotational symmetry number  1.
 Rotational temperatures (Kelvin)      0.24695     0.03716     0.03343
 Rotational constants (GHZ):           5.14561     0.77426     0.69667
 Zero-point vibrational energy     415843.8 (Joules/Mol)
                                   99.38906 (Kcal/Mol)
 Warning -- explicit consideration of  11 degrees of freedom as
           vibrations may cause significant error
 Vibrational temperatures:     74.24   122.21   147.78   167.00   296.68
          (Kelvin)            332.62   471.77   489.61   662.40   727.36
                              794.75   910.07   979.53  1185.52  1202.33
                             1261.12  1268.95  1425.77  1430.59  1453.63
                             1495.82  1634.54  1658.70  1676.87  1703.11
                             1707.72  1755.30  1767.57  1796.59  1811.48
                             1873.44  1946.00  2021.83  2088.81  2126.94
                             2130.96  2137.15  2152.22  2182.54  2424.90
                             2608.80  4205.76  4277.50  4300.08  4344.28
                             4369.11  4412.23  4429.58  4471.36  4490.74
                             4623.07

 Zero-point correction=                           0.158387 (Hartree/Particle)
 Thermal correction to Energy=                    0.167615
 Thermal correction to Enthalpy=                  0.168559
 Thermal correction to Gibbs Free Energy=         0.123273
 Sum of electronic and zero-point Energies=           -423.056046
 Sum of electronic and thermal Energies=              -423.046818
 Sum of electronic and thermal Enthalpies=            -423.045874
 Sum of electronic and thermal Free Energies=         -423.091160

                     E (Thermal)             CV                S
                      KCal/Mol        Cal/Mol-Kelvin    Cal/Mol-Kelvin
 Total                  105.180             32.681             95.312
 Electronic               0.000              0.000              0.000
 Translational            0.889              2.981             40.409
 Rotational               0.889              2.981             29.139
 Vibrational            103.402             26.720             25.764
 Vibration     1          0.596              1.977              4.755
 Vibration     2          0.601              1.960              3.773
 Vibration     3          0.605              1.947              3.402
 Vibration     4          0.608              1.936              3.165
 Vibration     5          0.641              1.831              2.077
 Vibration     6          0.653              1.793              1.870
 Vibration     7          0.711              1.620              1.270
 Vibration     8          0.720              1.595              1.211
 Vibration     9          0.818              1.338              0.765
 Vibration    10          0.861              1.238              0.644
 Vibration    11          0.908              1.134              0.539

 Normal termination of Gaussian 09 at Tue Jan 28 14:52:18 2020.
