 Gaussian 09, Revision D.01,
 Gaussian 09:  ES64L-G09RevD.01 24-Apr-2013

 -----------------------------
 # b3lyp 6-31G(2df,p) opt Freq
 -----------------------------

 -----
 titel
 -----
 Symbolic Z-matrix:
 Charge =  0 Multiplicity = 1

 SCF Done:  E(RB3LYP) =  -423.108129149     A.U. after   13 cycles
 Optimization completed.
    -- Stationary point found.
 Normal termination of Gaussian 09 at Mon Jan 27 22:55:11 2020.

 ----------------------------------------------------------------------
 #N Geom=AllCheck Guess=TCheck SCRF=Check GenChk RB3LYP/6-31G(2df,p) Fr
 eq
 ----------------------------------------------------------------------

 Structure from the checkpoint file:  "/scratch/puck/g09_2143b682-ba08-42bd-9c9b-1ae723f2ffd2/Gau-101372.chk"
 -----
 titel
 -----
 Charge =  0 Multiplicity = 1

                         Standard orientation:
 ---------------------------------------------------------------------
 Center     Atomic      Atomic             Coordinates (Angstroms)
 Number     Number       Type             X           Y           Z
 ---------------------------------------------------------------------
      1          8           0        2.480578   -0.566821   -0.588601
      2          6           0        1.084812   -0.500882   -0.611476
      3          6           0        0.198951   -1.162042    0.502067
      4          6           0        0.604330    0.016137    1.447328
      5          6           0        0.302147    0.674980    0.073341
      6          8           0        0.378485    2.033731   -0.156064
      7          6           0       -0.933386   -0.252685    0.003006
      8          6           0       -2.338178   -0.051168    0.439055
      9          6           0       -2.010520   -0.412716   -1.011425
     10          1           0        2.802418   -0.236912    0.256554
     11          1           0        0.782411   -0.734589   -1.635332
     12          1           0        0.134850   -2.217756    0.753342
     13          1           0       -0.091657    0.251358    2.254142
     14          1           0        1.636131    0.041981    1.810923
     15          1           0        0.321737    2.186877   -1.105734
     16          1           0       -2.817575   -0.809432    1.050297
     17          1           0       -2.675182    0.961855    0.638303
     18          1           0       -2.269894   -1.409613   -1.354280
     19          1           0       -2.144673    0.361215   -1.762266
 ---------------------------------------------------------------------

 SCF Done:  E(RB3LYP) =  -423.108129149     A.U. after    1 cycles

 The electronic state is 1-A.
 Alpha  occ. eigenvalues --  -19.15198 -19.13950 -10.24648 -10.23475 -10.19952
 Alpha  occ. eigenvalues --  -10.19798 -10.19174 -10.18524 -10.18385  -1.04122
 Alpha  occ. eigenvalues --   -1.02249  -0.90994  -0.82868  -0.67535  -0.62691
 Alpha  occ. eigenvalues --   -0.60813  -0.60011  -0.54278  -0.53908  -0.49332
 Alpha  occ. eigenvalues --   -0.47517  -0.46866  -0.42877  -0.39328  -0.37772
 Alpha  occ. eigenvalues --   -0.37036  -0.36579  -0.34951  -0.33632  -0.32547
 Alpha  occ. eigenvalues --   -0.29590  -0.27627  -0.27119  -0.24007
 Alpha virt. eigenvalues --    0.06914   0.07435   0.10210   0.11449   0.12430
 Alpha virt. eigenvalues --    0.13864   0.14615   0.15442   0.16434   0.17792
 Alpha virt. eigenvalues --    0.18528   0.19129   0.21406   0.22427   0.24051

 Mulliken charges:
               1
     1  O   -0.452161
     2  C    0.115310
     3  C   -0.198612
     4  C   -0.292123
     5  C    0.266463
     6  O   -0.467133
     7  C    0.399756
     8  C   -0.370135
     9  C   -0.382492
    10  H    0.285457
    11  H    0.084421
    12  H    0.084818
    13  H    0.107650
    14  H    0.077331
    15  H    0.288102
    16  H    0.113608
    17  H    0.118414
    18  H    0.115314
    19  H    0.106013
 Sum of Mulliken charges =   0.00000

 Dipole moment (field-independent basis, Debye):
    X=             -0.8416    Y=             -0.1637    Z=              0.0177  Tot=              0.8576
 Quadrupole moment (field-independent basis, Debye-Ang):
   XX=            -55.5169   YY=            -54.1840   ZZ=            -50.7326
   XY=              1.4956   XZ=              3.4456   YZ=             -3.9130

  Exact polarizability:  85.667   0.393  68.361   2.595  -0.019  74.190
 Approx polarizability: 116.192   0.471 104.954   1.845   0.926 112.999

                      1                      2                      3
                      A                      A                      A
 Frequencies --    162.6426               172.5230               178.7776
 Red. masses --      2.1967                 2.3001                 1.7707
 Frc consts  --      0.0342                 0.0403                 0.0333
 IR Inten    --     18.4673                 7.3785                42.2439

                      4                      5                      6
                      A                      A                      A
 Frequencies --    198.0886               220.1023               292.5905
 Red. masses --      1.8825                 2.0764                 1.8994
 Frc consts  --      0.0435                 0.0593                 0.0958
 IR Inten    --     39.2262                 1.9751                82.6202

                      7                      8                      9
                      A                      A                      A
 Frequencies --    352.5166               394.2362               480.9446
 Red. masses --      3.2005                 2.9621                 4.1222
 Frc consts  --      0.2343                 0.2712                 0.5618
 IR Inten    --      3.3855                 1.9143                 0.4469

                     10                     11                     12
                      A                      A                      A
 Frequencies --    494.8459               592.8719               663.0506
 Red. masses --      2.9817                 3.1725                 4.0833
 Frc consts  --      0.4302                 0.6570                 1.0577
 IR Inten    --      2.5468                 2.5472                10.2710

                     13                     14                     15
                      A                      A                      A
 Frequencies --    700.0971               754.9503               783.4048
 Red. masses --      2.6823                 2.8168                 1.0526
 Frc consts  --      0.7746                 0.9459                 0.3806
 IR Inten    --      3.3189                 2.4623                 0.1392

                     16                     17                     18
                      A                      A                      A
 Frequencies --    827.2216               886.9840               917.7975
 Red. masses --      3.1267                 2.7526                 1.3812
 Frc consts  --      1.2606                 1.2759                 0.6855
 IR Inten    --      7.8360                28.5169                 2.1416

                     19                     20                     21
                      A                      A                      A
 Frequencies --    929.2428               965.0127               971.4711
 Red. masses --      1.9623                 2.3004                 2.3534
 Frc consts  --      0.9983                 1.2622                 1.3086
 IR Inten    --      6.6757                14.5991                 1.6482

                     22                     23                     24
                      A                      A                      A
 Frequencies --   1009.1683              1028.3912              1047.7658
 Red. masses --      3.5326                 1.4374                 1.3990
 Frc consts  --      2.1197                 0.8957                 0.9049
 IR Inten    --     14.4463                31.4790                 7.3774

                     25                     26                     27
                      A                      A                      A
 Frequencies --   1080.5548              1097.5794              1103.0739
 Red. masses --      1.4848                 1.5136                 1.4532
 Frc consts  --      1.0214                 1.0743                 1.0418
 IR Inten    --      0.5382                15.5686                 0.8199

                     28                     29                     30
                      A                      A                      A
 Frequencies --   1124.3754              1148.3867              1179.5034
 Red. masses --      2.0297                 1.8573                 1.3279
 Frc consts  --      1.5118                 1.4431                 1.0885
 IR Inten    --     22.9815                91.0684                 1.5398

                     31                     32                     33
                      A                      A                      A
 Frequencies --   1181.8201              1211.6631              1228.9342
 Red. masses --      1.4574                 1.7796                 2.1035
 Frc consts  --      1.1993                 1.5393                 1.8717
 IR Inten    --     10.0403                53.3163                14.9943

                     34                     35                     36
                      A                      A                      A
 Frequencies --   1276.5304              1302.5431              1365.2629
 Red. masses --      1.7517                 2.1681                 2.1039
 Frc consts  --      1.6818                 2.1673                 2.3105
 IR Inten    --     36.5519               178.5737                 6.7209

                     37                     38                     39
                      A                      A                      A
 Frequencies --   1412.6513              1453.9705              1460.2940
 Red. masses --      1.7700                 1.3277                 1.0908
 Frc consts  --      2.0811                 1.6537                 1.3704
 IR Inten    --     18.1807                77.2224                 0.9287

                     40                     41                     42
                      A                      A                      A
 Frequencies --   1511.4090              1539.8111              3051.6029
 Red. masses --      1.5305                 1.4716                 1.0601
 Frc consts  --      2.0599                 2.0557                 5.8164
 IR Inten    --      0.5939                11.2432                62.0129

                     43                     44                     45
                      A                      A                      A
 Frequencies --   3087.6189              3114.2491              3120.0360
 Red. masses --      1.0860                 1.0523                 1.0562
 Frc consts  --      6.0999                 6.0133                 6.0578
 IR Inten    --     29.6158                19.1935                13.1160

                     46                     47                     48
                      A                      A                      A
 Frequencies --   3124.9712              3152.8630              3191.8436
 Red. masses --      1.1037                 1.0935                 1.1169
 Frc consts  --      6.3504                 6.4044                 6.7039
 IR Inten    --     31.7054                23.9776                 1.0208

                     49                     50                     51
                      A                      A                      A
 Frequencies --   3206.9762              3806.5673              3815.8350
 Red. masses --      1.1151                 1.0657                 1.0649
 Frc consts  --      6.7571                 9.0984                 9.1357
 IR Inten    --     16.0382                29.4567                13.8875

 - Thermochemistry -
 -------------------
 Temperature   298.150 Kelvin.  Pressure   1.00000 Atm.
 Atom     1 has atomic number  8 and mass  15.99491

 Molecular mass:   126.06808 amu.
 Principal axes and moments of inertia in atomic units:
                           1         2         3
     Eigenvalues --   662.789701265.241761409.49529
           X            0.99978   0.00894   0.01920
           Y           -0.00835   0.99949  -0.03080
           Z           -0.01946   0.03063   0.99934
 This molecule is an asymmetric top.
 Rotational symmetry number  1.
 Warning -- assumption of classical behavior for rotation
           may cause significant error
 Rotational temperatures (Kelvin)      0.13068     0.06846     0.06145
 Rotational constants (GHZ):           2.72295     1.42640     1.28042
 Zero-point vibrational energy     414958.4 (Joules/Mol)
                                   99.17743 (Kcal/Mol)
 Warning -- explicit consideration of  11 degrees of freedom as
           vibrations may cause significant error
 Vibrational temperatures:    234.01   248.22   257.22   285.00   316.68
          (Kelvin)            420.97   507.19   567.22   691.97   711.97
                              853.01   953.98  1007.28  1086.20  1127.14
                             1190.19  1276.17  1320.50  1336.97  1388.44
                             1397.73  1451.97  1479.62  1507.50  1554.68
                             1579.17  1587.08  1617.72  1652.27  1697.04
                             1700.37  1743.31  1768.16  1836.64  1874.07
                             1964.31  2032.49  2091.94  2101.03  2174.58
                             2215.44  4390.57  4442.39  4480.70  4489.03
                             4496.13  4536.26  4592.35  4614.12  5476.79
                             5490.13

 Zero-point correction=                           0.158049 (Hartree/Particle)
 Thermal correction to Energy=                    0.166603
 Thermal correction to Enthalpy=                  0.167547
 Thermal correction to Gibbs Free Energy=         0.125464
 Sum of electronic and zero-point Energies=           -422.950080
 Sum of electronic and thermal Energies=              -422.941526
 Sum of electronic and thermal Enthalpies=            -422.940582
 Sum of electronic and thermal Free Energies=         -422.982666

                     E (Thermal)             CV                S
                      KCal/Mol        Cal/Mol-Kelvin    Cal/Mol-Kelvin
 Total                  104.545             33.673             88.572
 Electronic               0.000              0.000              0.000
 Translational            0.889              2.981             40.409
 Rotational               0.889              2.981             28.560
 Vibrational            102.767             27.711             19.604
 Vibration     1          0.623              1.888              2.519
 Vibration     2          0.626              1.876              2.408
 Vibration     3          0.629              1.868              2.341
 Vibration     4          0.637              1.843              2.151
 Vibration     5          0.647              1.810              1.958
 Vibration     6          0.688              1.688              1.459
 Vibration     7          0.729              1.570              1.155
 Vibration     8          0.761              1.482              0.984
 Vibration     9          0.837              1.292              0.708
 Vibration    10          0.850              1.261              0.671
 Vibration    11          0.950              1.047              0.462

 Normal termination of Gaussian 09 at Mon Jan 27 23:40:00 2020.
