 Gaussian 09, Revision D.01,
 Gaussian 09:  ES64L-G09RevD.01 24-Apr-2013

 -----------------------------
 # b3lyp 6-31G(2df,p) opt Freq
 -----------------------------

 -----
 titel
 -----
 Symbolic Z-matrix:
 Charge =  0 Multiplicity = 1

 SCF Done:  E(RB3LYP) =  -423.125808315     A.U. after   14 cycles
 Optimization completed.
    -- Stationary point found.
 Normal termination of Gaussian 09 at Tue Jan 28 13:28:08 2020.

 ----------------------------------------------------------------------
 #N Geom=AllCheck Guess=TCheck SCRF=Check GenChk RB3LYP/6-31G(2df,p) Fr
 eq
 ----------------------------------------------------------------------

 Structure from the checkpoint file:  "/scratch/puck/g09_192e0e27-b261-4985-a086-7400e426ced0/Gau-118487.chk"
 -----
 titel
 -----
 Charge =  0 Multiplicity = 1

                         Standard orientation:
 ---------------------------------------------------------------------
 Center     Atomic      Atomic             Coordinates (Angstroms)
 Number     Number       Type             X           Y           Z
 ---------------------------------------------------------------------
      1          8           0       -2.137298    0.456564    1.308363
      2          6           0       -2.062178   -0.248895    0.083270
      3          6           0       -0.767778   -1.017319   -0.060923
      4          6           0       -0.168629   -1.262368   -1.415244
      5          6           0        0.512687   -0.290013   -0.464371
      6          6           0        1.819697   -0.719746    0.195574
      7          8           0        2.035234   -0.089358    1.441713
      8          6           0        0.447496    1.123866   -0.725522
      9          6           0        0.441390    2.319922   -0.873402
     10          1           0       -1.405770    1.084264    1.314893
     11          1           0       -2.907895   -0.945071    0.082504
     12          1           0       -2.190968    0.423410   -0.778594
     13          1           0       -0.618467   -1.784558    0.693882
     14          1           0        0.337577   -2.203544   -1.603072
     15          1           0       -0.670491   -0.841933   -2.279791
     16          1           0        1.783866   -1.795097    0.397025
     17          1           0        2.654455   -0.536193   -0.498479
     18          1           0        2.074047    0.859974    1.277992
     19          1           0        0.424043    3.368409   -1.043251
 ---------------------------------------------------------------------

 SCF Done:  E(RB3LYP) =  -423.125808315     A.U. after    1 cycles

 The electronic state is 1-A.
 Alpha  occ. eigenvalues --  -19.13807 -19.12840 -10.23869 -10.22847 -10.22566
 Alpha  occ. eigenvalues --  -10.20487 -10.20316 -10.19769 -10.18820  -1.02211
 Alpha  occ. eigenvalues --   -1.01139  -0.88684  -0.76239  -0.71737  -0.68168
 Alpha  occ. eigenvalues --   -0.62867  -0.59640  -0.53348  -0.52301  -0.50445
 Alpha  occ. eigenvalues --   -0.48907  -0.46584  -0.43302  -0.42614  -0.41381
 Alpha  occ. eigenvalues --   -0.38678  -0.36378  -0.33885  -0.32354  -0.32131
 Alpha  occ. eigenvalues --   -0.28886  -0.26665  -0.26410  -0.25744
 Alpha virt. eigenvalues --    0.03285   0.03615   0.08038   0.09170   0.09866
 Alpha virt. eigenvalues --    0.10956   0.11909   0.13779   0.15307   0.15865
 Alpha virt. eigenvalues --    0.16663   0.17156   0.18612   0.20343   0.22401

 Mulliken charges:
               1
     1  O   -0.419925
     2  C   -0.083131
     3  C   -0.056069
     4  C   -0.345433
     5  C    0.125120
     6  C   -0.127080
     7  O   -0.413585
     8  C    0.248316
     9  C   -0.469688
    10  H    0.287038
    11  H    0.111410
    12  H    0.092339
    13  H    0.106965
    14  H    0.121988
    15  H    0.127122
    16  H    0.108936
    17  H    0.096447
    18  H    0.286826
    19  H    0.202404
 Sum of Mulliken charges =   0.00000

 Dipole moment (field-independent basis, Debye):
    X=              0.8147    Y=              0.3419    Z=             -2.2592  Tot=              2.4259
 Quadrupole moment (field-independent basis, Debye-Ang):
   XX=            -58.1215   YY=            -44.8706   ZZ=            -58.0204
   XY=              2.3670   XZ=              1.4800   YZ=              1.4059

  Exact polarizability:  74.094   3.266  93.291   0.153  -0.623  66.632
 Approx polarizability:  98.530   6.149 150.530  -0.435  -2.460 100.582

                      1                      2                      3
                      A                      A                      A
 Frequencies --     62.8439                75.3468               113.5022
 Red. masses --      4.0672                 5.1074                 4.5578
 Frc consts  --      0.0095                 0.0171                 0.0346
 IR Inten    --      1.2584                 0.6575                 3.3189

                      4                      5                      6
                      A                      A                      A
 Frequencies --    148.1138               187.2247               267.0496
 Red. masses --      2.9059                 2.8216                 2.6056
 Frc consts  --      0.0376                 0.0583                 0.1095
 IR Inten    --      0.4852                 2.3359                 1.0430

                      7                      8                      9
                      A                      A                      A
 Frequencies --    293.8031               340.2883               368.1974
 Red. masses --      1.9681                 1.6718                 1.9202
 Frc consts  --      0.1001                 0.1141                 0.1534
 IR Inten    --     26.2318               106.5680                54.0158

                     10                     11                     12
                      A                      A                      A
 Frequencies --    383.9408               449.3843               477.9724
 Red. masses --      1.3278                 3.2229                 4.0999
 Frc consts  --      0.1153                 0.3835                 0.5519
 IR Inten    --     34.0593                 9.6253                 4.0871

                     13                     14                     15
                      A                      A                      A
 Frequencies --    573.7936               599.0864               603.7777
 Red. masses --      4.1751                 3.2050                 1.3781
 Frc consts  --      0.8099                 0.6777                 0.2960
 IR Inten    --      5.2298                10.4914                38.1969

                     16                     17                     18
                      A                      A                      A
 Frequencies --    667.8478               686.2655               799.0232
 Red. masses --      1.2317                 4.1605                 1.9612
 Frc consts  --      0.3237                 1.1545                 0.7377
 IR Inten    --     43.0668                 6.5088                 3.0630

                     19                     20                     21
                      A                      A                      A
 Frequencies --    871.0882               926.4566               959.6458
 Red. masses --      1.8324                 1.4930                 1.5682
 Frc consts  --      0.8192                 0.7550                 0.8509
 IR Inten    --      2.2420                 2.0757                16.3459

                     22                     23                     24
                      A                      A                      A
 Frequencies --    993.2571              1033.8986              1058.1457
 Red. masses --      2.5302                 2.3857                 1.7595
 Frc consts  --      1.4707                 1.5025                 1.1607
 IR Inten    --      4.1985                17.2293                18.7264

                     25                     26                     27
                      A                      A                      A
 Frequencies --   1076.5578              1085.8600              1092.4522
 Red. masses --      2.7288                 2.5802                 2.2722
 Frc consts  --      1.8634                 1.7924                 1.5977
 IR Inten    --    145.3153                27.6981                28.9141

                     28                     29                     30
                      A                      A                      A
 Frequencies --   1157.0688              1200.5862              1215.8142
 Red. masses --      1.5230                 1.2288                 1.7203
 Frc consts  --      1.2014                 1.0435                 1.4982
 IR Inten    --      8.3875                15.8586                 6.6996

                     31                     32                     33
                      A                      A                      A
 Frequencies --   1257.7529              1333.5035              1364.1548
 Red. masses --      1.6459                 1.9856                 1.5079
 Frc consts  --      1.5341                 2.0803                 1.6533
 IR Inten    --      5.8855                 4.7328                 0.3726

                     34                     35                     36
                      A                      A                      A
 Frequencies --   1380.4293              1409.0860              1421.7632
 Red. masses --      1.2379                 1.2873                 1.2196
 Frc consts  --      1.3898                 1.5059                 1.4525
 IR Inten    --      5.4104                16.7612                39.8199

                     37                     38                     39
                      A                      A                      A
 Frequencies --   1437.1170              1481.7575              1500.0627
 Red. masses --      1.4514                 1.2747                 1.0834
 Frc consts  --      1.7662                 1.6490                 1.4364
 IR Inten    --     75.1553                 3.3556                 2.6758

                     40                     41                     42
                      A                      A                      A
 Frequencies --   1501.7242              2217.8106              2985.2194
 Red. masses --      1.1061                 6.0429                 1.0687
 Frc consts  --      1.4698                17.5124                 5.6110
 IR Inten    --      0.0573                11.4270                58.7787

                     43                     44                     45
                      A                      A                      A
 Frequencies --   2990.3351              3069.4431              3078.5624
 Red. masses --      1.0685                 1.0935                 1.0945
 Frc consts  --      5.6295                 6.0702                 6.1116
 IR Inten    --     40.9975                34.5822                20.6189

                     46                     47                     48
                      A                      A                      A
 Frequencies --   3132.3464              3150.2910              3220.1571
 Red. masses --      1.0544                 1.0890                 1.1167
 Frc consts  --      6.0953                 6.3675                 6.8223
 IR Inten    --     10.8579                 9.2902                 5.2449

                     49                     50                     51
                      A                      A                      A
 Frequencies --   3497.9317              3795.2729              3800.3324
 Red. masses --      1.1589                 1.0658                 1.0659
 Frc consts  --      8.3546                 9.0447                 9.0699
 IR Inten    --     84.5991                18.2182                20.1424

 - Thermochemistry -
 -------------------
 Temperature   298.150 Kelvin.  Pressure   1.00000 Atm.
 Atom     1 has atomic number  8 and mass  15.99491

 Molecular mass:   126.06808 amu.
 Principal axes and moments of inertia in atomic units:
                           1         2         3
     Eigenvalues --   951.823871404.977711521.95617
           X            0.99994  -0.00250   0.01094
           Y            0.00169   0.99730   0.07339
           Z           -0.01110  -0.07337   0.99724
 This molecule is an asymmetric top.
 Rotational symmetry number  1.
 Warning -- assumption of classical behavior for rotation
           may cause significant error
 Rotational temperatures (Kelvin)      0.09100     0.06165     0.05691
 Rotational constants (GHZ):           1.89609     1.28453     1.18580
 Zero-point vibrational energy     411475.6 (Joules/Mol)
                                   98.34503 (Kcal/Mol)
 Warning -- explicit consideration of  15 degrees of freedom as
           vibrations may cause significant error
 Vibrational temperatures:     90.42   108.41   163.30   213.10   269.37
          (Kelvin)            384.22   422.72   489.60   529.75   552.40
                              646.56   687.69   825.56   861.95   868.70
                              960.88   987.38  1149.61  1253.30  1332.96
                             1380.71  1429.07  1487.55  1522.43  1548.92
                             1562.31  1571.79  1664.76  1727.37  1749.28
                             1809.62  1918.61  1962.71  1986.13  2027.36
                             2045.60  2067.69  2131.92  2158.25  2160.64
                             3190.93  4295.06  4302.42  4416.24  4429.36
                             4506.74  4532.56  4633.08  5032.74  5460.54
                             5467.82

 Zero-point correction=                           0.156723 (Hartree/Particle)
 Thermal correction to Energy=                    0.166794
 Thermal correction to Enthalpy=                  0.167738
 Thermal correction to Gibbs Free Energy=         0.121475
 Sum of electronic and zero-point Energies=           -422.969086
 Sum of electronic and thermal Energies=              -422.959014
 Sum of electronic and thermal Enthalpies=            -422.958070
 Sum of electronic and thermal Free Energies=         -423.004333

                     E (Thermal)             CV                S
                      KCal/Mol        Cal/Mol-Kelvin    Cal/Mol-Kelvin
 Total                  104.665             36.913             97.368
 Electronic               0.000              0.000              0.000
 Translational            0.889              2.981             40.409
 Rotational               0.889              2.981             29.100
 Vibrational            102.887             30.952             27.860
 Vibration     1          0.597              1.972              4.366
 Vibration     2          0.599              1.965              4.009
 Vibration     3          0.607              1.938              3.208
 Vibration     4          0.617              1.905              2.696
 Vibration     5          0.632              1.857              2.255
 Vibration     6          0.672              1.734              1.615
 Vibration     7          0.689              1.685              1.452
 Vibration     8          0.720              1.595              1.211
 Vibration     9          0.741              1.538              1.087
 Vibration    10          0.753              1.504              1.024
 Vibration    11          0.808              1.362              0.798
 Vibration    12          0.834              1.299              0.716
 Vibration    13          0.930              1.088              0.497
 Vibration    14          0.957              1.034              0.451
 Vibration    15          0.962              1.024              0.443

 Normal termination of Gaussian 09 at Tue Jan 28 14:09:38 2020.
