 Gaussian 09, Revision D.01,
 Gaussian 09:  ES64L-G09RevD.01 24-Apr-2013

 -----------------------------
 # b3lyp 6-31G(2df,p) opt Freq
 -----------------------------

 -----
 titel
 -----
 Symbolic Z-matrix:
 Charge =  0 Multiplicity = 1

 SCF Done:  E(RB3LYP) =  -423.179519081     A.U. after   13 cycles
 Optimization completed.
    -- Stationary point found.
 Normal termination of Gaussian 09 at Mon Jan 27 12:47:38 2020.

 ----------------------------------------------------------------------
 #N Geom=AllCheck Guess=TCheck SCRF=Check GenChk RB3LYP/6-31G(2df,p) Fr
 eq
 ----------------------------------------------------------------------

 Structure from the checkpoint file:  "/scratch/puck/g09_1a56054d-6d0f-4517-a382-f75007775649/Gau-99246.chk"
 -----
 titel
 -----
 Charge =  0 Multiplicity = 1

                         Standard orientation:
 ---------------------------------------------------------------------
 Center     Atomic      Atomic             Coordinates (Angstroms)
 Number     Number       Type             X           Y           Z
 ---------------------------------------------------------------------
      1          6           0       -1.471911    0.046707   -0.999860
      2          8           0       -1.264410   -1.179426   -0.296687
      3          6           0       -0.358530   -0.963347    0.785667
      4          6           0        1.062234   -1.308515    0.331857
      5          8           0        1.454517   -0.486004   -0.752960
      6          6           0        1.566815    0.881775   -0.404933
      7          6           0        0.357504    1.436513    0.322973
      8          6           0       -1.087553    1.173458   -0.045370
      9          6           0       -0.484564    0.513813    1.169913
     10          1           0       -0.885610    0.054087   -1.926755
     11          1           0       -2.534176    0.110866   -1.262768
     12          1           0       -0.653804   -1.622241    1.609946
     13          1           0        1.765622   -1.216446    1.178185
     14          1           0        1.095633   -2.334942   -0.042636
     15          1           0        2.452389    1.033687    0.237677
     16          1           0        1.745770    1.415871   -1.344473
     17          1           0        0.540350    2.425347    0.737547
     18          1           0       -1.782397    1.997761    0.067575
     19          1           0       -0.768594    0.777030    2.181398
 ---------------------------------------------------------------------

 SCF Done:  E(RB3LYP) =  -423.179519081     A.U. after    1 cycles

 The electronic state is 1-A.
 Alpha  occ. eigenvalues --  -19.13930 -19.12685 -10.23064 -10.22967 -10.22190
 Alpha  occ. eigenvalues --  -10.22141 -10.19719 -10.19383 -10.19288  -1.04239
 Alpha  occ. eigenvalues --   -1.01652  -0.86539  -0.76331  -0.71722  -0.64989
 Alpha  occ. eigenvalues --   -0.63061  -0.57677  -0.53792  -0.51957  -0.48847
 Alpha  occ. eigenvalues --   -0.47642  -0.44815  -0.43964  -0.42131  -0.41381
 Alpha  occ. eigenvalues --   -0.40346  -0.38544  -0.35110  -0.33203  -0.30415
 Alpha  occ. eigenvalues --   -0.28953  -0.27585  -0.26645  -0.22958
 Alpha virt. eigenvalues --    0.07354   0.10224   0.11177   0.12976   0.13179
 Alpha virt. eigenvalues --    0.13849   0.14504   0.15593   0.16281   0.17246
 Alpha virt. eigenvalues --    0.17973   0.18742   0.19365   0.21037   0.22704

 Mulliken charges:
               1
     1  C   -0.091093
     2  O   -0.265768
     3  C    0.083065
     4  C   -0.086836
     5  O   -0.243751
     6  C   -0.107436
     7  C   -0.046802
     8  C   -0.081799
     9  C   -0.102366
    10  H    0.107240
    11  H    0.099204
    12  H    0.078473
    13  H    0.078490
    14  H    0.114027
    15  H    0.089657
    16  H    0.110229
    17  H    0.086938
    18  H    0.091276
    19  H    0.087252
 Sum of Mulliken charges =   0.00000

 Dipole moment (field-independent basis, Debye):
    X=              0.1610    Y=              1.8148    Z=              1.4964  Tot=              2.3577
 Quadrupole moment (field-independent basis, Debye-Ang):
   XX=            -54.1021   YY=            -51.8436   ZZ=            -52.1045
   XY=             -1.6142   XZ=              1.3958   YZ=             -2.0777

  Exact polarizability:  75.762   0.056  74.862   3.128  -3.121  69.302
 Approx polarizability: 105.469   2.279 107.728   4.557  -4.701 107.081

                      1                      2                      3
                      A                      A                      A
 Frequencies --    155.3776               212.4909               274.3330
 Red. masses --      3.4072                 2.5442                 4.1125
 Frc consts  --      0.0485                 0.0677                 0.1824
 IR Inten    --      3.8676                 1.8909                 2.2216

                      4                      5                      6
                      A                      A                      A
 Frequencies --    364.0513               428.7745               457.6856
 Red. masses --      2.4493                 2.1183                 4.1959
 Frc consts  --      0.1913                 0.2295                 0.5179
 IR Inten    --      1.5747                 1.3640                 3.4191

                      7                      8                      9
                      A                      A                      A
 Frequencies --    583.9136               698.4560               715.2196
 Red. masses --      4.9377                 5.0090                 4.5072
 Frc consts  --      0.9919                 1.4397                 1.3584
 IR Inten    --      5.4152                 3.0546                 0.6979

                     10                     11                     12
                      A                      A                      A
 Frequencies --    743.9292               777.4677               805.4699
 Red. masses --      3.1197                 2.5663                 2.0613
 Frc consts  --      1.0172                 0.9139                 0.7880
 IR Inten    --      7.6978                 3.4082                10.7103

                     13                     14                     15
                      A                      A                      A
 Frequencies --    848.6591               874.0342               938.8139
 Red. masses --      3.3698                 2.4592                 2.4336
 Frc consts  --      1.4300                 1.1069                 1.2638
 IR Inten    --     13.0680                10.0241                22.1411

                     16                     17                     18
                      A                      A                      A
 Frequencies --    945.0282               976.6684               999.2321
 Red. masses --      1.7777                 2.2239                 2.0461
 Frc consts  --      0.9354                 1.2498                 1.2037
 IR Inten    --     11.9092                20.5327                 9.7490

                     19                     20                     21
                      A                      A                      A
 Frequencies --   1049.6732              1055.0027              1065.4342
 Red. masses --      3.0634                 2.1419                 1.9800
 Frc consts  --      1.9887                 1.4046                 1.3243
 IR Inten    --     15.1474                 1.4282                18.5585

                     22                     23                     24
                      A                      A                      A
 Frequencies --   1074.6271              1088.7678              1122.9293
 Red. masses --      2.0629                 1.5226                 1.7513
 Frc consts  --      1.4036                 1.0634                 1.3011
 IR Inten    --      4.1326                 5.0735                15.4225

                     25                     26                     27
                      A                      A                      A
 Frequencies --   1128.1937              1148.7360              1199.4195
 Red. masses --      2.5349                 2.5990                 1.5422
 Frc consts  --      1.9010                 2.0207                 1.3072
 IR Inten    --     59.7245                34.1583                28.1073

                     28                     29                     30
                      A                      A                      A
 Frequencies --   1233.2995              1260.9901              1306.6294
 Red. masses --      1.0910                 1.1735                 1.2793
 Frc consts  --      0.9777                 1.0994                 1.2869
 IR Inten    --      0.0881                17.2927                 3.3944

                     31                     32                     33
                      A                      A                      A
 Frequencies --   1314.4105              1332.9723              1341.1330
 Red. masses --      1.5336                 1.4734                 1.3131
 Frc consts  --      1.5611                 1.5425                 1.3915
 IR Inten    --      4.0256                 1.0861                 4.4181

                     34                     35                     36
                      A                      A                      A
 Frequencies --   1356.0735              1384.2548              1387.5491
 Red. masses --      1.5609                 1.4889                 1.3831
 Frc consts  --      1.6912                 1.6809                 1.5689
 IR Inten    --      0.6371                 9.2416                 1.3322

                     37                     38                     39
                      A                      A                      A
 Frequencies --   1415.4627              1447.1596              1481.3257
 Red. masses --      1.5851                 1.8563                 1.1067
 Frc consts  --      1.8712                 2.2905                 1.4308
 IR Inten    --      9.4993                 1.7240                 1.9749

                     40                     41                     42
                      A                      A                      A
 Frequencies --   1500.7981              1522.2803              2946.5268
 Red. masses --      1.0972                 1.0896                 1.0714
 Frc consts  --      1.4560                 1.4877                 5.4805
 IR Inten    --      1.9252                 0.3171                57.3406

                     43                     44                     45
                      A                      A                      A
 Frequencies --   2956.3991              3021.9402              3047.8787
 Red. masses --      1.0703                 1.0570                 1.0870
 Frc consts  --      5.5119                 5.6872                 5.9493
 IR Inten    --     86.2056                68.7628                38.6262

                     46                     47                     48
                      A                      A                      A
 Frequencies --   3057.5169              3061.8071              3096.8559
 Red. masses --      1.1076                 1.0903                 1.0923
 Frc consts  --      6.1008                 6.0219                 6.1721
 IR Inten    --     34.2889                36.9552                27.1765

                     49                     50                     51
                      A                      A                      A
 Frequencies --   3132.1273              3171.3912              3183.3800
 Red. masses --      1.0873                 1.0890                 1.0938
 Frc consts  --      6.2845                 6.4533                 6.5308
 IR Inten    --     18.8998                13.3989                18.2602

 - Thermochemistry -
 -------------------
 Temperature   298.150 Kelvin.  Pressure   1.00000 Atm.
 Atom     1 has atomic number  6 and mass  12.00000

 Molecular mass:   126.06808 amu.
 Principal axes and moments of inertia in atomic units:
                           1         2         3
     Eigenvalues --   721.62647 861.349921102.30654
           X            0.99873  -0.04314   0.02599
           Y            0.04399   0.99849  -0.03294
           Z           -0.02453   0.03404   0.99912
 This molecule is an asymmetric top.
 Rotational symmetry number  1.
 Warning -- assumption of classical behavior for rotation
           may cause significant error
 Rotational temperatures (Kelvin)      0.12003     0.10056     0.07858
 Rotational constants (GHZ):           2.50094     2.09525     1.63724
 Zero-point vibrational energy     428816.7 (Joules/Mol)
                                  102.48964 (Kcal/Mol)
 Warning -- explicit consideration of   7 degrees of freedom as
           vibrations may cause significant error
 Vibrational temperatures:    223.55   305.73   394.70   523.79   616.91
          (Kelvin)            658.51   840.12  1004.92  1029.04  1070.35
                             1118.60  1158.89  1221.03  1257.54  1350.74
                             1359.68  1405.21  1437.67  1510.24  1517.91
                             1532.92  1546.15  1566.49  1615.64  1623.22
                             1652.77  1725.69  1774.44  1814.28  1879.95
                             1891.14  1917.85  1929.59  1951.08  1991.63
                             1996.37  2036.53  2082.14  2131.29  2159.31
                             2190.22  4239.39  4253.59  4347.89  4385.21
                             4399.08  4405.25  4455.68  4506.43  4562.92
                             4580.17

 Zero-point correction=                           0.163328 (Hartree/Particle)
 Thermal correction to Energy=                    0.169962
 Thermal correction to Enthalpy=                  0.170906
 Thermal correction to Gibbs Free Energy=         0.132544
 Sum of electronic and zero-point Energies=           -423.016191
 Sum of electronic and thermal Energies=              -423.009557
 Sum of electronic and thermal Enthalpies=            -423.008613
 Sum of electronic and thermal Free Energies=         -423.046975

                     E (Thermal)             CV                S
                      KCal/Mol        Cal/Mol-Kelvin    Cal/Mol-Kelvin
 Total                  106.653             27.432             80.740
 Electronic               0.000              0.000              0.000
 Translational            0.889              2.981             40.409
 Rotational               0.889              2.981             28.018
 Vibrational            104.875             21.470             12.314
 Vibration     1          0.620              1.897              2.605
 Vibration     2          0.644              1.822              2.022
 Vibration     3          0.677              1.721              1.569
 Vibration     4          0.738              1.546              1.105
 Vibration     5          0.790              1.408              0.863
 Vibration     6          0.816              1.344              0.773
 Vibration     7          0.941              1.066              0.478

 Optimization completed.
    -- Stationary point found.
 Normal termination of Gaussian 09 at Mon Jan 27 13:34:18 2020.
