 Gaussian 09, Revision D.01,
 Gaussian 09:  ES64L-G09RevD.01 24-Apr-2013

 -----------------------------
 # b3lyp 6-31G(2df,p) opt Freq
 -----------------------------

 -----
 titel
 -----
 Symbolic Z-matrix:
 Charge =  0 Multiplicity = 1

 SCF Done:  E(RB3LYP) =  -423.209502493     A.U. after   14 cycles
 Optimization completed.
    -- Stationary point found.
 Normal termination of Gaussian 09 at Tue Jan 28 00:03:13 2020.

 ----------------------------------------------------------------------
 #N Geom=AllCheck Guess=TCheck SCRF=Check GenChk RB3LYP/6-31G(2df,p) Fr
 eq
 ----------------------------------------------------------------------

 Structure from the checkpoint file:  "/scratch/puck/g09_fb9e4b93-b65a-418b-b5ca-14acebd2f9ad/Gau-188094.chk"
 -----
 titel
 -----
 Charge =  0 Multiplicity = 1

                         Standard orientation:
 ---------------------------------------------------------------------
 Center     Atomic      Atomic             Coordinates (Angstroms)
 Number     Number       Type             X           Y           Z
 ---------------------------------------------------------------------
      1          6           0       -3.184088   -0.333054   -0.079270
      2          6           0       -1.709003   -0.088501   -0.054530
      3          6           0       -1.070986    1.063845   -0.272270
      4          6           0        0.426077    0.908759   -0.261998
      5          8           0        1.075315    1.963529    0.426353
      6          6           0        0.603761   -0.470356    0.419566
      7          6           0       -0.727629   -1.223530    0.185319
      8          6           0        1.874056   -1.181925    0.036390
      9          8           0        2.833087   -0.622582   -0.440571
     10          1           0       -3.452684   -1.061600   -0.855163
     11          1           0       -3.530891   -0.752750    0.873613
     12          1           0       -3.741577    0.587367   -0.270935
     13          1           0       -1.542457    2.012573   -0.502699
     14          1           0        0.807730    0.862308   -1.295367
     15          1           0        2.018080    1.856279    0.255949
     16          1           0        0.690487   -0.262863    1.496851
     17          1           0       -0.675576   -1.880123   -0.695932
     18          1           0       -1.014900   -1.863285    1.028033
     19          1           0        1.901435   -2.276910    0.240153
 ---------------------------------------------------------------------

 SCF Done:  E(RB3LYP) =  -423.209502493     A.U. after    1 cycles

 The electronic state is 1-A.
 Alpha  occ. eigenvalues --  -19.14761 -19.12959 -10.27691 -10.23348 -10.19902
 Alpha  occ. eigenvalues --  -10.19727 -10.19529 -10.18784 -10.17584  -1.05339
 Alpha  occ. eigenvalues --   -1.01347  -0.85309  -0.76194  -0.71811  -0.67771
 Alpha  occ. eigenvalues --   -0.61697  -0.56708  -0.52802  -0.51164  -0.49068
 Alpha  occ. eigenvalues --   -0.45551  -0.44920  -0.42905  -0.42239  -0.40272
 Alpha  occ. eigenvalues --   -0.39977  -0.38302  -0.37336  -0.35383  -0.34507
 Alpha  occ. eigenvalues --   -0.32118  -0.27198  -0.25962  -0.23747
 Alpha virt. eigenvalues --   -0.02943   0.01666   0.08931   0.10283   0.10851
 Alpha virt. eigenvalues --    0.12538   0.13628   0.13766   0.16613   0.16849
 Alpha virt. eigenvalues --    0.17398   0.18625   0.19361   0.20716   0.23210

 Mulliken charges:
               1
     1  C   -0.490458
     2  C    0.327417
     3  C   -0.193513
     4  C    0.101479
     5  O   -0.447687
     6  C   -0.101041
     7  C   -0.345985
     8  C    0.129607
     9  O   -0.256884
    10  H    0.127131
    11  H    0.126840
    12  H    0.128792
    13  H    0.098184
    14  H    0.082692
    15  H    0.289551
    16  H    0.121763
    17  H    0.111693
    18  H    0.108439
    19  H    0.081979
 Sum of Mulliken charges =   0.00000

 Dipole moment (field-independent basis, Debye):
    X=             -1.9487    Y=             -1.8624    Z=              0.2123  Tot=              2.7039
 Quadrupole moment (field-independent basis, Debye-Ang):
   XX=            -56.1052   YY=            -53.5486   ZZ=            -53.2529
   XY=              1.0545   XZ=              2.2862   YZ=             -2.6093

  Exact polarizability:  95.526   5.875  83.001  -2.429  -4.219  56.441
 Approx polarizability: 126.580  17.119 128.638  -8.484  -7.399  91.064

                      1                      2                      3
                      A                      A                      A
 Frequencies --     54.9328               109.7257               142.1526
 Red. masses --      4.9176                 2.2124                 3.6535
 Frc consts  --      0.0087                 0.0157                 0.0435
 IR Inten    --      5.5965                 1.0573                 4.3069

                      4                      5                      6
                      A                      A                      A
 Frequencies --    171.2173               196.9361               271.4311
 Red. masses --      1.8043                 1.6450                 2.9816
 Frc consts  --      0.0312                 0.0376                 0.1294
 IR Inten    --      2.5786                 1.6291                 1.5939

                      7                      8                      9
                      A                      A                      A
 Frequencies --    309.6424               407.7892               412.3243
 Red. masses --      3.2217                 1.1525                 2.8691
 Frc consts  --      0.1820                 0.1129                 0.2874
 IR Inten    --      4.4734                80.7614                 4.4070

                     10                     11                     12
                      A                      A                      A
 Frequencies --    444.3166               465.2118               538.3439
 Red. masses --      2.4924                 3.0051                 4.6460
 Frc consts  --      0.2899                 0.3832                 0.7933
 IR Inten    --     26.4199                 1.6673                11.2544

                     13                     14                     15
                      A                      A                      A
 Frequencies --    629.3142               691.5349               802.9648
 Red. masses --      3.3556                 3.7427                 2.1608
 Frc consts  --      0.7830                 1.0545                 0.8209
 IR Inten    --      5.5532                20.7072                 2.7661

                     16                     17                     18
                      A                      A                      A
 Frequencies --    855.4175               877.8146               918.7207
 Red. masses --      1.6716                 2.6973                 1.3698
 Frc consts  --      0.7207                 1.2246                 0.6812
 IR Inten    --      8.7932                 3.8104                 1.6314

                     19                     20                     21
                      A                      A                      A
 Frequencies --    987.7412              1020.0398              1036.3752
 Red. masses --      1.8894                 1.4846                 1.5593
 Frc consts  --      1.0861                 0.9101                 0.9868
 IR Inten    --     10.7929                 0.9394                 3.6225

                     22                     23                     24
                      A                      A                      A
 Frequencies --   1057.0326              1077.9296              1101.7070
 Red. masses --      2.4592                 3.0100                 2.2831
 Frc consts  --      1.6189                 2.0606                 1.6327
 IR Inten    --     26.7214                14.1165                16.3659

                     25                     26                     27
                      A                      A                      A
 Frequencies --   1117.5134              1172.6357              1198.5446
 Red. masses --      3.5638                 1.3943                 1.9484
 Frc consts  --      2.6222                 1.1297                 1.6490
 IR Inten    --     37.1101                 3.3416                59.2927

                     28                     29                     30
                      A                      A                      A
 Frequencies --   1230.3696              1251.4387              1276.9385
 Red. masses --      1.2270                 1.3817                 1.3866
 Frc consts  --      1.0944                 1.2749                 1.3321
 IR Inten    --     60.5340                 9.0021                 0.7155

                     31                     32                     33
                      A                      A                      A
 Frequencies --   1304.8382              1336.7826              1370.2102
 Red. masses --      1.3574                 2.1014                 1.6358
 Frc consts  --      1.3617                 2.2125                 1.8095
 IR Inten    --     18.6572                 2.4460                25.1240

                     34                     35                     36
                      A                      A                      A
 Frequencies --   1413.6327              1417.9327              1437.8037
 Red. masses --      1.2925                 1.2399                 1.4817
 Frc consts  --      1.5218                 1.4688                 1.8048
 IR Inten    --      1.2662                 2.8598                12.6966

                     37                     38                     39
                      A                      A                      A
 Frequencies --   1478.7428              1486.5989              1493.4587
 Red. masses --      1.0447                 1.0611                 1.0945
 Frc consts  --      1.3459                 1.3816                 1.4383
 IR Inten    --      7.3534                 4.6807                 3.2427

                     40                     41                     42
                      A                      A                      A
 Frequencies --   1722.0636              1809.5949              2870.0970
 Red. masses --      7.1311                10.6291                 1.0830
 Frc consts  --     12.4596                20.5074                 5.2563
 IR Inten    --      5.9755               153.7755               118.1329

                     43                     44                     45
                      A                      A                      A
 Frequencies --   2961.6502              3000.0768              3007.3083
 Red. masses --      1.0811                 1.0700                 1.0773
 Frc consts  --      5.5872                 5.6743                 5.7402
 IR Inten    --     38.7379                25.6797                11.5133

                     46                     47                     48
                      A                      A                      A
 Frequencies --   3017.5414              3051.0756              3062.9180
 Red. masses --      1.0391                 1.0941                 1.0983
 Frc consts  --      5.5747                 6.0010                 6.0709
 IR Inten    --     35.4148                26.6569                20.9462

                     49                     50                     51
                      A                      A                      A
 Frequencies --   3114.5685              3199.2863              3802.2042
 Red. masses --      1.0988                 1.0943                 1.0659
 Frc consts  --      6.2801                 6.5993                 9.0786
 IR Inten    --     17.3701                10.0778                30.1516

 - Thermochemistry -
 -------------------
 Temperature   298.150 Kelvin.  Pressure   1.00000 Atm.
 Atom     1 has atomic number  6 and mass  12.00000

 Molecular mass:   126.06808 amu.
 Principal axes and moments of inertia in atomic units:
                           1         2         3
     Eigenvalues --   609.156361575.340442057.66435
           X            0.99986   0.01594   0.00471
           Y           -0.01583   0.99962  -0.02269
           Z           -0.00507   0.02261   0.99973
 This molecule is an asymmetric top.
 Rotational symmetry number  1.
 Warning -- assumption of classical behavior for rotation
           may cause significant error
 Rotational temperatures (Kelvin)      0.14219     0.05498     0.04209
 Rotational constants (GHZ):           2.96269     1.14562     0.87708
 Zero-point vibrational energy     413826.8 (Joules/Mol)
                                   98.90698 (Kcal/Mol)
 Warning -- explicit consideration of  12 degrees of freedom as
           vibrations may cause significant error
 Vibrational temperatures:     79.04   157.87   204.53   246.34   283.35
          (Kelvin)            390.53   445.51   586.72   593.24   639.27
                              669.34   774.56   905.44   994.96  1155.29
                             1230.75  1262.98  1321.83  1421.14  1467.61
                             1491.11  1520.83  1550.90  1585.11  1607.85
                             1687.16  1724.44  1770.23  1800.54  1837.23
                             1877.37  1923.33  1971.42  2033.90  2040.09
                             2068.68  2127.58  2138.88  2148.75  2477.66
                             2603.60  4129.42  4261.15  4316.44  4326.84
                             4341.56  4389.81  4406.85  4481.16  4603.05
                             5470.52

 Zero-point correction=                           0.157618 (Hartree/Particle)
 Thermal correction to Energy=                    0.166868
 Thermal correction to Enthalpy=                  0.167813
 Thermal correction to Gibbs Free Energy=         0.123183
 Sum of electronic and zero-point Energies=           -423.051884
 Sum of electronic and thermal Energies=              -423.042634
 Sum of electronic and thermal Enthalpies=            -423.041690
 Sum of electronic and thermal Free Energies=         -423.086320

                     E (Thermal)             CV                S
                      KCal/Mol        Cal/Mol-Kelvin    Cal/Mol-Kelvin
 Total                  104.711             33.866             93.931
 Electronic               0.000              0.000              0.000
 Translational            0.889              2.981             40.409
 Rotational               0.889              2.981             29.070
 Vibrational            102.934             27.905             24.453
 Vibration     1          0.596              1.976              4.631
 Vibration     2          0.606              1.941              3.274
 Vibration     3          0.616              1.911              2.775
 Vibration     4          0.626              1.878              2.422
 Vibration     5          0.636              1.844              2.162
 Vibration     6          0.675              1.726              1.587
 Vibration     7          0.699              1.655              1.364
 Vibration     8          0.772              1.453              0.934
 Vibration     9          0.776              1.443              0.918
 Vibration    10          0.804              1.373              0.813
 Vibration    11          0.823              1.327              0.751
 Vibration    12          0.893              1.165              0.569

 Optimization completed.
    -- Stationary point found.
 Normal termination of Gaussian 09 at Tue Jan 28 00:46:33 2020.
