 Gaussian 09, Revision D.01,
 Gaussian 09:  ES64L-G09RevD.01 24-Apr-2013

 -----------------------------
 # b3lyp 6-31G(2df,p) opt Freq
 -----------------------------

 -----
 titel
 -----
 Symbolic Z-matrix:
 Charge =  0 Multiplicity = 1

 SCF Done:  E(RB3LYP) =  -423.126354690     A.U. after   14 cycles
 Optimization completed.
    -- Stationary point found.
 Normal termination of Gaussian 09 at Mon Jan 27 17:20:37 2020.

 ----------------------------------------------------------------------
 #N Geom=AllCheck Guess=TCheck SCRF=Check GenChk RB3LYP/6-31G(2df,p) Fr
 eq
 ----------------------------------------------------------------------

 Structure from the checkpoint file:  "/scratch/puck/g09_d652a099-d590-47d1-aa8f-3d136e012a4f/Gau-50207.chk"
 -----
 titel
 -----
 Charge =  0 Multiplicity = 1

                         Standard orientation:
 ---------------------------------------------------------------------
 Center     Atomic      Atomic             Coordinates (Angstroms)
 Number     Number       Type             X           Y           Z
 ---------------------------------------------------------------------
      1          6           0        1.712753   -1.768462   -0.164997
      2          6           0        0.625421   -0.751054   -0.043811
      3          8           0        0.508477   -0.020926    1.184206
      4          6           0        0.613825    0.737037   -0.029729
      5          6           0        1.673460    1.786163   -0.117192
      6          6           0       -0.809622    0.739740   -0.675669
      7          8           0       -1.923064    0.800731    0.227480
      8          6           0       -1.993605   -0.648211    0.301742
      9          6           0       -0.798230   -0.803382   -0.667312
     10          1           0        1.468498   -2.666684    0.413956
     11          1           0        1.849389   -2.068876   -1.208939
     12          1           0        2.658055   -1.370231    0.213220
     13          1           0        1.403333    2.655395    0.493135
     14          1           0        2.631314    1.403025    0.245453
     15          1           0        1.800239    2.125996   -1.150269
     16          1           0       -0.929260    1.355817   -1.571559
     17          1           0       -1.842127   -1.013898    1.321037
     18          1           0       -2.947716   -1.013133   -0.095758
     19          1           0       -0.919040   -1.396844   -1.571952
 ---------------------------------------------------------------------

 SCF Done:  E(RB3LYP) =  -423.126354689     A.U. after    1 cycles

 The electronic state is 1-A.
 Alpha  occ. eigenvalues --  -19.14795 -19.12753 -10.24269 -10.23676 -10.23273
 Alpha  occ. eigenvalues --  -10.22511 -10.19152 -10.19017 -10.18764  -1.08187
 Alpha  occ. eigenvalues --   -1.02478  -0.78743  -0.75306  -0.73382  -0.69138
 Alpha  occ. eigenvalues --   -0.59510  -0.57949  -0.51750  -0.51339  -0.48891
 Alpha  occ. eigenvalues --   -0.45123  -0.43947  -0.42689  -0.42284  -0.41295
 Alpha  occ. eigenvalues --   -0.40844  -0.38726  -0.36733  -0.34207  -0.33635
 Alpha  occ. eigenvalues --   -0.30580  -0.26905  -0.25316  -0.23561
 Alpha virt. eigenvalues --    0.06209   0.09235   0.09356   0.11388   0.12297
 Alpha virt. eigenvalues --    0.12984   0.13532   0.14302   0.15786   0.16777
 Alpha virt. eigenvalues --    0.17369   0.17876   0.18997   0.20250   0.21750

 Mulliken charges:
               1
     1  C   -0.506200
     2  C    0.328085
     3  O   -0.307753
     4  C    0.338181
     5  C   -0.514423
     6  C    0.047829
     7  O   -0.286404
     8  C   -0.084519
     9  C   -0.172366
    10  H    0.133527
    11  H    0.124448
    12  H    0.134080
    13  H    0.140058
    14  H    0.131853
    15  H    0.123491
    16  H    0.075990
    17  H    0.114887
    18  H    0.096990
    19  H    0.082245
 Sum of Mulliken charges =   0.00000

 Dipole moment (field-independent basis, Debye):
    X=              1.5216    Y=             -1.2099    Z=             -2.2298  Tot=              2.9583
 Quadrupole moment (field-independent basis, Debye-Ang):
   XX=            -53.4366   YY=            -50.3323   ZZ=            -54.2130
   XY=              3.4824   XZ=              0.2743   YZ=             -0.9979

  Exact polarizability:  81.600   3.391  80.424   0.366  -1.589  63.592
 Approx polarizability: 106.786   2.082 116.727   0.197  -1.573 103.488

                      1                      2                      3
                      A                      A                      A
 Frequencies --    166.8157               175.6300               181.4096
 Red. masses --      3.1586                 1.0522                 2.3797
 Frc consts  --      0.0518                 0.0191                 0.0461
 IR Inten    --      1.8398                 0.1460                 0.5612

                      4                      5                      6
                      A                      A                      A
 Frequencies --    186.3830               250.2935               269.0145
 Red. masses --      1.0508                 2.8934                 3.0664
 Frc consts  --      0.0215                 0.1068                 0.1307
 IR Inten    --      0.1230                 0.5950                 1.7307

                      7                      8                      9
                      A                      A                      A
 Frequencies --    328.2171               363.3425               557.6747
 Red. masses --      2.8689                 4.2559                 3.1755
 Frc consts  --      0.1821                 0.3310                 0.5819
 IR Inten    --      3.0392                 2.4361                 3.3844

                     10                     11                     12
                      A                      A                      A
 Frequencies --    573.8517               576.8334               711.3163
 Red. masses --      4.2199                 4.0466                 3.5469
 Frc consts  --      0.8188                 0.7933                 1.0574
 IR Inten    --      9.4673                 9.3179                 3.3326

                     13                     14                     15
                      A                      A                      A
 Frequencies --    734.1271               806.5338               819.8895
 Red. masses --      4.8890                 2.3331                 2.6285
 Frc consts  --      1.5524                 0.8942                 1.0411
 IR Inten    --      3.8503                 5.0059                 3.0712

                     16                     17                     18
                      A                      A                      A
 Frequencies --    861.0256               888.4008               934.4179
 Red. masses --      2.1620                 2.8974                 2.2514
 Frc consts  --      0.9444                 1.3473                 1.1582
 IR Inten    --     15.5119                 3.9836                 8.8508

                     19                     20                     21
                      A                      A                      A
 Frequencies --    954.5303               992.0387              1003.6234
 Red. masses --      2.1317                 2.0532                 3.6384
 Frc consts  --      1.1443                 1.1905                 2.1593
 IR Inten    --      8.5080                17.7226                79.2911

                     22                     23                     24
                      A                      A                      A
 Frequencies --   1043.5573              1086.1230              1105.8364
 Red. masses --      2.8579                 1.7399                 1.9188
 Frc consts  --      1.8337                 1.2093                 1.3825
 IR Inten    --     15.2877                 2.8586                 5.7381

                     25                     26                     27
                      A                      A                      A
 Frequencies --   1133.6675              1158.8806              1171.8240
 Red. masses --      2.0375                 1.2797                 2.1201
 Frc consts  --      1.5428                 1.0126                 1.7153
 IR Inten    --     14.5388                 3.3884                11.9268

                     28                     29                     30
                      A                      A                      A
 Frequencies --   1184.7050              1215.5897              1239.6145
 Red. masses --      1.7971                 2.0978                 1.8255
 Frc consts  --      1.4861                 1.8264                 1.6527
 IR Inten    --      4.3357                11.4637                 7.3022

                     31                     32                     33
                      A                      A                      A
 Frequencies --   1287.7457              1306.4206              1352.5135
 Red. masses --      1.5783                 2.1902                 1.4490
 Frc consts  --      1.5421                 2.2024                 1.5617
 IR Inten    --      6.0140                10.8052                 4.7003

                     34                     35                     36
                      A                      A                      A
 Frequencies --   1407.8473              1408.7284              1469.8111
 Red. masses --      1.2911                 1.2986                 1.3751
 Frc consts  --      1.5078                 1.5184                 1.7503
 IR Inten    --      2.1690                 2.9118                 0.1171

                     37                     38                     39
                      A                      A                      A
 Frequencies --   1475.1940              1486.1348              1490.4422
 Red. masses --      1.0451                 1.0471                 1.1227
 Frc consts  --      1.3400                 1.3625                 1.4694
 IR Inten    --      1.7358                 1.4463                10.1371

                     40                     41                     42
                      A                      A                      A
 Frequencies --   1497.8407              1515.4994              3029.3304
 Red. masses --      1.1521                 2.1400                 1.0594
 Frc consts  --      1.5228                 2.8958                 5.7278
 IR Inten    --      3.4788                 8.6741                78.9333

                     43                     44                     45
                      A                      A                      A
 Frequencies --   3031.8411              3033.3363              3070.2893
 Red. masses --      1.0363                 1.0362                 1.0890
 Frc consts  --      5.6126                 5.6175                 6.0482
 IR Inten    --     30.4828                 9.9566                44.0838

                     46                     47                     48
                      A                      A                      A
 Frequencies --   3093.2593              3093.9251              3096.3259
 Red. masses --      1.1043                 1.1011                 1.1001
 Frc consts  --      6.2253                 6.2099                 6.2141
 IR Inten    --      9.0333                23.5139                17.9573

                     49                     50                     51
                      A                      A                      A
 Frequencies --   3116.5337              3119.8352              3131.2500
 Red. masses --      1.1010                 1.1007                 1.0904
 Frc consts  --      6.3004                 6.3121                 6.2993
 IR Inten    --     11.0948                15.0688                27.6892

 - Thermochemistry -
 -------------------
 Temperature   298.150 Kelvin.  Pressure   1.00000 Atm.
 Atom     1 has atomic number  6 and mass  12.00000

 Molecular mass:   126.06808 amu.
 Principal axes and moments of inertia in atomic units:
                           1         2         3
     Eigenvalues --   703.739321032.434041409.80037
           X            0.99873   0.05009  -0.00600
           Y           -0.05014   0.99871  -0.00792
           Z            0.00560   0.00821   0.99995
 This molecule is an asymmetric top.
 Rotational symmetry number  1.
 Warning -- assumption of classical behavior for rotation
           may cause significant error
 Rotational temperatures (Kelvin)      0.12308     0.08389     0.06144
 Rotational constants (GHZ):           2.56450     1.74805     1.28014
 Zero-point vibrational energy     413843.7 (Joules/Mol)
                                   98.91103 (Kcal/Mol)
 Warning -- explicit consideration of  11 degrees of freedom as
           vibrations may cause significant error
 Vibrational temperatures:    240.01   252.69   261.01   268.16   360.12
          (Kelvin)            387.05   472.23   522.77   802.37   825.64
                              829.93  1023.42  1056.24  1160.42  1179.64
                             1238.82  1278.21  1344.42  1373.35  1427.32
                             1443.99  1501.44  1562.69  1591.05  1631.09
                             1667.37  1685.99  1704.52  1748.96  1783.53
                             1852.78  1879.65  1945.96  2025.58  2026.84
                             2114.73  2122.47  2138.21  2144.41  2155.06
                             2180.46  4358.53  4362.14  4364.29  4417.46
                             4450.50  4451.46  4454.92  4483.99  4488.74
                             4505.16

 Zero-point correction=                           0.157625 (Hartree/Particle)
 Thermal correction to Energy=                    0.165966
 Thermal correction to Enthalpy=                  0.166910
 Thermal correction to Gibbs Free Energy=         0.125184
 Sum of electronic and zero-point Energies=           -422.968730
 Sum of electronic and thermal Energies=              -422.960389
 Sum of electronic and thermal Enthalpies=            -422.959445
 Sum of electronic and thermal Free Energies=         -423.001171

                     E (Thermal)             CV                S
                      KCal/Mol        Cal/Mol-Kelvin    Cal/Mol-Kelvin
 Total                  104.145             32.236             87.819
 Electronic               0.000              0.000              0.000
 Translational            0.889              2.981             40.409
 Rotational               0.889              2.981             28.417
 Vibrational            102.368             26.274             18.993
 Vibration     1          0.624              1.883              2.471
 Vibration     2          0.628              1.872              2.374
 Vibration     3          0.630              1.865              2.314
 Vibration     4          0.632              1.858              2.264
 Vibration     5          0.663              1.762              1.729
 Vibration     6          0.673              1.730              1.603
 Vibration     7          0.711              1.619              1.269
 Vibration     8          0.737              1.548              1.108
 Vibration     9          0.913              1.123              0.528
 Vibration    10          0.930              1.088              0.497
 Vibration    11          0.933              1.081              0.491

 Normal termination of Gaussian 09 at Mon Jan 27 18:04:07 2020.
