 Gaussian 09, Revision D.01,
 Gaussian 09:  ES64L-G09RevD.01 24-Apr-2013

 -----------------------------
 # b3lyp 6-31G(2df,p) opt Freq
 -----------------------------

 -----
 titel
 -----
 Symbolic Z-matrix:
 Charge =  0 Multiplicity = 1

 SCF Done:  E(RB3LYP) =  -423.192158675     A.U. after   14 cycles
 Optimization completed.
    -- Stationary point found.
 Normal termination of Gaussian 09 at Mon Jan 27 14:13:23 2020.

 ----------------------------------------------------------------------
 #N Geom=AllCheck Guess=TCheck SCRF=Check GenChk RB3LYP/6-31G(2df,p) Fr
 eq
 ----------------------------------------------------------------------

 Structure from the checkpoint file:  "/scratch/puck/g09_c20efa9d-9d3c-4039-97cd-5fdbe561aa9c/Gau-171138.chk"
 -----
 titel
 -----
 Charge =  0 Multiplicity = 1

                         Standard orientation:
 ---------------------------------------------------------------------
 Center     Atomic      Atomic             Coordinates (Angstroms)
 Number     Number       Type             X           Y           Z
 ---------------------------------------------------------------------
      1          6           0        3.050665   -0.329678   -0.542052
      2          6           0        1.755193    0.134072    0.077617
      3          8           0        1.643237    0.929350    0.972230
      4          8           0        0.698898   -0.473508   -0.527351
      5          6           0       -0.567136   -0.134657   -0.025686
      6          6           0       -1.174300   -0.871656    1.122313
      7          6           0       -1.853377   -0.909805   -0.233397
      8          6           0       -2.608917    0.407288   -0.465004
      9          6           0       -1.264755    1.196343   -0.288243
     10          1           0        3.885967    0.172634   -0.055953
     11          1           0        3.151038   -1.413404   -0.433020
     12          1           0        3.053715   -0.110364   -1.613467
     13          1           0       -0.654365   -1.786004    1.389170
     14          1           0       -1.618503   -0.338400    1.959960
     15          1           0       -2.021223   -1.843421   -0.755395
     16          1           0       -3.019153    0.503030   -1.472164
     17          1           0       -3.398192    0.628305    0.260076
     18          1           0       -0.938798    1.653778   -1.225042
     19          1           0       -1.201804    1.935674    0.513512
 ---------------------------------------------------------------------

 SCF Done:  E(RB3LYP) =  -423.192158675     A.U. after    1 cycles

 The electronic state is 1-A.
 Alpha  occ. eigenvalues --  -19.18212 -19.12341 -10.30609 -10.24489 -10.19411
 Alpha  occ. eigenvalues --  -10.19401 -10.18863 -10.18741 -10.18528  -1.10063
 Alpha  occ. eigenvalues --   -1.01493  -0.89641  -0.75564  -0.73331  -0.65856
 Alpha  occ. eigenvalues --   -0.62125  -0.57345  -0.52597  -0.48917  -0.47837
 Alpha  occ. eigenvalues --   -0.47647  -0.45329  -0.44842  -0.41272  -0.40700
 Alpha  occ. eigenvalues --   -0.39279  -0.38779  -0.36905  -0.34190  -0.33351
 Alpha  occ. eigenvalues --   -0.31710  -0.27931  -0.26913  -0.25354
 Alpha virt. eigenvalues --    0.01483   0.09432   0.10705   0.11740   0.12081
 Alpha virt. eigenvalues --    0.13227   0.14385   0.15071   0.15568   0.16426
 Alpha virt. eigenvalues --    0.17332   0.18961   0.19481   0.20264   0.22771

 Mulliken charges:
               1
     1  C   -0.484264
     2  C    0.395622
     3  O   -0.341546
     4  O   -0.288253
     5  C    0.498904
     6  C   -0.319117
     7  C   -0.150050
     8  C   -0.222217
     9  C   -0.290330
    10  H    0.148298
    11  H    0.149502
    12  H    0.150441
    13  H    0.115682
    14  H    0.111173
    15  H    0.095607
    16  H    0.106989
    17  H    0.101558
    18  H    0.108566
    19  H    0.113436
 Sum of Mulliken charges =   0.00000

 Dipole moment (field-independent basis, Debye):
    X=             -0.2562    Y=             -1.1774    Z=             -1.3801  Tot=              1.8321
 Quadrupole moment (field-independent basis, Debye-Ang):
   XX=            -48.6164   YY=            -53.2891   ZZ=            -53.8555
   XY=             -3.0323   XZ=             -2.7789   YZ=             -2.5425

  Exact polarizability:  91.160  -0.168  69.632   0.513   1.050  68.291
 Approx polarizability: 112.063   2.564 105.586   1.981   8.351 108.017

                      1                      2                      3
                      A                      A                      A
 Frequencies --     51.8633                67.2512                99.5963
 Red. masses --      2.9896                 1.5392                 2.1381
 Frc consts  --      0.0047                 0.0041                 0.0125
 IR Inten    --      1.4336                 0.4571                 1.3711

                      4                      5                      6
                      A                      A                      A
 Frequencies --    137.4569               237.6571               326.9909
 Red. masses --      3.7916                 2.2040                 3.0765
 Frc consts  --      0.0422                 0.0733                 0.1938
 IR Inten    --      2.9546                 4.0523                 1.9098

                      7                      8                      9
                      A                      A                      A
 Frequencies --    363.5659               409.0272               438.4879
 Red. masses --      3.2865                 2.6104                 2.3994
 Frc consts  --      0.2559                 0.2573                 0.2718
 IR Inten    --      2.8614                 0.0632                 2.6273

                     10                     11                     12
                      A                      A                      A
 Frequencies --    570.2478               609.2131               680.8298
 Red. masses --      4.1856                 2.7185                 3.0406
 Frc consts  --      0.8019                 0.5945                 0.8304
 IR Inten    --      7.2165                 7.0830                 1.2981

                     13                     14                     15
                      A                      A                      A
 Frequencies --    743.3664               788.8690               836.7819
 Red. masses --      3.8264                 1.2593                 2.1657
 Frc consts  --      1.2458                 0.4617                 0.8935
 IR Inten    --      6.9179                 0.7124                 8.3002

                     16                     17                     18
                      A                      A                      A
 Frequencies --    900.1815               927.2700               937.7305
 Red. masses --      2.4906                 2.1028                 3.0982
 Frc consts  --      1.1891                 1.0653                 1.6052
 IR Inten    --      0.4131                 0.9677                26.9752

                     19                     20                     21
                      A                      A                      A
 Frequencies --    954.2979               971.1775              1014.5991
 Red. masses --      1.9909                 1.7283                 1.6103
 Frc consts  --      1.0683                 0.9605                 0.9766
 IR Inten    --     11.1295                 0.7210                 7.8889

                     22                     23                     24
                      A                      A                      A
 Frequencies --   1028.6203              1036.2516              1063.2632
 Red. masses --      1.4347                 1.6830                 1.8174
 Frc consts  --      0.8944                 1.0648                 1.2106
 IR Inten    --      5.0778                31.0816                 5.5584

                     25                     26                     27
                      A                      A                      A
 Frequencies --   1084.1197              1118.1487              1149.8593
 Red. masses --      1.5153                 2.2348                 1.5858
 Frc consts  --      1.0493                 1.6462                 1.2353
 IR Inten    --      6.9658                 2.4921                20.8217

                     28                     29                     30
                      A                      A                      A
 Frequencies --   1216.1805              1223.8407              1236.0864
 Red. masses --      1.1640                 1.5866                 1.8066
 Frc consts  --      1.0144                 1.4001                 1.6264
 IR Inten    --      8.6445                51.9026                 6.1945

                     31                     32                     33
                      A                      A                      A
 Frequencies --   1249.4348              1261.9750              1305.9070
 Red. masses --      2.8935                 2.3790                 2.3352
 Frc consts  --      2.6614                 2.2322                 2.3464
 IR Inten    --    356.4069                81.9070                16.3722

                     34                     35                     36
                      A                      A                      A
 Frequencies --   1380.2253              1395.4116              1469.3898
 Red. masses --      2.1026                 1.4396                 1.0494
 Frc consts  --      2.3600                 1.6516                 1.3349
 IR Inten    --     56.4756                22.4180                11.8716

                     37                     38                     39
                      A                      A                      A
 Frequencies --   1475.6661              1481.1910              1483.0282
 Red. masses --      1.0475                 1.1475                 1.1687
 Frc consts  --      1.3439                 1.4832                 1.5144
 IR Inten    --      5.9028                 3.5071                 2.3608

                     40                     41                     42
                      A                      A                      A
 Frequencies --   1512.7454              1834.5052              3054.1912
 Red. masses --      1.2454                11.5717                 1.0600
 Frc consts  --      1.6792                22.9448                 5.8254
 IR Inten    --      8.1481               195.8013                50.1436

                     43                     44                     45
                      A                      A                      A
 Frequencies --   3056.9878              3069.2893              3107.1624
 Red. masses --      1.0364                 1.0591                 1.1067
 Frc consts  --      5.7062                 5.8784                 6.2952
 IR Inten    --      2.1398                30.5531                 4.7348

                     46                     47                     48
                      A                      A                      A
 Frequencies --   3107.6984              3121.5550              3126.9592
 Red. masses --      1.0573                 1.0992                 1.1072
 Frc consts  --      6.0164                 6.3106                 6.3786
 IR Inten    --     14.3034                 4.5542                31.2824

                     49                     50                     51
                      A                      A                      A
 Frequencies --   3169.4807              3192.2313              3206.7033
 Red. masses --      1.1028                 1.0960                 1.1105
 Frc consts  --      6.5273                 6.5802                 6.7280
 IR Inten    --      7.2550                 9.1676                11.2780

 - Thermochemistry -
 -------------------
 Temperature   298.150 Kelvin.  Pressure   1.00000 Atm.
 Atom     1 has atomic number  6 and mass  12.00000

 Molecular mass:   126.06808 amu.
 Principal axes and moments of inertia in atomic units:
                           1         2         3
     Eigenvalues --   460.420141723.379941788.47581
           X            0.99976  -0.01910  -0.01078
           Y            0.01745   0.99048  -0.13655
           Z            0.01329   0.13633   0.99057
 This molecule is an asymmetric top.
 Rotational symmetry number  1.
 Warning -- assumption of classical behavior for rotation
           may cause significant error
 Rotational temperatures (Kelvin)      0.18812     0.05026     0.04843
 Rotational constants (GHZ):           3.91977     1.04721     1.00909
 Zero-point vibrational energy     414413.8 (Joules/Mol)
                                   99.04726 (Kcal/Mol)
 Warning -- explicit consideration of  11 degrees of freedom as
           vibrations may cause significant error
 Vibrational temperatures:     74.62    96.76   143.30   197.77   341.94
          (Kelvin)            470.47   523.09   588.50   630.89   820.46
                              876.52   979.56  1069.54  1135.01  1203.94
                             1295.16  1334.13  1349.18  1373.02  1397.31
                             1459.78  1479.95  1490.93  1529.80  1559.80
                             1608.76  1654.39  1749.81  1760.83  1778.45
                             1797.66  1815.70  1878.91  1985.83  2007.68
                             2114.12  2123.15  2131.10  2133.74  2176.50
                             2639.44  4394.29  4398.32  4416.02  4470.51
                             4471.28  4491.22  4498.99  4560.17  4592.90
                             4613.72

 Zero-point correction=                           0.157842 (Hartree/Particle)
 Thermal correction to Energy=                    0.166777
 Thermal correction to Enthalpy=                  0.167721
 Thermal correction to Gibbs Free Energy=         0.123190
 Sum of electronic and zero-point Energies=           -423.034317
 Sum of electronic and thermal Energies=              -423.025382
 Sum of electronic and thermal Enthalpies=            -423.024438
 Sum of electronic and thermal Free Energies=         -423.068969

                     E (Thermal)             CV                S
                      KCal/Mol        Cal/Mol-Kelvin    Cal/Mol-Kelvin
 Total                  104.654             32.654             93.724
 Electronic               0.000              0.000              0.000
 Translational            0.889              2.981             40.409
 Rotational               0.889              2.981             28.741
 Vibrational            102.877             26.693             24.574
 Vibration     1          0.596              1.977              4.745
 Vibration     2          0.598              1.970              4.232
 Vibration     3          0.604              1.949              3.462
 Vibration     4          0.614              1.916              2.839
 Vibration     5          0.656              1.783              1.820
 Vibration     6          0.711              1.622              1.275
 Vibration     7          0.737              1.547              1.107
 Vibration     8          0.773              1.451              0.930
 Vibration     9          0.799              1.386              0.831
 Vibration    10          0.926              1.096              0.504
 Vibration    11          0.968              1.012              0.434

 Optimization completed.
    -- Stationary point found.
 Normal termination of Gaussian 09 at Mon Jan 27 14:57:01 2020.
