 Gaussian 09, Revision D.01,
 Gaussian 09:  ES64L-G09RevD.01 24-Apr-2013

 -----------------------------
 # b3lyp 6-31G(2df,p) opt Freq
 -----------------------------

 -----
 titel
 -----
 Symbolic Z-matrix:
 Charge =  0 Multiplicity = 1

 SCF Done:  E(RB3LYP) =  -423.162760787     A.U. after   13 cycles
 Optimization completed.
    -- Stationary point found.
 Normal termination of Gaussian 09 at Mon Jan 27 23:06:09 2020.

 ----------------------------------------------------------------------
 #N Geom=AllCheck Guess=TCheck SCRF=Check GenChk RB3LYP/6-31G(2df,p) Fr
 eq
 ----------------------------------------------------------------------

 Structure from the checkpoint file:  "/scratch/puck/g09_68370b86-669d-4a0a-b2c7-e30d4f80d32c/Gau-103139.chk"
 -----
 titel
 -----
 Charge =  0 Multiplicity = 1

                         Standard orientation:
 ---------------------------------------------------------------------
 Center     Atomic      Atomic             Coordinates (Angstroms)
 Number     Number       Type             X           Y           Z
 ---------------------------------------------------------------------
      1          8           0        2.097526   -0.938836    0.258423
      2          6           0        0.980365   -0.622887   -0.555727
      3          6           0        0.799342    0.888443   -0.675312
      4          8           0        0.698390    1.584885    0.580397
      5          6           0       -0.484185    1.443141   -0.221354
      6          6           0       -1.529194    0.426355    0.224881
      7          6           0       -0.884560   -0.595614    1.198041
      8          6           0       -0.316862   -1.298049   -0.067342
      9          6           0       -1.541834   -0.718380   -0.836444
     10          1           0        2.041459   -0.365599    1.032577
     11          1           0        1.216751   -1.017787   -1.551769
     12          1           0        1.405145    1.406176   -1.416624
     13          1           0       -0.845130    2.378090   -0.646525
     14          1           0       -2.471169    0.901445    0.505157
     15          1           0       -0.192021   -0.216388    1.949512
     16          1           0       -1.648311   -1.211139    1.679560
     17          1           0       -0.178679   -2.380675   -0.038512
     18          1           0       -1.412287   -0.441504   -1.887727
     19          1           0       -2.421526   -1.359063   -0.736662
 ---------------------------------------------------------------------

 SCF Done:  E(RB3LYP) =  -423.162760787     A.U. after    1 cycles

 The electronic state is 1-A.
 Alpha  occ. eigenvalues --  -19.15646 -19.13178 -10.24114 -10.23487 -10.23429
 Alpha  occ. eigenvalues --  -10.19712 -10.18929 -10.18910 -10.18268  -1.07608
 Alpha  occ. eigenvalues --   -1.01370  -0.86407  -0.73277  -0.70044  -0.66079
 Alpha  occ. eigenvalues --   -0.61619  -0.59817  -0.54846  -0.51613  -0.49415
 Alpha  occ. eigenvalues --   -0.47191  -0.44828  -0.44021  -0.42199  -0.40412
 Alpha  occ. eigenvalues --   -0.37261  -0.36041  -0.34449  -0.33868  -0.31702
 Alpha  occ. eigenvalues --   -0.30625  -0.28372  -0.28016  -0.25714
 Alpha virt. eigenvalues --    0.07747   0.08097   0.08680   0.11602   0.12122
 Alpha virt. eigenvalues --    0.13265   0.14499   0.15429   0.16649   0.17057
 Alpha virt. eigenvalues --    0.17721   0.18996   0.19384   0.21406   0.22920

 Mulliken charges:
               1
     1  O   -0.445560
     2  C    0.127343
     3  C   -0.007090
     4  O   -0.265239
     5  C    0.053061
     6  C   -0.053228
     7  C   -0.230971
     8  C   -0.043138
     9  C   -0.239007
    10  H    0.292733
    11  H    0.085987
    12  H    0.098352
    13  H    0.095004
    14  H    0.064476
    15  H    0.104973
    16  H    0.096945
    17  H    0.070433
    18  H    0.092218
    19  H    0.102709
 Sum of Mulliken charges =   0.00000

 Dipole moment (field-independent basis, Debye):
    X=             -2.0063    Y=              0.2437    Z=             -0.9314  Tot=              2.2253
 Quadrupole moment (field-independent basis, Debye-Ang):
   XX=            -55.3966   YY=            -54.8661   ZZ=            -51.1286
   XY=              1.4107   XZ=             -0.5607   YZ=             -1.9240

  Exact polarizability:  77.672  -0.590  72.600  -1.681  -0.698  68.344
 Approx polarizability: 112.986  -3.014 105.379   0.499   3.402 107.703

                      1                      2                      3
                      A                      A                      A
 Frequencies --    147.8266               231.8283               323.0048
 Red. masses --      4.3527                 4.5358                 2.9668
 Frc consts  --      0.0560                 0.1436                 0.1824
 IR Inten    --      3.4055                 3.2827                 1.7430

                      4                      5                      6
                      A                      A                      A
 Frequencies --    378.8492               401.5919               409.0925
 Red. masses --      1.1183                 3.1638                 3.0809
 Frc consts  --      0.0946                 0.3006                 0.3038
 IR Inten    --     78.4734                 2.5256                 0.6500

                      7                      8                      9
                      A                      A                      A
 Frequencies --    456.3622               527.8593               598.3010
 Red. masses --      4.0269                 3.2557                 3.4717
 Frc consts  --      0.4941                 0.5345                 0.7322
 IR Inten    --     13.1129                 6.2589                 2.3496

                     10                     11                     12
                      A                      A                      A
 Frequencies --    693.3086               755.9486               806.6445
 Red. masses --      3.4175                 3.7673                 2.6617
 Frc consts  --      0.9679                 1.2684                 1.0204
 IR Inten    --     19.0158                 4.3010                 1.5559

                     13                     14                     15
                      A                      A                      A
 Frequencies --    822.7081               852.1952               902.5621
 Red. masses --      1.7719                 3.1528                 2.2191
 Frc consts  --      0.7066                 1.3490                 1.0651
 IR Inten    --      1.3692                 9.9870                 8.2840

                     16                     17                     18
                      A                      A                      A
 Frequencies --    908.7798               919.1122               955.1261
 Red. masses --      2.7720                 3.6093                 2.2493
 Frc consts  --      1.3489                 1.7964                 1.2090
 IR Inten    --     14.8130                 1.6134                14.1821

                     19                     20                     21
                      A                      A                      A
 Frequencies --    976.4252              1003.9231              1066.3852
 Red. masses --      2.6150                 1.9461                 2.3162
 Frc consts  --      1.4689                 1.1556                 1.5519
 IR Inten    --      7.5002                 0.9313                45.7506

                     22                     23                     24
                      A                      A                      A
 Frequencies --   1069.9931              1090.5517              1101.0742
 Red. masses --      1.4265                 1.4573                 3.0578
 Frc consts  --      0.9623                 1.0212                 2.1842
 IR Inten    --     15.6112                35.9514                32.9015

                     25                     26                     27
                      A                      A                      A
 Frequencies --   1114.1369              1134.5209              1144.6670
 Red. masses --      1.3642                 1.1627                 1.5093
 Frc consts  --      0.9977                 0.8817                 1.1652
 IR Inten    --      2.9703                 1.1800                 0.9799

                     28                     29                     30
                      A                      A                      A
 Frequencies --   1152.8507              1246.0782              1255.7751
 Red. masses --      1.3742                 1.3337                 1.4486
 Frc consts  --      1.0761                 1.2201                 1.3459
 IR Inten    --      3.0367                 1.6226                10.4983

                     31                     32                     33
                      A                      A                      A
 Frequencies --   1263.6769              1279.4838              1283.6249
 Red. masses --      1.5027                 1.5585                 1.4319
 Frc consts  --      1.4139                 1.5033                 1.3900
 IR Inten    --      2.6142                12.1363                 0.9967

                     34                     35                     36
                      A                      A                      A
 Frequencies --   1319.6198              1341.8564              1361.0788
 Red. masses --      1.7236                 1.5517                 1.4779
 Frc consts  --      1.7684                 1.6461                 1.6131
 IR Inten    --      0.9715                 0.8120                 0.8114

                     37                     38                     39
                      A                      A                      A
 Frequencies --   1374.0000              1431.6473              1447.6803
 Red. masses --      1.3400                 1.2947                 2.7569
 Frc consts  --      1.4904                 1.5635                 3.4042
 IR Inten    --      5.2957                53.8913                19.5713

                     40                     41                     42
                      A                      A                      A
 Frequencies --   1478.3590              1508.9200              3034.6657
 Red. masses --      1.0895                 1.1619                 1.0844
 Frc consts  --      1.4030                 1.5587                 5.8841
 IR Inten    --      5.6052                 4.0866                20.6049

                     43                     44                     45
                      A                      A                      A
 Frequencies --   3046.8788              3069.5676              3087.0639
 Red. masses --      1.0591                 1.0627                 1.0867
 Frc consts  --      5.7927                 5.8997                 6.1019
 IR Inten    --     44.3042                21.3990                54.2288

                     46                     47                     48
                      A                      A                      A
 Frequencies --   3090.3263              3107.8447              3122.2467
 Red. masses --      1.0892                 1.1040                 1.0867
 Frc consts  --      6.1286                 6.2828                 6.2414
 IR Inten    --     20.6643                41.5892                28.4080

                     49                     50                     51
                      A                      A                      A
 Frequencies --   3133.4720              3135.1270              3786.9244
 Red. masses --      1.0968                 1.1015                 1.0656
 Frc consts  --      6.3452                 6.3787                 9.0037
 IR Inten    --     34.1747                24.3206                19.9696

 - Thermochemistry -
 -------------------
 Temperature   298.150 Kelvin.  Pressure   1.00000 Atm.
 Atom     1 has atomic number  8 and mass  15.99491

 Molecular mass:   126.06808 amu.
 Principal axes and moments of inertia in atomic units:
                           1         2         3
     Eigenvalues --   730.60348 900.045591206.16308
           X            0.99892   0.04556  -0.00877
           Y           -0.04579   0.99857  -0.02773
           Z            0.00749   0.02810   0.99958
 This molecule is an asymmetric top.
 Rotational symmetry number  1.
 Warning -- assumption of classical behavior for rotation
           may cause significant error
 Rotational temperatures (Kelvin)      0.11855     0.09623     0.07181
 Rotational constants (GHZ):           2.47021     2.00517     1.49627
 Zero-point vibrational energy     425580.8 (Joules/Mol)
                                  101.71624 (Kcal/Mol)
 Warning -- explicit consideration of   9 degrees of freedom as
           vibrations may cause significant error
 Vibrational temperatures:    212.69   333.55   464.73   545.08   577.80
          (Kelvin)            588.59   656.60   759.47   860.82   997.52
                             1087.64  1160.58  1183.69  1226.12  1298.58
                             1307.53  1322.40  1374.21  1404.86  1444.42
                             1534.29  1539.48  1569.06  1584.20  1602.99
                             1632.32  1646.92  1658.69  1792.83  1806.78
                             1818.15  1840.89  1846.85  1898.64  1930.63
                             1958.29  1976.88  2059.82  2082.89  2127.03
                             2171.00  4366.20  4383.77  4416.42  4441.59
                             4446.28  4471.49  4492.21  4508.36  4510.74
                             5448.53

 Zero-point correction=                           0.162095 (Hartree/Particle)
 Thermal correction to Energy=                    0.169057
 Thermal correction to Enthalpy=                  0.170001
 Thermal correction to Gibbs Free Energy=         0.131136
 Sum of electronic and zero-point Energies=           -423.000666
 Sum of electronic and thermal Energies=              -422.993704
 Sum of electronic and thermal Enthalpies=            -422.992760
 Sum of electronic and thermal Free Energies=         -423.031625

                     E (Thermal)             CV                S
                      KCal/Mol        Cal/Mol-Kelvin    Cal/Mol-Kelvin
 Total                  106.085             29.205             81.799
 Electronic               0.000              0.000              0.000
 Translational            0.889              2.981             40.409
 Rotational               0.889              2.981             28.163
 Vibrational            104.307             23.243             13.227
 Vibration     1          0.617              1.905              2.700
 Vibration     2          0.653              1.792              1.865
 Vibration     3          0.708              1.629              1.295
 Vibration     4          0.749              1.515              1.044
 Vibration     5          0.767              1.467              0.957
 Vibration     6          0.773              1.450              0.930
 Vibration     7          0.815              1.347              0.777
 Vibration     8          0.883              1.188              0.592
 Vibration     9          0.956              1.035              0.453

 Optimization completed.
    -- Stationary point found.
 Normal termination of Gaussian 09 at Mon Jan 27 23:54:29 2020.
