 Gaussian 09, Revision D.01,
 Gaussian 09:  ES64L-G09RevD.01 24-Apr-2013

 -----------------------------
 # b3lyp 6-31G(2df,p) opt Freq
 -----------------------------

 -----
 titel
 -----
 Symbolic Z-matrix:
 Charge =  0 Multiplicity = 1

 SCF Done:  E(RB3LYP) =  -423.188471126     A.U. after   14 cycles
 Optimization completed.
    -- Stationary point found.
 Normal termination of Gaussian 09 at Mon Jan 27 23:03:33 2020.

 ----------------------------------------------------------------------
 #N Geom=AllCheck Guess=TCheck SCRF=Check GenChk RB3LYP/6-31G(2df,p) Fr
 eq
 ----------------------------------------------------------------------

 Structure from the checkpoint file:  "/scratch/puck/g09_7172cd90-0ae8-41c6-8145-b9d20db780ff/Gau-128735.chk"
 -----
 titel
 -----
 Charge =  0 Multiplicity = 1

                         Standard orientation:
 ---------------------------------------------------------------------
 Center     Atomic      Atomic             Coordinates (Angstroms)
 Number     Number       Type             X           Y           Z
 ---------------------------------------------------------------------
      1          8           0       -0.266156    2.003816    0.124233
      2          6           0       -0.181741    0.832182   -0.638637
      3          6           0       -1.471129   -0.014459   -0.766043
      4          6           0       -0.518572   -1.222235   -1.027324
      5          6           0        0.382734   -0.468845    0.002624
      6          6           0       -0.462458   -0.584591    1.299388
      7          6           0       -1.866848   -0.233687    0.706218
      8          6           0        1.849526   -0.685594    0.128362
      9          8           0        2.663627    0.205334    0.041017
     10          1           0        0.632285    2.332763    0.239912
     11          1           0        0.282541    1.014477   -1.615995
     12          1           0       -2.258069    0.251186   -1.471367
     13          1           0       -0.877710   -2.216539   -0.752859
     14          1           0       -0.099411   -1.232347   -2.035784
     15          1           0       -0.413975   -1.586821    1.733901
     16          1           0       -0.138110    0.138781    2.049717
     17          1           0       -2.588624   -1.046639    0.820806
     18          1           0       -2.281860    0.669101    1.157114
     19          1           0        2.174097   -1.733793    0.325024
 ---------------------------------------------------------------------

 SCF Done:  E(RB3LYP) =  -423.188471126     A.U. after    1 cycles

 The electronic state is 1-A.
 Alpha  occ. eigenvalues --  -19.14217 -19.14069 -10.27096 -10.23519 -10.20153
 Alpha  occ. eigenvalues --  -10.19747 -10.19659 -10.19190 -10.18450  -1.04732
 Alpha  occ. eigenvalues --   -1.02660  -0.89302  -0.73309  -0.72253  -0.65762
 Alpha  occ. eigenvalues --   -0.61867  -0.55687  -0.54938  -0.52118  -0.50160
 Alpha  occ. eigenvalues --   -0.47361  -0.44834  -0.43163  -0.40024  -0.39519
 Alpha  occ. eigenvalues --   -0.37590  -0.37037  -0.35983  -0.34199  -0.33583
 Alpha  occ. eigenvalues --   -0.31483  -0.30601  -0.26841  -0.25027
 Alpha virt. eigenvalues --   -0.02758   0.08053   0.09781   0.11310   0.12834
 Alpha virt. eigenvalues --    0.13344   0.14021   0.14664   0.15871   0.16428
 Alpha virt. eigenvalues --    0.17412   0.18505   0.20612   0.21621   0.22097

 Mulliken charges:
               1
     1  O   -0.445159
     2  C    0.130623
     3  C   -0.062064
     4  C   -0.291853
     5  C    0.209375
     6  C   -0.255548
     7  C   -0.210053
     8  C    0.034071
     9  O   -0.265116
    10  H    0.294417
    11  H    0.075889
    12  H    0.068998
    13  H    0.102538
    14  H    0.109116
    15  H    0.099145
    16  H    0.115728
    17  H    0.095693
    18  H    0.120234
    19  H    0.073967
 Sum of Mulliken charges =   0.00000

 Dipole moment (field-independent basis, Debye):
    X=             -1.1833    Y=             -1.6731    Z=             -0.2201  Tot=              2.0611
 Quadrupole moment (field-independent basis, Debye-Ang):
   XX=            -59.8000   YY=            -52.0958   ZZ=            -51.5238
   XY=              0.7727   XZ=              0.4660   YZ=             -0.2409

  Exact polarizability:  83.212   2.267  74.972  -0.072  -0.287  67.981
 Approx polarizability: 119.797   8.453 116.013  -0.370   0.301 100.917

                      1                      2                      3
                      A                      A                      A
 Frequencies --     64.6575               135.8086               239.6467
 Red. masses --      4.5007                 5.4741                 2.9161
 Frc consts  --      0.0111                 0.0595                 0.0987
 IR Inten    --      6.0464                 9.4855                 1.1689

                      4                      5                      6
                      A                      A                      A
 Frequencies --    265.2790               280.7858               350.3783
 Red. masses --      1.9847                 2.7030                 1.3003
 Frc consts  --      0.0823                 0.1256                 0.0941
 IR Inten    --      2.0157                 1.1258                74.0633

                      7                      8                      9
                      A                      A                      A
 Frequencies --    384.6084               438.6355               476.2471
 Red. masses --      2.4756                 2.1415                 3.0719
 Frc consts  --      0.2158                 0.2428                 0.4105
 IR Inten    --     44.0021                 2.2515                 1.0029

                     10                     11                     12
                      A                      A                      A
 Frequencies --    603.7159               675.0505               761.3040
 Red. masses --      4.2599                 4.1291                 3.5680
 Frc consts  --      0.9148                 1.1086                 1.2184
 IR Inten    --     13.3035                11.7723                14.5469

                     13                     14                     15
                      A                      A                      A
 Frequencies --    803.0684               827.9045               850.6228
 Red. masses --      2.5282                 3.1675                 1.5316
 Frc consts  --      0.9607                 1.2792                 0.6529
 IR Inten    --      0.3663                 3.1774                 4.8638

                     16                     17                     18
                      A                      A                      A
 Frequencies --    890.1322               911.6275               924.9232
 Red. masses --      2.5763                 1.9867                 2.7082
 Frc consts  --      1.2027                 0.9728                 1.3651
 IR Inten    --      2.7062                 7.6536                 0.8142

                     19                     20                     21
                      A                      A                      A
 Frequencies --    954.9775               987.5519              1002.7483
 Red. masses --      2.0333                 1.8423                 1.4963
 Frc consts  --      1.0925                 1.0586                 0.8865
 IR Inten    --      2.2412                 2.2777                 0.0441

                     22                     23                     24
                      A                      A                      A
 Frequencies --   1047.2398              1091.1556              1137.0655
 Red. masses --      1.4722                 1.5762                 1.5939
 Frc consts  --      0.9513                 1.1057                 1.2142
 IR Inten    --     17.5233                 7.4014                 0.8266

                     25                     26                     27
                      A                      A                      A
 Frequencies --   1152.2146              1167.4572              1170.5190
 Red. masses --      1.4448                 4.7406                 1.8646
 Frc consts  --      1.1301                 3.8068                 1.5052
 IR Inten    --      6.7070                94.4972                15.3736

                     28                     29                     30
                      A                      A                      A
 Frequencies --   1198.4038              1227.1499              1248.9955
 Red. masses --      1.5481                 1.4680                 1.3191
 Frc consts  --      1.3100                 1.3025                 1.2124
 IR Inten    --      3.8299                 7.9966                 2.8673

                     31                     32                     33
                      A                      A                      A
 Frequencies --   1265.8003              1280.6776              1301.6248
 Red. masses --      1.4538                 1.6100                 1.6084
 Frc consts  --      1.3724                 1.5558                 1.6055
 IR Inten    --      7.9702                 9.2567                24.9964

                     34                     35                     36
                      A                      A                      A
 Frequencies --   1330.5380              1350.7226              1422.4472
 Red. masses --      1.5041                 1.9726                 1.2934
 Frc consts  --      1.5688                 2.1204                 1.5419
 IR Inten    --      6.7890                27.8789                11.6329

                     37                     38                     39
                      A                      A                      A
 Frequencies --   1435.6498              1481.8475              1491.0689
 Red. masses --      1.3448                 1.0838                 1.1001
 Frc consts  --      1.6330                 1.4022                 1.4410
 IR Inten    --      1.5813                 0.9646                 2.5374

                     40                     41                     42
                      A                      A                      A
 Frequencies --   1515.4053              1801.5177              2861.8802
 Red. masses --      1.1424                10.5947                 1.0821
 Frc consts  --      1.5458                20.2590                 5.2219
 IR Inten    --      5.1306               170.7218               129.7819

                     43                     44                     45
                      A                      A                      A
 Frequencies --   3028.8046              3061.3642              3066.8650
 Red. masses --      1.0843                 1.0609                 1.0571
 Frc consts  --      5.8607                 5.8580                 5.8582
 IR Inten    --     38.7373                23.3708                33.4948

                     46                     47                     48
                      A                      A                      A
 Frequencies --   3071.4304              3112.3598              3122.0690
 Red. masses --      1.0609                 1.1040                 1.0911
 Frc consts  --      5.8969                 6.3011                 6.2663
 IR Inten    --     35.4464                 0.6378                42.7377

                     49                     50                     51
                      A                      A                      A
 Frequencies --   3127.6550              3130.3281              3808.3793
 Red. masses --      1.1073                 1.1067                 1.0659
 Frc consts  --      6.3822                 6.3894                 9.1083
 IR Inten    --     18.9497                35.0477                38.5600

 - Thermochemistry -
 -------------------
 Temperature   298.150 Kelvin.  Pressure   1.00000 Atm.
 Atom     1 has atomic number  8 and mass  15.99491

 Molecular mass:   126.06808 amu.
 Principal axes and moments of inertia in atomic units:
                           1         2         3
     Eigenvalues --   694.939041160.156411352.82644
           X            0.99992   0.01107  -0.00651
           Y           -0.01111   0.99991  -0.00749
           Z            0.00643   0.00756   0.99995
 This molecule is an asymmetric top.
 Rotational symmetry number  1.
 Warning -- assumption of classical behavior for rotation
           may cause significant error
 Rotational temperatures (Kelvin)      0.12464     0.07466     0.06402
 Rotational constants (GHZ):           2.59698     1.55560     1.33405
 Zero-point vibrational energy     420716.5 (Joules/Mol)
                                  100.55366 (Kcal/Mol)
 Warning -- explicit consideration of  10 degrees of freedom as
           vibrations may cause significant error
 Vibrational temperatures:     93.03   195.40   344.80   381.68   403.99
          (Kelvin)            504.12   553.37   631.10   685.21   868.61
                              971.25  1095.35  1155.43  1191.17  1223.86
                             1280.70  1311.63  1330.76  1374.00  1420.87
                             1442.73  1506.74  1569.93  1635.98  1657.78
                             1679.71  1684.11  1724.23  1765.59  1797.02
                             1821.20  1842.61  1872.75  1914.34  1943.39
                             2046.58  2065.58  2132.05  2145.31  2180.33
                             2591.98  4117.60  4357.77  4404.61  4412.53
                             4419.10  4477.99  4491.96  4499.99  4503.84
                             5479.40

 Zero-point correction=                           0.160242 (Hartree/Particle)
 Thermal correction to Energy=                    0.168288
 Thermal correction to Enthalpy=                  0.169232
 Thermal correction to Gibbs Free Energy=         0.127560
 Sum of electronic and zero-point Energies=           -423.028229
 Sum of electronic and thermal Energies=              -423.020184
 Sum of electronic and thermal Enthalpies=            -423.019239
 Sum of electronic and thermal Free Energies=         -423.060911

                     E (Thermal)             CV                S
                      KCal/Mol        Cal/Mol-Kelvin    Cal/Mol-Kelvin
 Total                  105.602             31.243             87.706
 Electronic               0.000              0.000              0.000
 Translational            0.889              2.981             40.409
 Rotational               0.889              2.981             28.480
 Vibrational            103.825             25.281             18.817
 Vibration     1          0.597              1.971              4.310
 Vibration     2          0.614              1.918              2.862
 Vibration     3          0.657              1.780              1.806
 Vibration     4          0.671              1.737              1.627
 Vibration     5          0.680              1.709              1.529
 Vibration     6          0.727              1.574              1.164
 Vibration     7          0.754              1.503              1.021
 Vibration     8          0.799              1.386              0.831
 Vibration     9          0.833              1.303              0.720
 Vibration    10          0.962              1.024              0.443

 Optimization completed.
    -- Stationary point found.
 Normal termination of Gaussian 09 at Mon Jan 27 23:47:11 2020.
