 Gaussian 09, Revision D.01,
 Gaussian 09:  ES64L-G09RevD.01 24-Apr-2013

 -----------------------------
 # b3lyp 6-31G(2df,p) opt Freq
 -----------------------------

 -----
 titel
 -----
 Symbolic Z-matrix:
 Charge =  0 Multiplicity = 1

 SCF Done:  E(RB3LYP) =  -423.207991446     A.U. after   14 cycles
 Optimization completed.
    -- Stationary point found.
 Normal termination of Gaussian 09 at Mon Jan 27 22:03:25 2020.

 ----------------------------------------------------------------------
 #N Geom=AllCheck Guess=TCheck SCRF=Check GenChk RB3LYP/6-31G(2df,p) Fr
 eq
 ----------------------------------------------------------------------

 Structure from the checkpoint file:  "/scratch/puck/g09_a83052a4-f063-464e-a57b-b47925b2e7a8/Gau-53236.chk"
 -----
 titel
 -----
 Charge =  0 Multiplicity = 1

                         Standard orientation:
 ---------------------------------------------------------------------
 Center     Atomic      Atomic             Coordinates (Angstroms)
 Number     Number       Type             X           Y           Z
 ---------------------------------------------------------------------
      1          6           0        2.679525    0.650052   -0.442812
      2          6           0        1.368932    0.027772   -0.084326
      3          6           0        0.212487    0.611959    0.243281
      4          6           0       -0.142009    2.057852    0.366701
      5          6           0       -0.813646   -0.470817    0.527940
      6          8           0       -0.132651   -1.704766    0.383125
      7          6           0        1.217174   -1.469384   -0.013260
      8          6           0       -1.961594   -0.395225   -0.479079
      9          8           0       -2.859227    0.404201   -0.420305
     10          1           0        3.016176    0.316795   -1.432658
     11          1           0        2.627489    1.740868   -0.455011
     12          1           0        3.462479    0.357401    0.268287
     13          1           0       -1.044016    2.293257   -0.207781
     14          1           0       -0.364742    2.315709    1.409989
     15          1           0        0.667728    2.706735    0.025133
     16          1           0       -1.242948   -0.378839    1.538324
     17          1           0        1.903754   -1.920028    0.721369
     18          1           0        1.414954   -1.960190   -0.979408
     19          1           0       -1.871069   -1.140439   -1.301475
 ---------------------------------------------------------------------

 SCF Done:  E(RB3LYP) =  -423.207991446     A.U. after    1 cycles

 The electronic state is 1-A.
 Alpha  occ. eigenvalues --  -19.14630 -19.14308 -10.26913 -10.24197 -10.23612
 Alpha  occ. eigenvalues --  -10.19865 -10.19706 -10.19535 -10.18846  -1.05417
 Alpha  occ. eigenvalues --   -1.04196  -0.82393  -0.77323  -0.71671  -0.69225
 Alpha  occ. eigenvalues --   -0.63373  -0.57640  -0.53327  -0.49301  -0.48135
 Alpha  occ. eigenvalues --   -0.45981  -0.44358  -0.43760  -0.42374  -0.41878
 Alpha  occ. eigenvalues --   -0.40358  -0.40032  -0.38551  -0.37636  -0.34886
 Alpha  occ. eigenvalues --   -0.32243  -0.27996  -0.26594  -0.22610
 Alpha virt. eigenvalues --   -0.02998   0.02381   0.08085   0.10723   0.11393
 Alpha virt. eigenvalues --    0.13494   0.13986   0.15249   0.15854   0.16730
 Alpha virt. eigenvalues --    0.17206   0.17728   0.18455   0.21906   0.22217

 Mulliken charges:
               1
     1  C   -0.497924
     2  C    0.183866
     3  C    0.179834
     4  C   -0.501095
     5  C   -0.037257
     6  O   -0.275428
     7  C   -0.155467
     8  C    0.129373
     9  O   -0.244782
    10  H    0.132976
    11  H    0.132232
    12  H    0.133091
    13  H    0.154256
    14  H    0.134126
    15  H    0.124449
    16  H    0.106344
    17  H    0.105874
    18  H    0.105781
    19  H    0.089749
 Sum of Mulliken charges =   0.00000

 Dipole moment (field-independent basis, Debye):
    X=              3.0948    Y=              0.4241    Z=             -0.0820  Tot=              3.1248
 Quadrupole moment (field-independent basis, Debye-Ang):
   XX=            -57.6867   YY=            -54.2604   ZZ=            -52.2177
   XY=              1.7587   XZ=             -1.7581   YZ=              1.7381

  Exact polarizability: 100.336  -9.244  79.027  -4.591   4.782  60.818
 Approx polarizability: 145.576 -21.985 114.948  -9.916   7.370  93.075

                      1                      2                      3
                      A                      A                      A
 Frequencies --     67.9151                96.4829               134.5818
 Red. masses --      4.7982                 3.3820                 1.0240
 Frc consts  --      0.0130                 0.0185                 0.0109
 IR Inten    --      2.2812                10.3758                 0.5577

                      4                      5                      6
                      A                      A                      A
 Frequencies --    159.2951               162.5365               203.9061
 Red. masses --      1.0486                 2.2791                 2.5858
 Frc consts  --      0.0157                 0.0355                 0.0633
 IR Inten    --      0.0694                 0.7544                 4.7223

                      7                      8                      9
                      A                      A                      A
 Frequencies --    274.9871               286.1924               362.1274
 Red. masses --      2.5794                 3.0636                 3.3276
 Frc consts  --      0.1149                 0.1478                 0.2571
 IR Inten    --      0.0276                 0.3041                15.3541

                     10                     11                     12
                      A                      A                      A
 Frequencies --    376.4065               471.3187               559.8476
 Red. masses --      3.1738                 5.4273                 2.9133
 Frc consts  --      0.2649                 0.7103                 0.5380
 IR Inten    --      6.8006                 1.1142                10.9696

                     13                     14                     15
                      A                      A                      A
 Frequencies --    614.2483               639.1087               823.2027
 Red. masses --      4.3349                 5.1170                 4.5117
 Frc consts  --      0.9636                 1.2314                 1.8014
 IR Inten    --      2.8041                 5.2024                15.3732

                     16                     17                     18
                      A                      A                      A
 Frequencies --    889.2696               964.0482               975.0920
 Red. masses --      2.1636                 1.3656                 1.8812
 Frc consts  --      1.0081                 0.7478                 1.0538
 IR Inten    --      2.9207                 2.6316                 1.3250

                     19                     20                     21
                      A                      A                      A
 Frequencies --    984.3123              1014.3609              1053.3963
 Red. masses --      2.5856                 1.4925                 2.6981
 Frc consts  --      1.4760                 0.9048                 1.7639
 IR Inten    --     10.0130                 4.7202                17.6783

                     22                     23                     24
                      A                      A                      A
 Frequencies --   1079.8884              1094.5773              1101.0013
 Red. masses --      1.8302                 1.8076                 7.0129
 Frc consts  --      1.2575                 1.2760                 5.0086
 IR Inten    --      4.6584                 2.6453                90.9901

                     25                     26                     27
                      A                      A                      A
 Frequencies --   1153.4242              1194.3605              1198.6849
 Red. masses --      2.8902                 1.8485                 1.3405
 Frc consts  --      2.2654                 1.5536                 1.1348
 IR Inten    --      0.6751                 2.0353                 1.9800

                     28                     29                     30
                      A                      A                      A
 Frequencies --   1253.8591              1285.9994              1315.0802
 Red. masses --      1.6503                 1.8499                 1.5436
 Frc consts  --      1.5286                 1.8025                 1.5729
 IR Inten    --      7.7741                 0.7094                11.4210

                     31                     32                     33
                      A                      A                      A
 Frequencies --   1382.5303              1389.4434              1414.6050
 Red. masses --      1.3890                 1.3594                 1.4168
 Frc consts  --      1.5642                 1.5463                 1.6704
 IR Inten    --      0.6334                 7.2543                 0.3531

                     34                     35                     36
                      A                      A                      A
 Frequencies --   1424.6181              1476.4089              1480.8130
 Red. masses --      1.2424                 1.0436                 1.0430
 Frc consts  --      1.4857                 1.3402                 1.3475
 IR Inten    --      4.2315                 2.0332                10.4800

                     37                     38                     39
                      A                      A                      A
 Frequencies --   1487.2290              1492.2754              1525.3167
 Red. masses --      1.0466                 1.0648                 1.0852
 Frc consts  --      1.3639                 1.3971                 1.4876
 IR Inten    --      3.3762                 6.5214                 1.2752

                     40                     41                     42
                      A                      A                      A
 Frequencies --   1750.9965              1827.0810              2884.9738
 Red. masses --      7.9328                10.8675                 1.0846
 Frc consts  --     14.3301                21.3746                 5.3189
 IR Inten    --      4.8687               168.6270                85.2457

                     43                     44                     45
                      A                      A                      A
 Frequencies --   2971.1060              2981.8193              2989.0767
 Red. masses --      1.0571                 1.0814                 1.1057
 Frc consts  --      5.4979                 5.6651                 5.8204
 IR Inten    --    102.4673                18.9843                48.9013

                     46                     47                     48
                      A                      A                      A
 Frequencies --   3020.9963              3027.7006              3065.1101
 Red. masses --      1.0395                 1.0421                 1.0987
 Frc consts  --      5.5897                 5.6285                 6.0814
 IR Inten    --     38.6647                19.8236                17.4456

                     49                     50                     51
                      A                      A                      A
 Frequencies --   3083.0449              3121.1968              3125.1079
 Red. masses --      1.0927                 1.0989                 1.0984
 Frc consts  --      6.1196                 6.3074                 6.3201
 IR Inten    --      9.8942                 9.7200                22.5969

 - Thermochemistry -
 -------------------
 Temperature   298.150 Kelvin.  Pressure   1.00000 Atm.
 Atom     1 has atomic number  6 and mass  12.00000

 Molecular mass:   126.06808 amu.
 Principal axes and moments of inertia in atomic units:
                           1         2         3
     Eigenvalues --   700.437071351.336981866.84568
           X            0.99986   0.01029  -0.01319
           Y           -0.01001   0.99972   0.02131
           Z            0.01340  -0.02118   0.99969
 This molecule is an asymmetric top.
 Rotational symmetry number  1.
 Warning -- assumption of classical behavior for rotation
           may cause significant error
 Rotational temperatures (Kelvin)      0.12366     0.06409     0.04640
 Rotational constants (GHZ):           2.57659     1.33552     0.96673
 Zero-point vibrational energy     410982.8 (Joules/Mol)
                                   98.22725 (Kcal/Mol)
 Warning -- explicit consideration of  13 degrees of freedom as
           vibrations may cause significant error
 Vibrational temperatures:     97.71   138.82   193.63   229.19   233.85
          (Kelvin)            293.37   395.64   411.77   521.02   541.56
                              678.12   805.49   883.77   919.53  1184.40
                             1279.46  1387.05  1402.94  1416.20  1459.44
                             1515.60  1553.72  1574.85  1584.09  1659.52
                             1718.42  1724.64  1804.02  1850.26  1892.10
                             1989.15  1999.10  2035.30  2049.71  2124.22
                             2130.56  2139.79  2147.05  2194.59  2519.29
                             2628.76  4150.83  4274.75  4290.17  4300.61
                             4346.53  4356.18  4410.00  4435.81  4490.70
                             4496.33

 Zero-point correction=                           0.156535 (Hartree/Particle)
 Thermal correction to Energy=                    0.166214
 Thermal correction to Enthalpy=                  0.167158
 Thermal correction to Gibbs Free Energy=         0.121630
 Sum of electronic and zero-point Energies=           -423.051456
 Sum of electronic and thermal Energies=              -423.041777
 Sum of electronic and thermal Enthalpies=            -423.040833
 Sum of electronic and thermal Free Energies=         -423.086361

                     E (Thermal)             CV                S
                      KCal/Mol        Cal/Mol-Kelvin    Cal/Mol-Kelvin
 Total                  104.301             34.162             95.823
 Electronic               0.000              0.000              0.000
 Translational            0.889              2.981             40.409
 Rotational               0.889              2.981             28.959
 Vibrational            102.524             28.200             26.455
 Vibration     1          0.598              1.970              4.213
 Vibration     2          0.603              1.952              3.524
 Vibration     3          0.613              1.919              2.880
 Vibration     4          0.621              1.892              2.558
 Vibration     5          0.623              1.888              2.520
 Vibration     6          0.640              1.834              2.098
 Vibration     7          0.677              1.720              1.565
 Vibration     8          0.684              1.699              1.496
 Vibration     9          0.736              1.550              1.113
 Vibration    10          0.747              1.520              1.054
 Vibration    11          0.828              1.314              0.734
 Vibration    12          0.915              1.118              0.524
 Vibration    13          0.974              1.002              0.426

 Optimization completed.
    -- Stationary point found.
 Normal termination of Gaussian 09 at Mon Jan 27 22:50:16 2020.
