 Gaussian 09, Revision D.01,
 Gaussian 09:  ES64L-G09RevD.01 24-Apr-2013

 -----------------------------
 # b3lyp 6-31G(2df,p) opt Freq
 -----------------------------

 -----
 titel
 -----
 Symbolic Z-matrix:
 Charge =  0 Multiplicity = 1

 SCF Done:  E(RB3LYP) =  -423.199827641     A.U. after   14 cycles
 Optimization completed.
    -- Stationary point found.
 Normal termination of Gaussian 09 at Mon Jan 27 17:58:22 2020.

 ----------------------------------------------------------------------
 #N Geom=AllCheck Guess=TCheck SCRF=Check GenChk RB3LYP/6-31G(2df,p) Fr
 eq
 ----------------------------------------------------------------------

 Structure from the checkpoint file:  "/scratch/puck/g09_27a49e40-db19-4066-ad91-9b81b96748f6/Gau-61626.chk"
 -----
 titel
 -----
 Charge =  0 Multiplicity = 1

                         Standard orientation:
 ---------------------------------------------------------------------
 Center     Atomic      Atomic             Coordinates (Angstroms)
 Number     Number       Type             X           Y           Z
 ---------------------------------------------------------------------
      1          6           0        0.009708    2.176567   -0.466058
      2          6           0       -0.375034    0.770834   -0.095670
      3          8           0       -1.029059    0.591330    1.176273
      4          6           0       -1.750127    0.255509   -0.020843
      5          6           0       -1.770675   -1.226359   -0.319984
      6          6           0       -0.298344   -1.661258   -0.125809
      7          6           0        0.560492   -0.401084   -0.425780
      8          6           0        1.825350   -0.362767    0.402700
      9          8           0        2.941076   -0.267279   -0.041016
     10          1           0        0.186861    2.257731   -1.543585
     11          1           0       -0.782025    2.875146   -0.185324
     12          1           0        0.929792    2.479430    0.044936
     13          1           0       -2.612790    0.883449   -0.231735
     14          1           0       -2.456010   -1.781630    0.327511
     15          1           0       -2.101165   -1.375758   -1.355043
     16          1           0       -0.141339   -1.966811    0.912336
     17          1           0       -0.016507   -2.503431   -0.760849
     18          1           0        0.846777   -0.344057   -1.481378
     19          1           0        1.642060   -0.425123    1.499737
 ---------------------------------------------------------------------

 SCF Done:  E(RB3LYP) =  -423.199827641     A.U. after    1 cycles

 The electronic state is 1-A.
 Alpha  occ. eigenvalues --  -19.15400 -19.13851 -10.26847 -10.25011 -10.24007
 Alpha  occ. eigenvalues --  -10.20126 -10.19831 -10.19677 -10.19058  -1.07684
 Alpha  occ. eigenvalues --   -1.04489  -0.82537  -0.76545  -0.72834  -0.65964
 Alpha  occ. eigenvalues --   -0.61130  -0.58164  -0.55697  -0.51160  -0.47337
 Alpha  occ. eigenvalues --   -0.46609  -0.44994  -0.43137  -0.41950  -0.41218
 Alpha  occ. eigenvalues --   -0.39524  -0.38313  -0.37503  -0.35596  -0.35290
 Alpha  occ. eigenvalues --   -0.34720  -0.29776  -0.27150  -0.24541
 Alpha virt. eigenvalues --   -0.02326   0.08694   0.09987   0.10412   0.11186
 Alpha virt. eigenvalues --    0.11829   0.13029   0.15203   0.15684   0.16230
 Alpha virt. eigenvalues --    0.17064   0.18399   0.19035   0.19798   0.20206

 Mulliken charges:
               1
     1  C   -0.486774
     2  C    0.384664
     3  O   -0.300409
     4  C   -0.008633
     5  C   -0.246920
     6  C   -0.251645
     7  C   -0.124178
     8  C    0.152783
     9  O   -0.255227
    10  H    0.128694
    11  H    0.133114
    12  H    0.138671
    13  H    0.094663
    14  H    0.115502
    15  H    0.108852
    16  H    0.122222
    17  H    0.113841
    18  H    0.090769
    19  H    0.090012
 Sum of Mulliken charges =   0.00000

 Dipole moment (field-independent basis, Debye):
    X=             -2.7286    Y=             -0.2621    Z=             -1.3190  Tot=              3.0420
 Quadrupole moment (field-independent basis, Debye-Ang):
   XX=            -61.4749   YY=            -49.8886   ZZ=            -54.1775
   XY=              1.1201   XZ=              3.1588   YZ=             -1.4484

  Exact polarizability:  87.915   3.794  74.437  -0.556  -0.705  64.111
 Approx polarizability: 128.169   5.605  98.894  -5.564   0.179 106.415

                      1                      2                      3
                      A                      A                      A
 Frequencies --     55.8848                97.9536               187.0383
 Red. masses --      5.0305                 3.3299                 1.0858
 Frc consts  --      0.0093                 0.0188                 0.0224
 IR Inten    --      5.3931                 2.7488                 0.1205

                      4                      5                      6
                      A                      A                      A
 Frequencies --    225.0030               239.5455               283.1537
 Red. masses --      2.4052                 2.0206                 2.5859
 Frc consts  --      0.0717                 0.0683                 0.1222
 IR Inten    --      3.1072                 2.0847                 0.9652

                      7                      8                      9
                      A                      A                      A
 Frequencies --    350.4668               411.0530               452.5116
 Red. masses --      2.3651                 5.2898                 4.0336
 Frc consts  --      0.1712                 0.5266                 0.4866
 IR Inten    --      0.9376                 4.3320                 8.6219

                     10                     11                     12
                      A                      A                      A
 Frequencies --    493.3130               585.2120               667.5375
 Red. masses --      3.3591                 3.8929                 2.9150
 Frc consts  --      0.4816                 0.7855                 0.7653
 IR Inten    --      8.7987                 5.1597                 4.1087

                     13                     14                     15
                      A                      A                      A
 Frequencies --    718.4713               829.0070               851.4137
 Red. masses --      2.7355                 2.4583                 2.9091
 Frc consts  --      0.8320                 0.9954                 1.2425
 IR Inten    --     11.6972                 2.6680                17.1967

                     16                     17                     18
                      A                      A                      A
 Frequencies --    899.4924               914.6977               927.7049
 Red. masses --      1.9910                 2.6254                 2.3702
 Frc consts  --      0.9491                 1.2942                 1.2019
 IR Inten    --      0.7744                 1.6578                10.0761

                     19                     20                     21
                      A                      A                      A
 Frequencies --    992.1422              1000.6388              1030.9863
 Red. masses --      1.9132                 1.6533                 1.5084
 Frc consts  --      1.1096                 0.9753                 0.9447
 IR Inten    --      1.7344                 5.4227                 1.7517

                     22                     23                     24
                      A                      A                      A
 Frequencies --   1049.0867              1067.2116              1121.2482
 Red. masses --      2.4014                 2.0119                 1.8103
 Frc consts  --      1.5572                 1.3501                 1.3409
 IR Inten    --     23.6834                 4.2365                19.6443

                     25                     26                     27
                      A                      A                      A
 Frequencies --   1138.4669              1182.5132              1223.8655
 Red. masses --      2.4781                 1.5180                 2.0703
 Frc consts  --      1.8924                 1.2506                 1.8271
 IR Inten    --     16.0132                 3.7845                16.0856

                     28                     29                     30
                      A                      A                      A
 Frequencies --   1230.6034              1272.6943              1300.1218
 Red. masses --      1.3330                 1.3716                 1.4270
 Frc consts  --      1.1893                 1.3090                 1.4212
 IR Inten    --      1.0546                 0.8800                 9.5951

                     31                     32                     33
                      A                      A                      A
 Frequencies --   1309.4605              1333.0573              1354.8669
 Red. masses --      1.6638                 1.4766                 1.3792
 Frc consts  --      1.6809                 1.5460                 1.4917
 IR Inten    --      6.2546                 0.0222                 2.3903

                     34                     35                     36
                      A                      A                      A
 Frequencies --   1414.7515              1420.4355              1454.7096
 Red. masses --      1.2724                 1.2038                 2.5912
 Frc consts  --      1.5005                 1.4310                 3.2307
 IR Inten    --      4.9469                 2.6762                11.7103

                     37                     38                     39
                      A                      A                      A
 Frequencies --   1479.8322              1486.6577              1494.6041
 Red. masses --      1.0724                 1.1019                 1.1028
 Frc consts  --      1.3836                 1.4349                 1.4514
 IR Inten    --      4.0213                 5.4133                 3.1509

                     40                     41                     42
                      A                      A                      A
 Frequencies --   1497.7313              1828.0744              2876.3405
 Red. masses --      1.2112                10.2152                 1.0824
 Frc consts  --      1.6008                20.1134                 5.2761
 IR Inten    --      0.5448               199.4060                70.9712

                     43                     44                     45
                      A                      A                      A
 Frequencies --   3038.6932              3040.0135              3060.7628
 Red. masses --      1.0369                 1.0621                 1.0838
 Frc consts  --      5.6412                 5.7830                 5.9820
 IR Inten    --     16.8660                24.4637                11.0425

                     46                     47                     48
                      A                      A                      A
 Frequencies --   3065.6634              3088.3864              3101.4147
 Red. masses --      1.0651                 1.0972                 1.1005
 Frc consts  --      5.8979                 6.1658                 6.2367
 IR Inten    --     15.5985                22.5132                12.9216

                     49                     50                     51
                      A                      A                      A
 Frequencies --   3118.1291              3126.9185              3142.6738
 Red. masses --      1.1036                 1.1014                 1.0910
 Frc consts  --      6.3222                 6.3449                 6.3483
 IR Inten    --     21.2298                11.7725                27.3872

 - Thermochemistry -
 -------------------
 Temperature   298.150 Kelvin.  Pressure   1.00000 Atm.
 Atom     1 has atomic number  6 and mass  12.00000

 Molecular mass:   126.06808 amu.
 Principal axes and moments of inertia in atomic units:
                           1         2         3
     Eigenvalues --   723.991491211.413491645.46711
           X            0.99928   0.03520   0.01393
           Y           -0.03488   0.99913  -0.02267
           Z           -0.01472   0.02217   0.99965
 This molecule is an asymmetric top.
 Rotational symmetry number  1.
 Warning -- assumption of classical behavior for rotation
           may cause significant error
 Rotational temperatures (Kelvin)      0.11963     0.07150     0.05264
 Rotational constants (GHZ):           2.49277     1.48978     1.09680
 Zero-point vibrational energy     415895.0 (Joules/Mol)
                                   99.40129 (Kcal/Mol)
 Warning -- explicit consideration of  11 degrees of freedom as
           vibrations may cause significant error
 Vibrational temperatures:     80.41   140.93   269.11   323.73   344.65
          (Kelvin)            407.39   504.24   591.41   651.06   709.77
                              841.99   960.44  1033.72  1192.75  1224.99
                             1294.17  1316.04  1334.76  1427.47  1439.69
                             1483.36  1509.40  1535.48  1613.22  1638.00
                             1701.37  1760.87  1770.56  1831.12  1870.58
                             1884.02  1917.97  1949.35  2035.51  2043.69
                             2093.00  2129.15  2138.97  2150.40  2154.90
                             2630.19  4138.41  4372.00  4373.90  4403.75
                             4410.80  4443.49  4462.24  4486.29  4498.93
                             4521.60

 Zero-point correction=                           0.158406 (Hartree/Particle)
 Thermal correction to Energy=                    0.167039
 Thermal correction to Enthalpy=                  0.167984
 Thermal correction to Gibbs Free Energy=         0.124726
 Sum of electronic and zero-point Energies=           -423.041422
 Sum of electronic and thermal Energies=              -423.032788
 Sum of electronic and thermal Enthalpies=            -423.031844
 Sum of electronic and thermal Free Energies=         -423.075101

                     E (Thermal)             CV                S
                      KCal/Mol        Cal/Mol-Kelvin    Cal/Mol-Kelvin
 Total                  104.819             32.219             91.043
 Electronic               0.000              0.000              0.000
 Translational            0.889              2.981             40.409
 Rotational               0.889              2.981             28.758
 Vibrational            103.041             26.258             21.876
 Vibration     1          0.596              1.975              4.597
 Vibration     2          0.603              1.951              3.495
 Vibration     3          0.632              1.858              2.257
 Vibration     4          0.650              1.803              1.918
 Vibration     5          0.657              1.780              1.806
 Vibration     6          0.682              1.705              1.515
 Vibration     7          0.727              1.574              1.164
 Vibration     8          0.775              1.446              0.923
 Vibration     9          0.811              1.355              0.788
 Vibration    10          0.849              1.265              0.675
 Vibration    11          0.942              1.063              0.476

 Normal termination of Gaussian 09 at Mon Jan 27 18:41:51 2020.
