 Gaussian 09, Revision D.01,
 Gaussian 09:  ES64L-G09RevD.01 24-Apr-2013

 -----------------------------
 # b3lyp 6-31G(2df,p) opt Freq
 -----------------------------

 -----
 titel
 -----
 Symbolic Z-matrix:
 Charge =  0 Multiplicity = 1

 SCF Done:  E(RB3LYP) =  -423.177290422     A.U. after   14 cycles
 Optimization completed.
    -- Stationary point found.
 Normal termination of Gaussian 09 at Mon Jan 27 22:14:20 2020.

 ----------------------------------------------------------------------
 #N Geom=AllCheck Guess=TCheck SCRF=Check GenChk RB3LYP/6-31G(2df,p) Fr
 eq
 ----------------------------------------------------------------------

 Structure from the checkpoint file:  "/scratch/puck/g09_f22e373b-dcef-47d1-a156-7e7644c274fc/Gau-28458.chk"
 -----
 titel
 -----
 Charge =  0 Multiplicity = 1

                         Standard orientation:
 ---------------------------------------------------------------------
 Center     Atomic      Atomic             Coordinates (Angstroms)
 Number     Number       Type             X           Y           Z
 ---------------------------------------------------------------------
      1          6           0        2.702756   -0.794915   -0.166106
      2          6           0        1.239271   -0.645019   -0.532021
      3          6           0        0.194021   -0.905129    0.491113
      4          6           0       -1.174512   -0.941973   -0.209471
      5          8           0       -2.298452   -1.110453    0.612445
      6          6           0       -0.919044    0.564419   -0.488912
      7          8           0       -1.738778    1.443475   -0.597626
      8          6           0        0.484539    0.574115   -0.005193
      9          6           0        1.117081    1.777118    0.635799
     10          1           0        2.887127   -0.568493    0.887284
     11          1           0        3.028096   -1.824537   -0.344614
     12          1           0        3.333349   -0.134628   -0.770003
     13          1           0        1.018620   -0.961615   -1.551737
     14          1           0        0.388915   -1.291692    1.482991
     15          1           0       -1.209669   -1.628805   -1.065979
     16          1           0       -2.842347   -0.319173    0.499086
     17          1           0        1.514122    2.459326   -0.124141
     18          1           0        0.374062    2.329707    1.218207
     19          1           0        1.940899    1.504043    1.299103
 ---------------------------------------------------------------------

 SCF Done:  E(RB3LYP) =  -423.177290422     A.U. after    1 cycles

 The electronic state is 1-A.
 Alpha  occ. eigenvalues --  -19.14118 -19.13321 -10.26632 -10.24072 -10.21741
 Alpha  occ. eigenvalues --  -10.21534 -10.21393 -10.19566 -10.19048  -1.05024
 Alpha  occ. eigenvalues --   -1.01907  -0.91182  -0.75830  -0.74043  -0.66766
 Alpha  occ. eigenvalues --   -0.62726  -0.58575  -0.53037  -0.50420  -0.47855
 Alpha  occ. eigenvalues --   -0.46748  -0.44649  -0.43664  -0.41660  -0.40352
 Alpha  occ. eigenvalues --   -0.40198  -0.39111  -0.37960  -0.37398  -0.34697
 Alpha  occ. eigenvalues --   -0.30641  -0.28316  -0.26712  -0.24229
 Alpha virt. eigenvalues --   -0.01087   0.08279   0.08529   0.09195   0.10595
 Alpha virt. eigenvalues --    0.13018   0.13615   0.14420   0.15414   0.16048
 Alpha virt. eigenvalues --    0.16387   0.18907   0.19581   0.20516   0.22732

 Mulliken charges:
               1
     1  C   -0.428657
     2  C   -0.068111
     3  C   -0.141842
     4  C    0.048828
     5  O   -0.450847
     6  C    0.299079
     7  O   -0.343309
     8  C    0.206385
     9  C   -0.499153
    10  H    0.124633
    11  H    0.130409
    12  H    0.128959
    13  H    0.091185
    14  H    0.117062
    15  H    0.086986
    16  H    0.297474
    17  H    0.134755
    18  H    0.140071
    19  H    0.126093
 Sum of Mulliken charges =   0.00000

 Dipole moment (field-independent basis, Debye):
    X=              3.0558    Y=             -0.7323    Z=              0.1369  Tot=              3.1453
 Quadrupole moment (field-independent basis, Debye-Ang):
   XX=            -54.2322   YY=            -56.9875   ZZ=            -52.4066
   XY=              0.3205   XZ=             -0.0532   YZ=              3.0472

  Exact polarizability:  90.882  -3.078  78.663   0.271   0.644  61.570
 Approx polarizability: 124.169 -10.403 122.393   0.764  -5.499  98.171

                      1                      2                      3
                      A                      A                      A
 Frequencies --     73.7344                95.2931               176.2759
 Red. masses --      2.6492                 1.2873                 2.9312
 Frc consts  --      0.0085                 0.0069                 0.0537
 IR Inten    --      3.3935                 1.1703                 4.2273

                      4                      5                      6
                      A                      A                      A
 Frequencies --    191.5019               216.9442               254.0795
 Red. masses --      1.5321                 3.4628                 3.1177
 Frc consts  --      0.0331                 0.0960                 0.1186
 IR Inten    --      0.3182                11.2987                 5.4081

                      7                      8                      9
                      A                      A                      A
 Frequencies --    266.5919               292.9527               325.2322
 Red. masses --      1.7810                 1.6815                 1.7433
 Frc consts  --      0.0746                 0.0850                 0.1086
 IR Inten    --      3.1097                35.2870                33.7932

                     10                     11                     12
                      A                      A                      A
 Frequencies --    424.3552               454.5728               528.3804
 Red. masses --      3.0018                 4.1698                 3.6342
 Frc consts  --      0.3185                 0.5077                 0.5978
 IR Inten    --      1.7578                 1.9448                 3.5859

                     13                     14                     15
                      A                      A                      A
 Frequencies --    578.2258               697.2563               705.2792
 Red. masses --      4.2391                 3.4598                 4.4054
 Frc consts  --      0.8351                 0.9910                 1.2911
 IR Inten    --      3.7097                12.8605                19.9982

                     16                     17                     18
                      A                      A                      A
 Frequencies --    818.9351               896.4925               919.6084
 Red. masses --      4.1008                 2.2385                 1.5832
 Frc consts  --      1.6204                 1.0600                 0.7889
 IR Inten    --      7.8034                 2.7431                 3.8641

                     19                     20                     21
                      A                      A                      A
 Frequencies --    942.0343               964.9936              1009.5477
 Red. masses --      1.9223                 2.6346                 2.7913
 Frc consts  --      1.0051                 1.4455                 1.6761
 IR Inten    --     16.3264                70.2344                24.3165

                     22                     23                     24
                      A                      A                      A
 Frequencies --   1042.3070              1069.5362              1084.8053
 Red. masses --      1.4567                 1.9063                 1.5060
 Frc consts  --      0.9324                 1.2848                 1.0442
 IR Inten    --     17.1743                 9.5896                 8.5806

                     25                     26                     27
                      A                      A                      A
 Frequencies --   1111.0399              1149.7512              1163.2972
 Red. masses --      2.0588                 2.0616                 1.3020
 Frc consts  --      1.4974                 1.6057                 1.0381
 IR Inten    --      4.2374                17.7884                57.5749

                     28                     29                     30
                      A                      A                      A
 Frequencies --   1178.2562              1245.6933              1265.1445
 Red. masses --      1.9655                 1.9668                 1.9854
 Frc consts  --      1.6077                 1.7982                 1.8723
 IR Inten    --      9.1550                 8.6495                 2.8641

                     31                     32                     33
                      A                      A                      A
 Frequencies --   1360.3340              1363.9846              1382.0295
 Red. masses --      2.2554                 1.4645                 1.2803
 Frc consts  --      2.4590                 1.6053                 1.4408
 IR Inten    --     19.7486                 4.5856                50.1407

                     34                     35                     36
                      A                      A                      A
 Frequencies --   1414.2153              1421.9634              1424.6305
 Red. masses --      1.4339                 1.2251                 2.3683
 Frc consts  --      1.6896                 1.4594                 2.8320
 IR Inten    --      0.5280                 4.2140                 8.7439

                     37                     38                     39
                      A                      A                      A
 Frequencies --   1479.1689              1490.7030              1499.5154
 Red. masses --      1.0474                 1.0474                 1.0489
 Frc consts  --      1.3502                 1.3713                 1.3895
 IR Inten    --      5.9342                 3.3196                 2.0707

                     40                     41                     42
                      A                      A                      A
 Frequencies --   1508.1485              1832.0140              3005.9551
 Red. masses --      1.0790                12.6064                 1.0836
 Frc consts  --      1.4459                24.9286                 5.7690
 IR Inten    --     10.5815               316.8568                48.2826

                     43                     44                     45
                      A                      A                      A
 Frequencies --   3038.0646              3041.9689              3090.8660
 Red. masses --      1.0368                 1.0367                 1.0882
 Frc consts  --      5.6380                 5.6521                 6.1251
 IR Inten    --     15.0523                31.0267                 9.8343

                     46                     47                     48
                      A                      A                      A
 Frequencies --   3099.7699              3104.6261              3118.8076
 Red. masses --      1.0984                 1.1015                 1.1008
 Frc consts  --      6.2181                 6.2556                 6.3084
 IR Inten    --      6.9757                18.5049                31.2765

                     49                     50                     51
                      A                      A                      A
 Frequencies --   3127.1256              3210.3112              3751.9521
 Red. masses --      1.1001                 1.0935                 1.0659
 Frc consts  --      6.3384                 6.6402                 8.8406
 IR Inten    --     15.0654                 1.3683                35.1687

 - Thermochemistry -
 -------------------
 Temperature   298.150 Kelvin.  Pressure   1.00000 Atm.
 Atom     1 has atomic number  6 and mass  12.00000

 Molecular mass:   126.06808 amu.
 Principal axes and moments of inertia in atomic units:
                           1         2         3
     Eigenvalues --   685.741811306.941771728.17264
           X            0.99997   0.00697   0.00269
           Y           -0.00709   0.99876   0.04933
           Z           -0.00235  -0.04935   0.99878
 This molecule is an asymmetric top.
 Rotational symmetry number  1.
 Warning -- assumption of classical behavior for rotation
           may cause significant error
 Rotational temperatures (Kelvin)      0.12631     0.06627     0.05012
 Rotational constants (GHZ):           2.63181     1.38089     1.04431
 Zero-point vibrational energy     412163.0 (Joules/Mol)
                                   98.50932 (Kcal/Mol)
 Warning -- explicit consideration of  13 degrees of freedom as
           vibrations may cause significant error
 Vibrational temperatures:    106.09   137.11   253.62   275.53   312.13
          (Kelvin)            365.56   383.57   421.49   467.94   610.55
                              654.03   760.22   831.94  1003.20  1014.74
                             1178.26  1289.85  1323.11  1355.38  1388.41
                             1452.51  1499.65  1538.82  1560.79  1598.54
                             1654.23  1673.72  1695.25  1792.27  1820.26
                             1957.21  1962.47  1988.43  2034.74  2045.89
                             2049.72  2128.19  2144.79  2157.47  2169.89
                             2635.86  4324.89  4371.09  4376.71  4447.06
                             4459.87  4466.86  4487.26  4499.23  4618.92
                             5398.22

 Zero-point correction=                           0.156985 (Hartree/Particle)
 Thermal correction to Energy=                    0.166528
 Thermal correction to Enthalpy=                  0.167472
 Thermal correction to Gibbs Free Energy=         0.122697
 Sum of electronic and zero-point Energies=           -423.020306
 Sum of electronic and thermal Energies=              -423.010762
 Sum of electronic and thermal Enthalpies=            -423.009818
 Sum of electronic and thermal Free Energies=         -423.054593

                     E (Thermal)             CV                S
                      KCal/Mol        Cal/Mol-Kelvin    Cal/Mol-Kelvin
 Total                  104.498             34.952             94.237
 Electronic               0.000              0.000              0.000
 Translational            0.889              2.981             40.409
 Rotational               0.889              2.981             28.828
 Vibrational            102.721             28.990             25.000
 Vibration     1          0.599              1.966              4.051
 Vibration     2          0.603              1.953              3.548
 Vibration     3          0.628              1.872              2.367
 Vibration     4          0.634              1.852              2.213
 Vibration     5          0.646              1.815              1.984
 Vibration     6          0.665              1.756              1.702
 Vibration     7          0.672              1.734              1.618
 Vibration     8          0.688              1.687              1.457
 Vibration     9          0.709              1.625              1.284
 Vibration    10          0.786              1.417              0.877
 Vibration    11          0.813              1.351              0.782
 Vibration    12          0.883              1.187              0.591
 Vibration    13          0.935              1.078              0.489

 Optimization completed.
    -- Stationary point found.
 Normal termination of Gaussian 09 at Tue Jan 28 00:18:03 2020.
