 Gaussian 09, Revision D.01,
 Gaussian 09:  ES64L-G09RevD.01 24-Apr-2013

 -----------------------------
 # b3lyp 6-31G(2df,p) opt Freq
 -----------------------------

 -----
 titel
 -----
 Symbolic Z-matrix:
 Charge =  0 Multiplicity = 1

 SCF Done:  E(RB3LYP) =  -423.214554291     A.U. after   14 cycles
 Optimization completed.
    -- Stationary point found.
 Normal termination of Gaussian 09 at Tue Jan 28 02:06:22 2020.

 ----------------------------------------------------------------------
 #N Geom=AllCheck Guess=TCheck SCRF=Check GenChk RB3LYP/6-31G(2df,p) Fr
 eq
 ----------------------------------------------------------------------

 Structure from the checkpoint file:  "/scratch/puck/g09_d41f8ee9-522d-4b05-b727-07c01dded99b/Gau-194030.chk"
 -----
 titel
 -----
 Charge =  0 Multiplicity = 1

                         Standard orientation:
 ---------------------------------------------------------------------
 Center     Atomic      Atomic             Coordinates (Angstroms)
 Number     Number       Type             X           Y           Z
 ---------------------------------------------------------------------
      1          6           0       -3.043082    0.773031   -0.721484
      2          6           0       -1.996253   -0.246494   -0.340509
      3          6           0       -1.790355   -0.662238    1.070859
      4          6           0       -0.733592    0.211392    0.397610
      5          6           0        0.538735   -0.431951    0.021118
      6          8           0        0.648117   -1.599089   -0.302120
      7          6           0        1.800835    0.468014    0.039865
      8          6           0        3.091166   -0.205274   -0.356437
      9          8           0        1.713966    1.631431    0.358170
     10          1           0       -2.775596    1.295057   -1.645963
     11          1           0       -4.013876    0.289890   -0.878231
     12          1           0       -3.169231    1.525103    0.064153
     13          1           0       -1.797416   -1.019363   -1.078181
     14          1           0       -2.381691   -0.187676    1.846730
     15          1           0       -1.495921   -1.687874    1.263797
     16          1           0       -0.666564    1.251871    0.685443
     17          1           0        3.911599    0.510531   -0.304262
     18          1           0        3.284061   -1.059894    0.299517
     19          1           0        3.003247   -0.615255   -1.367534
 ---------------------------------------------------------------------

 SCF Done:  E(RB3LYP) =  -423.214554291     A.U. after    1 cycles

 The electronic state is 1-A.
 Alpha  occ. eigenvalues --  -19.15077 -19.14236 -10.28049 -10.27381 -10.20873
 Alpha  occ. eigenvalues --  -10.19948 -10.19919 -10.19083 -10.18711  -1.06241
 Alpha  occ. eigenvalues --   -1.04508  -0.87405  -0.75364  -0.72706  -0.68276
 Alpha  occ. eigenvalues --   -0.59763  -0.57728  -0.53190  -0.49321  -0.47190
 Alpha  occ. eigenvalues --   -0.45509  -0.45063  -0.44062  -0.41911  -0.40585
 Alpha  occ. eigenvalues --   -0.39807  -0.39632  -0.38514  -0.36755  -0.35686
 Alpha  occ. eigenvalues --   -0.31086  -0.30258  -0.28869  -0.23594
 Alpha virt. eigenvalues --   -0.07772   0.03794   0.09899   0.10743   0.11511
 Alpha virt. eigenvalues --    0.13764   0.14447   0.15059   0.16212   0.16588
 Alpha virt. eigenvalues --    0.17205   0.18001   0.18677   0.20495   0.23781

 Mulliken charges:
               1
     1  C   -0.410900
     2  C    0.022217
     3  C   -0.279442
     4  C   -0.132613
     5  C    0.264901
     6  O   -0.322463
     7  C    0.304469
     8  C   -0.473261
     9  O   -0.276064
    10  H    0.125982
    11  H    0.125401
    12  H    0.120455
    13  H    0.109889
    14  H    0.119660
    15  H    0.134697
    16  H    0.116453
    17  H    0.138586
    18  H    0.156242
    19  H    0.155791
 Sum of Mulliken charges =   0.00000

 Dipole moment (field-independent basis, Debye):
    X=             -0.8975    Y=             -0.0707    Z=             -0.0934  Tot=              0.9051
 Quadrupole moment (field-independent basis, Debye-Ang):
   XX=            -47.1383   YY=            -60.3860   ZZ=            -51.3409
   XY=             -2.9076   XZ=             -1.1981   YZ=             -1.8977

  Exact polarizability:  99.800  -2.760  74.899  -2.287   1.777  62.638
 Approx polarizability: 120.187  -4.167 130.006  -3.671   9.665  96.062

                      1                      2                      3
                      A                      A                      A
 Frequencies --     45.4186                51.7215                98.9828
 Red. masses --      3.2028                 3.4812                 1.1340
 Frc consts  --      0.0039                 0.0055                 0.0065
 IR Inten    --      6.0317                 0.0433                 0.0048

                      4                      5                      6
                      A                      A                      A
 Frequencies --    149.3890               161.9367               218.1517
 Red. masses --      2.9266                 3.6554                 1.1727
 Frc consts  --      0.0385                 0.0565                 0.0329
 IR Inten    --      2.4238                 2.5747                 1.1396

                      7                      8                      9
                      A                      A                      A
 Frequencies --    275.5417               303.2906               351.2973
 Red. masses --      3.9230                 3.4833                 3.6760
 Frc consts  --      0.1755                 0.1888                 0.2673
 IR Inten    --     17.8419                 2.1037                 1.3726

                     10                     11                     12
                      A                      A                      A
 Frequencies --    384.0801               434.9277               525.3159
 Red. masses --      2.6592                 2.8325                 6.6626
 Frc consts  --      0.2311                 0.3157                 1.0833
 IR Inten    --      2.8709                 3.8150                 0.6352

                     13                     14                     15
                      A                      A                      A
 Frequencies --    586.1107               716.2833               771.6315
 Red. masses --      3.5277                 3.3550                 2.4954
 Frc consts  --      0.7140                 1.0142                 0.8754
 IR Inten    --     40.2427                 1.8499                 2.2092

                     16                     17                     18
                      A                      A                      A
 Frequencies --    788.2967               846.6264               896.5917
 Red. masses --      2.5310                 3.9878                 1.3195
 Frc consts  --      0.9267                 1.6841                 0.6250
 IR Inten    --      2.3826                10.3721                 0.7036

                     19                     20                     21
                      A                      A                      A
 Frequencies --    907.9683               961.0648               992.7239
 Red. masses --      2.5179                 1.3380                 2.0303
 Frc consts  --      1.2230                 0.7282                 1.1788
 IR Inten    --     67.4479                 9.8221                 6.1125

                     22                     23                     24
                      A                      A                      A
 Frequencies --   1036.7661              1069.9910              1091.0332
 Red. masses --      2.0824                 1.5046                 1.7590
 Frc consts  --      1.3188                 1.0150                 1.2337
 IR Inten    --      1.0503                67.1272                59.2366

                     25                     26                     27
                      A                      A                      A
 Frequencies --   1102.8018              1122.7102              1147.2222
 Red. masses --      1.6076                 1.1671                 1.3687
 Frc consts  --      1.1519                 0.8668                 1.0613
 IR Inten    --     33.1971                 3.4975                 1.2443

                     28                     29                     30
                      A                      A                      A
 Frequencies --   1199.2395              1230.4624              1243.1305
 Red. masses --      1.5838                 1.7620                 2.7428
 Frc consts  --      1.3420                 1.5718                 2.4974
 IR Inten    --      3.0772                 1.6551                20.9666

                     31                     32                     33
                      A                      A                      A
 Frequencies --   1356.0152              1382.8184              1413.6429
 Red. masses --      1.6072                 1.3616                 1.2750
 Frc consts  --      1.7412                 1.5341                 1.5013
 IR Inten    --     28.8923                29.6404                13.7601

                     34                     35                     36
                      A                      A                      A
 Frequencies --   1435.7308              1451.7593              1458.8642
 Red. masses --      1.7013                 1.0546                 1.0497
 Frc consts  --      2.0663                 1.3096                 1.3162
 IR Inten    --     36.3601                12.7357                 7.6437

                     37                     38                     39
                      A                      A                      A
 Frequencies --   1478.1318              1491.3254              1500.8805
 Red. masses --      1.3745                 1.0657                 1.1101
 Frc consts  --      1.7694                 1.3965                 1.4733
 IR Inten    --     24.3204                 3.8643                11.1963

                     40                     41                     42
                      A                      A                      A
 Frequencies --   1769.8338              1805.9644              3030.5442
 Red. masses --     11.6695                11.4888                 1.0353
 Frc consts  --     21.5362                22.0772                 5.6019
 IR Inten    --    112.9135               107.0014                27.9330

                     43                     44                     45
                      A                      A                      A
 Frequencies --   3050.7779              3094.9505              3101.2661
 Red. masses --      1.0353                 1.1008                 1.1009
 Frc consts  --      5.6773                 6.2122                 6.2383
 IR Inten    --      0.3211                19.1539                17.7838

                     46                     47                     48
                      A                      A                      A
 Frequencies --   3112.1906              3133.8925              3152.7291
 Red. masses --      1.0969                 1.0536                 1.0881
 Frc consts  --      6.2597                 6.0969                 6.3723
 IR Inten    --      2.3691                10.8758                 8.7088

                     49                     50                     51
                      A                      A                      A
 Frequencies --   3162.4430              3211.8198              3229.3923
 Red. masses --      1.1045                 1.0907                 1.1152
 Frc consts  --      6.5085                 6.6290                 6.8526
 IR Inten    --      8.9854                 0.9091                 3.3765

 - Thermochemistry -
 -------------------
 Temperature   298.150 Kelvin.  Pressure   1.00000 Atm.
 Atom     1 has atomic number  6 and mass  12.00000

 Molecular mass:   126.06808 amu.
 Principal axes and moments of inertia in atomic units:
                           1         2         3
     Eigenvalues --   551.304951915.070782176.84968
           X            0.99973  -0.02337  -0.00192
           Y            0.02329   0.99919  -0.03271
           Z            0.00269   0.03266   0.99946
 This molecule is an asymmetric top.
 Rotational symmetry number  1.
 Warning -- assumption of classical behavior for rotation
           may cause significant error
 Rotational temperatures (Kelvin)      0.15711     0.04523     0.03979
 Rotational constants (GHZ):           3.27358     0.94239     0.82906
 Zero-point vibrational energy     409934.4 (Joules/Mol)
                                   97.97667 (Kcal/Mol)
 Warning -- explicit consideration of  13 degrees of freedom as
           vibrations may cause significant error
 Vibrational temperatures:     65.35    74.42   142.41   214.94   232.99
          (Kelvin)            313.87   396.44   436.37   505.44   552.60
                              625.76   755.81   843.28  1030.57  1110.20
                             1134.18  1218.11  1289.99  1306.36  1382.76
                             1428.31  1491.67  1539.48  1569.75  1586.68
                             1615.33  1650.59  1725.44  1770.36  1788.59
                             1951.00  1989.56  2033.91  2065.69  2088.76
                             2098.98  2126.70  2145.68  2159.43  2546.39
                             2598.38  4360.27  4389.38  4452.94  4462.02
                             4477.74  4508.97  4536.07  4550.04  4621.09
                             4646.37

 Zero-point correction=                           0.156136 (Hartree/Particle)
 Thermal correction to Energy=                    0.166173
 Thermal correction to Enthalpy=                  0.167117
 Thermal correction to Gibbs Free Energy=         0.120015
 Sum of electronic and zero-point Energies=           -423.058419
 Sum of electronic and thermal Energies=              -423.048381
 Sum of electronic and thermal Enthalpies=            -423.047437
 Sum of electronic and thermal Free Energies=         -423.094539

                     E (Thermal)             CV                S
                      KCal/Mol        Cal/Mol-Kelvin    Cal/Mol-Kelvin
 Total                  104.275             35.306             99.136
 Electronic               0.000              0.000              0.000
 Translational            0.889              2.981             40.409
 Rotational               0.889              2.981             29.220
 Vibrational            102.498             29.344             29.506
 Vibration     1          0.595              1.979              5.008
 Vibration     2          0.596              1.977              4.750
 Vibration     3          0.604              1.950              3.474
 Vibration     4          0.618              1.903              2.680
 Vibration     5          0.622              1.889              2.527
 Vibration     6          0.646              1.813              1.974
 Vibration     7          0.677              1.719              1.561
 Vibration     8          0.695              1.667              1.399
 Vibration     9          0.728              1.573              1.160
 Vibration    10          0.753              1.504              1.023
 Vibration    11          0.796              1.394              0.843
 Vibration    12          0.880              1.194              0.598
 Vibration    13          0.943              1.061              0.474

 Normal termination of Gaussian 09 at Tue Jan 28 02:42:46 2020.
