 Gaussian 09, Revision D.01,
 Gaussian 09:  ES64L-G09RevD.01 24-Apr-2013

 -----------------------------
 # b3lyp 6-31G(2df,p) opt Freq
 -----------------------------

 -----
 titel
 -----
 Symbolic Z-matrix:
 Charge =  0 Multiplicity = 1

 SCF Done:  E(RB3LYP) =  -423.166943088     A.U. after   13 cycles
 Optimization completed.
    -- Stationary point found.
 Normal termination of Gaussian 09 at Mon Jan 27 17:36:18 2020.

 ----------------------------------------------------------------------
 #N Geom=AllCheck Guess=TCheck SCRF=Check GenChk RB3LYP/6-31G(2df,p) Fr
 eq
 ----------------------------------------------------------------------

 Structure from the checkpoint file:  "/scratch/puck/g09_4816653c-127a-418a-9c04-b6ad0f3254a2/Gau-73146.chk"
 -----
 titel
 -----
 Charge =  0 Multiplicity = 1

                         Standard orientation:
 ---------------------------------------------------------------------
 Center     Atomic      Atomic             Coordinates (Angstroms)
 Number     Number       Type             X           Y           Z
 ---------------------------------------------------------------------
      1          8           0        2.283483   -0.699476    0.011316
      2          6           0        1.041154   -0.092543   -0.181270
      3          6           0        0.966859    1.388034   -0.474997
      4          6           0        0.500329    0.852010    0.862442
      5          6           0       -0.968924    0.397651    0.992055
      6          6           0       -0.811868   -1.132090    0.908723
      7          6           0       -0.162230   -1.025267   -0.497561
      8          6           0       -1.274511   -0.242770   -1.203900
      9          8           0       -1.700839    0.710708   -0.208811
     10          1           0        2.703375   -0.801350   -0.849759
     11          1           0        1.924320    1.899153   -0.458752
     12          1           0        0.237308    1.804584   -1.157943
     13          1           0        1.062542    1.091042    1.758316
     14          1           0       -1.513992    0.815989    1.837983
     15          1           0       -0.129239   -1.536238    1.659011
     16          1           0       -1.762800   -1.673083    0.928627
     17          1           0        0.127910   -1.953187   -0.990490
     18          1           0       -0.939752    0.286403   -2.102667
     19          1           0       -2.115688   -0.893312   -1.477315
 ---------------------------------------------------------------------

 SCF Done:  E(RB3LYP) =  -423.166943088     A.U. after    1 cycles

 The electronic state is 1-A.
 Alpha  occ. eigenvalues --  -19.14426 -19.13148 -10.23520 -10.23120 -10.22339
 Alpha  occ. eigenvalues --  -10.19307 -10.18320 -10.18079 -10.18033  -1.03540
 Alpha  occ. eigenvalues --   -1.02425  -0.86107  -0.77436  -0.73605  -0.61796
 Alpha  occ. eigenvalues --   -0.61106  -0.58268  -0.54042  -0.52387  -0.50122
 Alpha  occ. eigenvalues --   -0.47984  -0.44306  -0.42502  -0.40759  -0.39508
 Alpha  occ. eigenvalues --   -0.38334  -0.35821  -0.35071  -0.34817  -0.32711
 Alpha  occ. eigenvalues --   -0.29956  -0.26434  -0.25540  -0.24436
 Alpha virt. eigenvalues --    0.07915   0.09435   0.10959   0.11882   0.12808
 Alpha virt. eigenvalues --    0.14060   0.14485   0.15436   0.16653   0.17687
 Alpha virt. eigenvalues --    0.18739   0.19029   0.20799   0.21105   0.21820

 Mulliken charges:
               1
     1  O   -0.477682
     2  C    0.400077
     3  C   -0.369657
     4  C   -0.076734
     5  C    0.085847
     6  C   -0.227904
     7  C   -0.114228
     8  C   -0.094283
     9  O   -0.279330
    10  H    0.281366
    11  H    0.108903
    12  H    0.129804
    13  H    0.092449
    14  H    0.075794
    15  H    0.110412
    16  H    0.095037
    17  H    0.065915
    18  H    0.098000
    19  H    0.096214
 Sum of Mulliken charges =   0.00000

 Dipole moment (field-independent basis, Debye):
    X=              0.7806    Y=             -0.8716    Z=             -0.9570  Tot=              1.5116
 Quadrupole moment (field-independent basis, Debye-Ang):
   XX=            -55.1226   YY=            -53.7657   ZZ=            -49.1044
   XY=              3.1086   XZ=             -3.9249   YZ=              2.0133

  Exact polarizability:  76.143   3.889  70.839  -1.500   0.496  72.505
 Approx polarizability: 108.145  -0.024 106.474  -2.428   1.133 110.878

                      1                      2                      3
                      A                      A                      A
 Frequencies --    193.0423               299.1872               316.3922
 Red. masses --      3.8530                 1.2838                 4.4461
 Frc consts  --      0.0846                 0.0677                 0.2622
 IR Inten    --      5.6894                66.2739                20.9583

                      4                      5                      6
                      A                      A                      A
 Frequencies --    328.4495               393.1147               432.4047
 Red. masses --      2.3044                 3.4699                 2.3047
 Frc consts  --      0.1465                 0.3159                 0.2539
 IR Inten    --      3.1030                10.9969                 4.2746

                      7                      8                      9
                      A                      A                      A
 Frequencies --    495.4666               517.4275               600.4093
 Red. masses --      2.2041                 2.6989                 3.8652
 Frc consts  --      0.3188                 0.4257                 0.8209
 IR Inten    --      4.5220                 3.5344                 1.1335

                     10                     11                     12
                      A                      A                      A
 Frequencies --    678.1937               760.4982               777.4167
 Red. masses --      3.0864                 3.6779                 4.2679
 Frc consts  --      0.8364                 1.2533                 1.5197
 IR Inten    --      5.5807                 1.3412                 2.1562

                     13                     14                     15
                      A                      A                      A
 Frequencies --    846.5591               880.8989               890.6389
 Red. masses --      2.5701                 2.8122                 2.3439
 Frc consts  --      1.0852                 1.2857                 1.0954
 IR Inten    --      7.7853                32.2470                 6.4327

                     16                     17                     18
                      A                      A                      A
 Frequencies --    918.3005               930.4760               946.0556
 Red. masses --      2.1318                 2.5940                 1.9730
 Frc consts  --      1.0592                 1.3232                 1.0404
 IR Inten    --      2.6738                 6.3974                 4.2545

                     19                     20                     21
                      A                      A                      A
 Frequencies --    958.7117               971.0388               996.1871
 Red. masses --      1.7777                 1.8568                 2.0909
 Frc consts  --      0.9627                 1.0316                 1.2225
 IR Inten    --     18.8706                 8.5697                27.8825

                     22                     23                     24
                      A                      A                      A
 Frequencies --   1017.8951              1042.5875              1059.0924
 Red. masses --      1.8464                 1.4495                 1.5307
 Frc consts  --      1.1272                 0.9283                 1.0116
 IR Inten    --      2.3938                 6.2047                12.0657

                     25                     26                     27
                      A                      A                      A
 Frequencies --   1077.5606              1097.5598              1135.4055
 Red. masses --      2.0274                 2.0154                 1.1404
 Frc consts  --      1.3870                 1.4304                 0.8662
 IR Inten    --     32.5950                 9.6798                 1.3608

                     28                     29                     30
                      A                      A                      A
 Frequencies --   1168.1239              1209.1155              1225.8154
 Red. masses --      1.6882                 1.3526                 2.2198
 Frc consts  --      1.3572                 1.1651                 1.9653
 IR Inten    --     11.8906                 0.8384                69.6378

                     31                     32                     33
                      A                      A                      A
 Frequencies --   1232.1948              1273.0242              1279.6480
 Red. masses --      1.7471                 1.5360                 1.5064
 Frc consts  --      1.5629                 1.4666                 1.4533
 IR Inten    --      9.7555                 1.5248                 3.9452

                     34                     35                     36
                      A                      A                      A
 Frequencies --   1295.1183              1323.4024              1327.3266
 Red. masses --      1.8740                 1.5705                 1.4382
 Frc consts  --      1.8519                 1.6206                 1.4929
 IR Inten    --     18.2896                39.8251                25.1261

                     37                     38                     39
                      A                      A                      A
 Frequencies --   1380.2762              1397.0498              1482.1767
 Red. masses --      1.4100                 1.8042                 1.3900
 Frc consts  --      1.5827                 2.0747                 1.7991
 IR Inten    --      1.7524                11.6413                 5.4405

                     40                     41                     42
                      A                      A                      A
 Frequencies --   1490.7889              1531.9983              3012.7298
 Red. masses --      1.1333                 1.0890                 1.0628
 Frc consts  --      1.4840                 1.5059                 5.6836
 IR Inten    --      5.7090                 0.6331                68.8398

                     43                     44                     45
                      A                      A                      A
 Frequencies --   3059.1318              3061.4649              3118.6793
 Red. masses --      1.0822                 1.0788                 1.0876
 Frc consts  --      5.9672                 5.9572                 6.2327
 IR Inten    --      2.7986                63.1970                45.1648

                     46                     47                     48
                      A                      A                      A
 Frequencies --   3123.3737              3125.2816              3137.6395
 Red. masses --      1.0923                 1.1050                 1.0547
 Frc consts  --      6.2781                 6.3591                 6.1179
 IR Inten    --     19.6022                16.9920                12.9390

                     49                     50                     51
                      A                      A                      A
 Frequencies --   3175.3246              3229.8108              3792.7524
 Red. masses --      1.0917                 1.1150                 1.0662
 Frc consts  --      6.4853                 6.8531                 9.0367
 IR Inten    --     10.1163                 5.2759                18.7985

 - Thermochemistry -
 -------------------
 Temperature   298.150 Kelvin.  Pressure   1.00000 Atm.
 Atom     1 has atomic number  8 and mass  15.99491

 Molecular mass:   126.06808 amu.
 Principal axes and moments of inertia in atomic units:
                           1         2         3
     Eigenvalues --   615.515691050.880831131.54788
           X            0.99863   0.05156  -0.00923
           Y           -0.05170   0.99854  -0.01580
           Z            0.00840   0.01625   0.99983
 This molecule is an asymmetric top.
 Rotational symmetry number  1.
 Warning -- assumption of classical behavior for rotation
           may cause significant error
 Rotational temperatures (Kelvin)      0.14072     0.08242     0.07654
 Rotational constants (GHZ):           2.93208     1.71736     1.59493
 Zero-point vibrational energy     424753.4 (Joules/Mol)
                                  101.51849 (Kcal/Mol)
 Warning -- explicit consideration of   9 degrees of freedom as
           vibrations may cause significant error
 Vibrational temperatures:    277.74   430.46   455.22   472.57   565.60
          (Kelvin)            622.13   712.87   744.46   863.85   975.77
                             1094.19  1118.53  1218.01  1267.42  1281.43
                             1321.23  1338.75  1361.16  1379.37  1397.11
                             1433.29  1464.52  1500.05  1523.80  1550.37
                             1579.14  1633.59  1680.67  1739.65  1763.67
                             1772.85  1831.60  1841.13  1863.38  1904.08
                             1909.72  1985.91  2010.04  2132.52  2144.91
                             2204.20  4334.64  4401.40  4404.76  4487.08
                             4493.83  4496.58  4514.36  4568.58  4646.97
                             5456.92

 Zero-point correction=                           0.161780 (Hartree/Particle)
 Thermal correction to Energy=                    0.168649
 Thermal correction to Enthalpy=                  0.169593
 Thermal correction to Gibbs Free Energy=         0.131095
 Sum of electronic and zero-point Energies=           -423.005163
 Sum of electronic and thermal Energies=              -422.998294
 Sum of electronic and thermal Enthalpies=            -422.997350
 Sum of electronic and thermal Free Energies=         -423.035849

                     E (Thermal)             CV                S
                      KCal/Mol        Cal/Mol-Kelvin    Cal/Mol-Kelvin
 Total                  105.829             29.448             81.027
 Electronic               0.000              0.000              0.000
 Translational            0.889              2.981             40.409
 Rotational               0.889              2.981             28.084
 Vibrational            104.051             23.487             12.535
 Vibration     1          0.635              1.850              2.198
 Vibration     2          0.692              1.675              1.421
 Vibration     3          0.703              1.642              1.329
 Vibration     4          0.712              1.619              1.268
 Vibration     5          0.760              1.485              0.988
 Vibration     6          0.793              1.400              0.851
 Vibration     7          0.851              1.260              0.670
 Vibration     8          0.872              1.211              0.616
 Vibration     9          0.959              1.031              0.449

 Optimization completed.
    -- Stationary point found.
 Normal termination of Gaussian 09 at Mon Jan 27 18:37:47 2020.
