 Gaussian 09, Revision D.01,
 Gaussian 09:  ES64L-G09RevD.01 24-Apr-2013

 -----------------------------
 # b3lyp 6-31G(2df,p) opt Freq
 -----------------------------

 -----
 titel
 -----
 Symbolic Z-matrix:
 Charge =  0 Multiplicity = 1

 SCF Done:  E(RB3LYP) =  -423.134457955     A.U. after   13 cycles
 SCF Done:  E(RB3LYP) =  -423.134456273     A.U. after    9 cycles
 SCF Done:  E(RB3LYP) =  -423.134458214     A.U. after    8 cycles
 SCF Done:  E(RB3LYP) =  -423.134458113     A.U. after    7 cycles
 SCF Done:  E(RB3LYP) =  -423.134458139     A.U. after    6 cycles
 SCF Done:  E(RB3LYP) =  -423.134458034     A.U. after    7 cycles
 SCF Done:  E(RB3LYP) =  -423.134457788     A.U. after    7 cycles
 SCF Done:  E(RB3LYP) =  -423.134457567     A.U. after    7 cycles
 SCF Done:  E(RB3LYP) =  -423.134457353     A.U. after    7 cycles
 SCF Done:  E(RB3LYP) =  -423.134457247     A.U. after    6 cycles
 SCF Done:  E(RB3LYP) =  -423.134457172     A.U. after    7 cycles
 Optimization completed.
    -- Stationary point found.
 Normal termination of Gaussian 09 at Tue Jan 28 08:46:41 2020.

 ----------------------------------------------------------------------
 #N Geom=AllCheck Guess=TCheck SCRF=Check GenChk RB3LYP/6-31G(2df,p) Fr
 eq
 ----------------------------------------------------------------------

 Structure from the checkpoint file:  "/scratch/puck/g09_7c60cb6e-95ed-46a3-8178-10417e68b255/Gau-102010.chk"
 -----
 titel
 -----
 Charge =  0 Multiplicity = 1

                         Standard orientation:
 ---------------------------------------------------------------------
 Center     Atomic      Atomic             Coordinates (Angstroms)
 Number     Number       Type             X           Y           Z
 ---------------------------------------------------------------------
      1          6           0       -3.855144    0.367653    0.254764
      2          6           0       -2.964227   -0.671892   -0.449767
      3          6           0       -1.559490   -0.592106   -0.060469
      4          6           0       -0.402041   -0.549403    0.283814
      5          6           0        0.970456   -0.412833    0.661704
      6          6           0        1.674998    0.902871    0.307352
      7          8           0        0.968751    1.900948   -0.348706
      8          6           0        2.068503   -0.340465   -0.413850
      9          8           0        3.322252   -0.864105   -0.115817
     10          1           0       -4.894647    0.260989   -0.069162
     11          1           0       -3.816767    0.240803    1.339969
     12          1           0       -3.525725    1.384306    0.022672
     13          1           0       -3.338321   -1.681138   -0.234291
     14          1           0       -3.046530   -0.549136   -1.537443
     15          1           0        1.276232   -0.867549    1.599348
     16          1           0        2.383069    1.274668    1.044010
     17          1           0        0.030635    1.669909   -0.308813
     18          1           0        1.729978   -0.427427   -1.445586
     19          1           0        3.275728   -1.823126   -0.195809
 ---------------------------------------------------------------------

 SCF Done:  E(RB3LYP) =  -423.134457172     A.U. after    1 cycles

 The electronic state is 1-A.
 Alpha  occ. eigenvalues --  -19.15112 -19.13880 -10.23926 -10.23886 -10.21266
 Alpha  occ. eigenvalues --  -10.20981 -10.18662 -10.18128 -10.17875  -1.04062
 Alpha  occ. eigenvalues --   -1.02420  -0.84650  -0.79896  -0.73285  -0.65687
 Alpha  occ. eigenvalues --   -0.62129  -0.60226  -0.53946  -0.52910  -0.48333
 Alpha  occ. eigenvalues --   -0.46517  -0.45909  -0.43961  -0.40581  -0.40086
 Alpha  occ. eigenvalues --   -0.39958  -0.37449  -0.36675  -0.34049  -0.32835
 Alpha  occ. eigenvalues --   -0.29318  -0.27582  -0.24180  -0.23064
 Alpha virt. eigenvalues --    0.04075   0.04389   0.07638   0.08935   0.11500
 Alpha virt. eigenvalues --    0.12251   0.14458   0.14816   0.15282   0.16264
 Alpha virt. eigenvalues --    0.17080   0.18391   0.19809   0.20208   0.21899

 Mulliken charges:
               1
     1  C   -0.364527
     2  C   -0.318124
     3  C    0.137488
     4  C   -0.000262
     5  C   -0.319438
     6  C    0.112089
     7  O   -0.427829
     8  C    0.048984
     9  O   -0.415721
    10  H    0.116839
    11  H    0.130292
    12  H    0.125659
    13  H    0.132774
    14  H    0.131561
    15  H    0.114618
    16  H    0.113265
    17  H    0.287620
    18  H    0.104188
    19  H    0.290524
 Sum of Mulliken charges =   0.00000

 Dipole moment (field-independent basis, Debye):
    X=             -1.9743    Y=             -2.1070    Z=              0.1400  Tot=              2.8908
 Quadrupole moment (field-independent basis, Debye-Ang):
   XX=            -51.3160   YY=            -53.1150   ZZ=            -52.2834
   XY=             -5.1253   XZ=              2.3792   YZ=              1.5701

  Exact polarizability: 121.064   0.360  68.550   5.990   0.301  61.322
 Approx polarizability: 165.159   3.836 100.476  13.769  -1.591  92.807

                      1                      2                      3
                      A                      A                      A
 Frequencies --     14.2897                68.9327                89.4567
 Red. masses --      2.4850                 4.3277                 3.2484
 Frc consts  --      0.0003                 0.0121                 0.0153
 IR Inten    --      0.1411                 0.3962                 1.2921

                      4                      5                      6
                      A                      A                      A
 Frequencies --    155.7097               191.1165               216.2727
 Red. masses --      3.5480                 1.4370                 1.3919
 Frc consts  --      0.0507                 0.0309                 0.0384
 IR Inten    --      0.7982                20.6654                27.4819

                      7                      8                      9
                      A                      A                      A
 Frequencies --    263.2534               295.5413               311.3720
 Red. masses --      2.7446                 1.7296                 2.2305
 Frc consts  --      0.1121                 0.0890                 0.1274
 IR Inten    --     13.4397                20.3618                 8.5391

                     10                     11                     12
                      A                      A                      A
 Frequencies --    353.2651               399.4839               422.2394
 Red. masses --      1.7739                 4.6237                 3.2394
 Frc consts  --      0.1304                 0.4348                 0.3403
 IR Inten    --    116.0154                 5.7242                 1.4587

                     13                     14                     15
                      A                      A                      A
 Frequencies --    479.0854               502.1491               623.1247
 Red. masses --      5.2465                 4.9506                 4.2879
 Frc consts  --      0.7095                 0.7355                 0.9809
 IR Inten    --      1.1787                 1.6854                 5.3723

                     16                     17                     18
                      A                      A                      A
 Frequencies --    744.9209               782.9580               844.1852
 Red. masses --      4.0581                 1.1800                 4.1244
 Frc consts  --      1.3268                 0.4262                 1.7317
 IR Inten    --      2.3231                 1.9532                 6.6805

                     19                     20                     21
                      A                      A                      A
 Frequencies --    894.7844               907.2718               984.7453
 Red. masses --      3.4916                 1.6771                 2.3821
 Frc consts  --      1.6471                 0.8134                 1.3610
 IR Inten    --     12.7055                 5.7820                 1.9315

                     22                     23                     24
                      A                      A                      A
 Frequencies --   1050.3763              1076.7756              1083.0034
 Red. masses --      1.2608                 1.5343                 1.5590
 Frc consts  --      0.8196                 1.0481                 1.0774
 IR Inten    --     10.1370                26.8457                16.0468

                     25                     26                     27
                      A                      A                      A
 Frequencies --   1102.3255              1119.2680              1157.0688
 Red. masses --      1.4760                 2.6672                 3.3787
 Frc consts  --      1.0567                 1.9687                 2.6652
 IR Inten    --      0.7907                95.2672                85.1791

                     28                     29                     30
                      A                      A                      A
 Frequencies --   1180.8111              1210.7724              1282.6207
 Red. masses --      2.1025                 1.6341                 1.1559
 Frc consts  --      1.7272                 1.4114                 1.1204
 IR Inten    --      7.0825                48.5938                86.2984

                     31                     32                     33
                      A                      A                      A
 Frequencies --   1286.3685              1311.6057              1345.3355
 Red. masses --      1.1482                 1.5710                 1.4739
 Frc consts  --      1.1194                 1.5923                 1.5717
 IR Inten    --      0.5628                24.6353                 6.3033

                     34                     35                     36
                      A                      A                      A
 Frequencies --   1359.2252              1389.1928              1409.3339
 Red. masses --      1.7653                 1.1892                 1.2126
 Frc consts  --      1.9215                 1.3521                 1.4190
 IR Inten    --     13.9997                65.4297                 0.5199

                     37                     38                     39
                      A                      A                      A
 Frequencies --   1472.1298              1477.0303              1494.3346
 Red. masses --      1.1017                 2.2444                 1.0399
 Frc consts  --      1.4067                 2.8848                 1.3682
 IR Inten    --      4.5291                 8.8320                 4.9142

                     40                     41                     42
                      A                      A                      A
 Frequencies --   1504.3096              2344.1127              3019.7477
 Red. masses --      1.0592                11.8304                 1.0589
 Frc consts  --      1.4122                38.3008                 5.6893
 IR Inten    --      1.5998                 5.1623                24.5731

                     43                     44                     45
                      A                      A                      A
 Frequencies --   3044.2274              3047.2457              3117.4383
 Red. masses --      1.0349                 1.1002                 1.1014
 Frc consts  --      5.6505                 6.0194                 6.3068
 IR Inten    --     29.5015                 8.2801                27.7796

                     46                     47                     48
                      A                      A                      A
 Frequencies --   3117.8226              3123.3306              3141.6493
 Red. masses --      1.0898                 1.1028                 1.0883
 Frc consts  --      6.2415                 6.3385                 6.3285
 IR Inten    --     17.0793                24.3017                 9.5491

                     49                     50                     51
                      A                      A                      A
 Frequencies --   3155.0511              3735.5175              3798.1942
 Red. masses --      1.0874                 1.0661                 1.0661
 Frc consts  --      6.3774                 8.7646                 9.0618
 IR Inten    --     18.1818                80.4283                23.2461

 - Thermochemistry -
 -------------------
 Temperature   298.150 Kelvin.  Pressure   1.00000 Atm.
 Atom     1 has atomic number  6 and mass  12.00000

 Molecular mass:   126.06808 amu.
 Principal axes and moments of inertia in atomic units:
                           1         2         3
     Eigenvalues --   488.260982571.612752881.75290
           X            0.99997  -0.00770   0.00276
           Y            0.00764   0.99972   0.02239
           Z           -0.00293  -0.02237   0.99975
 This molecule is an asymmetric top.
 Rotational symmetry number  1.
 Warning -- assumption of classical behavior for rotation
           may cause significant error
 Rotational temperatures (Kelvin)      0.17739     0.03368     0.03006
 Rotational constants (GHZ):           3.69626     0.70179     0.62627
 Zero-point vibrational energy     409723.3 (Joules/Mol)
                                   97.92621 (Kcal/Mol)
 Warning -- explicit consideration of  14 degrees of freedom as
           vibrations may cause significant error
 Vibrational temperatures:     20.56    99.18   128.71   224.03   274.97
          (Kelvin)            311.17   378.76   425.22   447.99   508.27
                              574.77   607.51   689.30   722.48   896.54
                             1071.77  1126.50  1214.59  1287.39  1305.36
                             1416.83  1511.26  1549.24  1558.20  1586.00
                             1610.37  1664.76  1698.92  1742.03  1845.40
                             1850.80  1887.11  1935.64  1955.62  1998.74
                             2027.71  2118.06  2125.11  2150.01  2164.36
                             3372.65  4344.74  4379.96  4384.30  4485.29
                             4485.85  4493.77  4520.13  4539.41  5374.57
                             5464.75

 Zero-point correction=                           0.156055 (Hartree/Particle)
 Thermal correction to Energy=                    0.166628
 Thermal correction to Enthalpy=                  0.167572
 Thermal correction to Gibbs Free Energy=         0.118648
 Sum of electronic and zero-point Energies=           -422.978402
 Sum of electronic and thermal Energies=              -422.967829
 Sum of electronic and thermal Enthalpies=            -422.966885
 Sum of electronic and thermal Free Energies=         -423.015809

                     E (Thermal)             CV                S
                      KCal/Mol        Cal/Mol-Kelvin    Cal/Mol-Kelvin
 Total                  104.561             37.243            102.970
 Electronic               0.000              0.000              0.000
 Translational            0.889              2.981             40.409
 Rotational               0.889              2.981             29.671
 Vibrational            102.783             31.281             32.890
 Vibration     1          0.593              1.986              7.302
 Vibration     2          0.598              1.969              4.184
 Vibration     3          0.602              1.957              3.672
 Vibration     4          0.620              1.896              2.601
 Vibration     5          0.634              1.852              2.217
 Vibration     6          0.645              1.816              1.990
 Vibration     7          0.670              1.740              1.640
 Vibration     8          0.690              1.682              1.442
 Vibration     9          0.700              1.652              1.355
 Vibration    10          0.729              1.569              1.152
 Vibration    11          0.766              1.471              0.965
 Vibration    12          0.785              1.422              0.884
 Vibration    13          0.836              1.296              0.713
 Vibration    14          0.857              1.245              0.653

 Normal termination of Gaussian 09 at Tue Jan 28 09:19:12 2020.
