 Gaussian 09, Revision D.01,
 Gaussian 09:  ES64L-G09RevD.01 24-Apr-2013

 -----------------------------
 # b3lyp 6-31G(2df,p) opt Freq
 -----------------------------

 -----
 titel
 -----
 Symbolic Z-matrix:
 Charge =  0 Multiplicity = 1

 SCF Done:  E(RB3LYP) =  -423.157472567     A.U. after   13 cycles
 Optimization completed.
    -- Stationary point found.
 Normal termination of Gaussian 09 at Tue Jan 28 02:53:23 2020.

 ----------------------------------------------------------------------
 #N Geom=AllCheck Guess=TCheck SCRF=Check GenChk RB3LYP/6-31G(2df,p) Fr
 eq
 ----------------------------------------------------------------------

 Structure from the checkpoint file:  "/scratch/puck/g09_437def47-c0ea-4ea4-bcd7-a1a531d2f1b3/Gau-40709.chk"
 -----
 titel
 -----
 Charge =  0 Multiplicity = 1

                         Standard orientation:
 ---------------------------------------------------------------------
 Center     Atomic      Atomic             Coordinates (Angstroms)
 Number     Number       Type             X           Y           Z
 ---------------------------------------------------------------------
      1          6           0        2.376778   -0.234343    0.496562
      2          6           0        1.356349    0.228319   -0.541363
      3          8           0        0.508332   -0.817304   -0.984907
      4          6           0       -0.400346   -1.266894   -0.011098
      5          6           0       -1.801649   -0.723936    0.011091
      6          6           0       -1.785434    0.698643   -0.543037
      7          6           0       -0.643582    1.055431    0.476053
      8          8           0        0.628240    1.356278   -0.067510
      9          6           0       -0.781350   -0.341063    1.099118
     10          1           0        1.888648   -0.581999    1.410082
     11          1           0        2.981670   -1.048514    0.086386
     12          1           0        3.034568    0.599901    0.754728
     13          1           0        1.874542    0.563916   -1.445559
     14          1           0       -0.283172   -2.318888    0.233348
     15          1           0       -2.661566   -1.376525    0.095169
     16          1           0       -1.532413    0.811602   -1.599627
     17          1           0       -2.701274    1.251242   -0.321134
     18          1           0       -0.898216    1.888176    1.132254
     19          1           0       -0.719960   -0.597639    2.149733
 ---------------------------------------------------------------------

 SCF Done:  E(RB3LYP) =  -423.157472567     A.U. after    1 cycles

 The electronic state is 1-A.
 Alpha  occ. eigenvalues --  -19.14587 -19.13593 -10.27553 -10.23865 -10.23830
 Alpha  occ. eigenvalues --  -10.19512 -10.19364 -10.18094 -10.17235  -1.07150
 Alpha  occ. eigenvalues --   -1.00020  -0.89341  -0.74501  -0.72039  -0.66404
 Alpha  occ. eigenvalues --   -0.63854  -0.55807  -0.53802  -0.51828  -0.50734
 Alpha  occ. eigenvalues --   -0.47860  -0.43301  -0.42601  -0.42285  -0.39602
 Alpha  occ. eigenvalues --   -0.39023  -0.37426  -0.36441  -0.35523  -0.33621
 Alpha  occ. eigenvalues --   -0.28324  -0.27074  -0.25787  -0.24177
 Alpha virt. eigenvalues --    0.08709   0.09851   0.10832   0.12373   0.13363
 Alpha virt. eigenvalues --    0.14330   0.14801   0.16139   0.16402   0.17036
 Alpha virt. eigenvalues --    0.17758   0.18576   0.19569   0.21146   0.22343

 Mulliken charges:
               1
     1  C   -0.403359
     2  C    0.217246
     3  O   -0.264668
     4  C    0.099911
     5  C   -0.104320
     6  C   -0.253985
     7  C    0.114288
     8  O   -0.286593
     9  C   -0.149005
    10  H    0.121615
    11  H    0.119049
    12  H    0.124695
    13  H    0.092008
    14  H    0.095706
    15  H    0.089357
    16  H    0.110392
    17  H    0.101485
    18  H    0.089477
    19  H    0.086699
 Sum of Mulliken charges =   0.00000

 Dipole moment (field-independent basis, Debye):
    X=             -0.5826    Y=             -0.6869    Z=              1.3357  Tot=              1.6110
 Quadrupole moment (field-independent basis, Debye-Ang):
   XX=            -49.8725   YY=            -53.8533   ZZ=            -53.4084
   XY=             -0.5466   XZ=             -0.8094   YZ=             -1.3691

  Exact polarizability:  84.608  -0.598  70.107  -0.013  -1.361  65.430
 Approx polarizability: 111.926   1.161 105.643  -1.347   1.123 102.871

                      1                      2                      3
                      A                      A                      A
 Frequencies --    128.6851               198.8841               225.8095
 Red. masses --      3.3934                 3.3299                 1.0362
 Frc consts  --      0.0331                 0.0776                 0.0311
 IR Inten    --      2.4314                 1.9016                 0.1284

                      4                      5                      6
                      A                      A                      A
 Frequencies --    319.0085               387.3300               454.2667
 Red. masses --      2.4927                 3.5179                 2.7742
 Frc consts  --      0.1495                 0.3110                 0.3373
 IR Inten    --      0.3141                 0.9444                 1.5051

                      7                      8                      9
                      A                      A                      A
 Frequencies --    490.2718               538.4382               586.6366
 Red. masses --      5.0260                 3.9558                 3.7985
 Frc consts  --      0.7118                 0.6757                 0.7702
 IR Inten    --      7.6283                 2.8750                 1.9326

                     10                     11                     12
                      A                      A                      A
 Frequencies --    705.1274               757.4798               797.3261
 Red. masses --      6.0509                 2.0979                 2.0485
 Frc consts  --      1.7726                 0.7092                 0.7673
 IR Inten    --      4.5726                 7.4030                 4.7575

                     13                     14                     15
                      A                      A                      A
 Frequencies --    800.7416               835.8337               867.2454
 Red. masses --      2.3862                 2.6169                 2.5078
 Frc consts  --      0.9015                 1.0771                 1.1113
 IR Inten    --     15.4056                 0.9621                 6.0501

                     16                     17                     18
                      A                      A                      A
 Frequencies --    923.2384               946.2286               960.7241
 Red. masses --      2.8700                 2.0133                 1.4020
 Frc consts  --      1.4413                 1.0621                 0.7624
 IR Inten    --     23.7531                 7.9536                 9.1112

                     19                     20                     21
                      A                      A                      A
 Frequencies --    987.4293              1007.0349              1024.7289
 Red. masses --      1.9283                 1.7399                 2.3639
 Frc consts  --      1.1077                 1.0396                 1.4625
 IR Inten    --     24.9430                13.6879                 3.0039

                     22                     23                     24
                      A                      A                      A
 Frequencies --   1043.6831              1076.8975              1088.2985
 Red. masses --      3.6222                 1.5084                 2.0755
 Frc consts  --      2.3246                 1.0307                 1.4483
 IR Inten    --      0.9183                 5.2975                44.1254

                     25                     26                     27
                      A                      A                      A
 Frequencies --   1112.3788              1116.5481              1145.9654
 Red. masses --      2.0957                 2.6862                 1.6973
 Frc consts  --      1.5279                 1.9731                 1.3133
 IR Inten    --     80.8702                14.1819                 2.7251

                     28                     29                     30
                      A                      A                      A
 Frequencies --   1172.8522              1219.0963              1221.9820
 Red. masses --      1.7783                 2.2573                 2.1348
 Frc consts  --      1.4413                 1.9766                 1.8782
 IR Inten    --      9.8600               191.6245                58.5510

                     31                     32                     33
                      A                      A                      A
 Frequencies --   1253.5060              1297.2707              1330.3959
 Red. masses --      1.3950                 1.7508                 1.3942
 Frc consts  --      1.2914                 1.7360                 1.4539
 IR Inten    --      0.6459                12.0795                 2.2055

                     34                     35                     36
                      A                      A                      A
 Frequencies --   1359.4305              1379.7086              1401.0219
 Red. masses --      1.2733                 1.3136                 1.3269
 Frc consts  --      1.3864                 1.4733                 1.5345
 IR Inten    --      6.8436                11.3581                39.6980

                     37                     38                     39
                      A                      A                      A
 Frequencies --   1401.9701              1428.9166              1478.1974
 Red. masses --      1.2718                 1.7999                 1.1353
 Frc consts  --      1.4728                 2.1652                 1.4616
 IR Inten    --     14.0913                12.4107                 3.9570

                     40                     41                     42
                      A                      A                      A
 Frequencies --   1486.2997              1492.1416              3046.9825
 Red. masses --      1.0495                 1.0600                 1.0356
 Frc consts  --      1.3659                 1.3905                 5.6650
 IR Inten    --      3.8212                 0.3348                10.9745

                     43                     44                     45
                      A                      A                      A
 Frequencies --   3056.6862              3065.6745              3103.3338
 Red. masses --      1.0871                 1.0576                 1.0909
 Frc consts  --      5.9842                 5.8562                 6.1898
 IR Inten    --     40.6280                31.9100                24.4428

                     46                     47                     48
                      A                      A                      A
 Frequencies --   3122.9823              3123.8142              3133.6071
 Red. masses --      1.1021                 1.1066                 1.1015
 Frc consts  --      6.3329                 6.3625                 6.3729
 IR Inten    --     14.9093                27.5205                27.7429

                     49                     50                     51
                      A                      A                      A
 Frequencies --   3147.9211              3179.0696              3195.6946
 Red. masses --      1.0885                 1.0906                 1.0968
 Frc consts  --      6.3553                 6.4941                 6.5992
 IR Inten    --     17.4704                17.1486                20.1345

 - Thermochemistry -
 -------------------
 Temperature   298.150 Kelvin.  Pressure   1.00000 Atm.
 Atom     1 has atomic number  6 and mass  12.00000

 Molecular mass:   126.06808 amu.
 Principal axes and moments of inertia in atomic units:
                           1         2         3
     Eigenvalues --   568.743631040.732051209.91500
           X            0.99964  -0.02057   0.01726
           Y            0.02157   0.99798  -0.05982
           Z           -0.01599   0.06017   0.99806
 This molecule is an asymmetric top.
 Rotational symmetry number  1.
 Warning -- assumption of classical behavior for rotation
           may cause significant error
 Rotational temperatures (Kelvin)      0.15229     0.08322     0.07159
 Rotational constants (GHZ):           3.17321     1.73411     1.49163
 Zero-point vibrational energy     422430.1 (Joules/Mol)
                                  100.96321 (Kcal/Mol)
 Warning -- explicit consideration of   9 degrees of freedom as
           vibrations may cause significant error
 Vibrational temperatures:    185.15   286.15   324.89   458.98   557.28
          (Kelvin)            653.59   705.39   774.69   844.04  1014.52
                             1089.84  1147.17  1152.09  1202.58  1247.77
                             1328.33  1361.41  1382.27  1420.69  1448.90
                             1474.35  1501.63  1549.41  1565.82  1600.46
                             1606.46  1648.79  1687.47  1754.01  1758.16
                             1803.51  1866.48  1914.14  1955.91  1985.09
                             2015.76  2017.12  2055.89  2126.79  2138.45
                             2146.86  4383.92  4397.88  4410.82  4465.00
                             4493.27  4494.47  4508.56  4529.15  4573.97
                             4597.89

 Zero-point correction=                           0.160895 (Hartree/Particle)
 Thermal correction to Energy=                    0.168093
 Thermal correction to Enthalpy=                  0.169038
 Thermal correction to Gibbs Free Energy=         0.129616
 Sum of electronic and zero-point Energies=           -422.996577
 Sum of electronic and thermal Energies=              -422.989379
 Sum of electronic and thermal Enthalpies=            -422.988435
 Sum of electronic and thermal Free Energies=         -423.027857

                     E (Thermal)             CV                S
                      KCal/Mol        Cal/Mol-Kelvin    Cal/Mol-Kelvin
 Total                  105.480             29.485             82.971
 Electronic               0.000              0.000              0.000
 Translational            0.889              2.981             40.409
 Rotational               0.889              2.981             28.062
 Vibrational            103.703             23.523             14.500
 Vibration     1          0.611              1.925              2.966
 Vibration     2          0.637              1.841              2.143
 Vibration     3          0.650              1.802              1.912
 Vibration     4          0.705              1.637              1.315
 Vibration     5          0.756              1.497              1.010
 Vibration     6          0.813              1.351              0.783
 Vibration     7          0.846              1.272              0.683
 Vibration     8          0.893              1.165              0.569
 Vibration     9          0.944              1.060              0.473

 Optimization completed.
    -- Stationary point found.
 Normal termination of Gaussian 09 at Tue Jan 28 03:43:18 2020.
