 Gaussian 09, Revision D.01,
 Gaussian 09:  ES64L-G09RevD.01 24-Apr-2013

 -----------------------------
 # b3lyp 6-31G(2df,p) opt Freq
 -----------------------------

 -----
 titel
 -----
 Symbolic Z-matrix:
 Charge =  0 Multiplicity = 1

 SCF Done:  E(RB3LYP) =  -423.183931359     A.U. after   13 cycles
 Optimization completed.
    -- Stationary point found.
 Normal termination of Gaussian 09 at Mon Jan 27 12:51:40 2020.

 ----------------------------------------------------------------------
 #N Geom=AllCheck Guess=TCheck SCRF=Check GenChk RB3LYP/6-31G(2df,p) Fr
 eq
 ----------------------------------------------------------------------

 Structure from the checkpoint file:  "/scratch/puck/g09_f1852c0e-fb3a-4d51-b73e-e07dc16d06a2/Gau-135214.chk"
 -----
 titel
 -----
 Charge =  0 Multiplicity = 1

                         Standard orientation:
 ---------------------------------------------------------------------
 Center     Atomic      Atomic             Coordinates (Angstroms)
 Number     Number       Type             X           Y           Z
 ---------------------------------------------------------------------
      1          6           0        1.579366    0.223614   -0.917742
      2          6           0        1.481930   -1.141297   -0.200280
      3          6           0        0.248717   -1.016347    0.709882
      4          8           0       -0.915336   -1.379802   -0.063971
      5          6           0       -1.865237   -0.370476   -0.223780
      6          8           0       -1.298388    0.821030   -0.724741
      7          6           0       -0.445039    1.388114    0.229520
      8          6           0        1.046328    1.227491    0.107563
      9          6           0        0.269952    0.448994    1.165267
     10          1           0        2.602892    0.462946   -1.214784
     11          1           0        0.958075    0.232177   -1.818349
     12          1           0        1.397814   -1.997902   -0.874145
     13          1           0        2.366145   -1.285592    0.432221
     14          1           0        0.288448   -1.700745    1.563725
     15          1           0       -2.579841   -0.725583   -0.969477
     16          1           0       -2.382241   -0.154674    0.726981
     17          1           0       -0.817892    2.329851    0.627814
     18          1           0        1.657042    2.077690    0.389308
     19          1           0        0.323256    0.671446    2.223826
 ---------------------------------------------------------------------

 SCF Done:  E(RB3LYP) =  -423.183931359     A.U. after    1 cycles

 The electronic state is 1-A.
 Alpha  occ. eigenvalues --  -19.14745 -19.13655 -10.26947 -10.23809 -10.23593
 Alpha  occ. eigenvalues --  -10.19179 -10.19052 -10.17964 -10.17710  -1.07266
 Alpha  occ. eigenvalues --   -1.00248  -0.87684  -0.76181  -0.71485  -0.67219
 Alpha  occ. eigenvalues --   -0.60540  -0.56553  -0.54427  -0.52144  -0.51105
 Alpha  occ. eigenvalues --   -0.48288  -0.44921  -0.44417  -0.42937  -0.38696
 Alpha  occ. eigenvalues --   -0.38566  -0.35694  -0.35052  -0.34005  -0.32980
 Alpha  occ. eigenvalues --   -0.29073  -0.28106  -0.25880  -0.24978
 Alpha virt. eigenvalues --    0.07798   0.10282   0.11594   0.12483   0.12928
 Alpha virt. eigenvalues --    0.14567   0.14939   0.16132   0.16406   0.17148
 Alpha virt. eigenvalues --    0.18246   0.18455   0.20394   0.20935   0.22467

 Mulliken charges:
               1
     1  C   -0.236497
     2  C   -0.197590
     3  C    0.109897
     4  O   -0.270497
     5  C    0.015716
     6  O   -0.238080
     7  C    0.090123
     8  C   -0.077185
     9  C   -0.155649
    10  H    0.097074
    11  H    0.122580
    12  H    0.105087
    13  H    0.093937
    14  H    0.079640
    15  H    0.116147
    16  H    0.078684
    17  H    0.091791
    18  H    0.086011
    19  H    0.088810
 Sum of Mulliken charges =   0.00000

 Dipole moment (field-independent basis, Debye):
    X=              0.7853    Y=              0.6084    Z=              1.4897  Tot=              1.7905
 Quadrupole moment (field-independent basis, Debye-Ang):
   XX=            -50.8878   YY=            -54.1269   ZZ=            -52.5496
   XY=              0.1766   XZ=             -0.7196   YZ=              1.4351

  Exact polarizability:  80.019   0.162  72.679  -0.716   1.348  66.738
 Approx polarizability: 110.328   0.885 106.191   1.754  -0.274 102.884

                      1                      2                      3
                      A                      A                      A
 Frequencies --    104.8996               225.5218               336.5930
 Red. masses --      4.3622                 2.4290                 2.1444
 Frc consts  --      0.0283                 0.0728                 0.1431
 IR Inten    --      2.1947                 1.5451                 4.3710

                      4                      5                      6
                      A                      A                      A
 Frequencies --    389.9244               467.6364               519.4360
 Red. masses --      2.4563                 5.8140                 3.8043
 Frc consts  --      0.2200                 0.7491                 0.6048
 IR Inten    --      2.2819                 2.0503                 3.0626

                      7                      8                      9
                      A                      A                      A
 Frequencies --    570.4526               642.0338               678.8440
 Red. masses --      4.7885                 2.6511                 5.5475
 Frc consts  --      0.9181                 0.6439                 1.5062
 IR Inten    --      1.2286                 0.2425                 5.4116

                     10                     11                     12
                      A                      A                      A
 Frequencies --    755.8455               776.5422               809.9234
 Red. masses --      2.3579                 2.0537                 3.8468
 Frc consts  --      0.7937                 0.7297                 1.4868
 IR Inten    --     12.4347                 6.6948                 6.5040

                     13                     14                     15
                      A                      A                      A
 Frequencies --    833.6409               871.4063               914.7685
 Red. masses --      2.3500                 2.0158                 2.6127
 Frc consts  --      0.9622                 0.9019                 1.2881
 IR Inten    --      4.4609                 1.7719                 5.2352

                     16                     17                     18
                      A                      A                      A
 Frequencies --    936.9773               971.9255               984.4823
 Red. masses --      2.1418                 3.8653                 2.1680
 Frc consts  --      1.1078                 2.1513                 1.2380
 IR Inten    --      3.3844                22.0198                11.8201

                     19                     20                     21
                      A                      A                      A
 Frequencies --   1019.0866              1035.9857              1044.1664
 Red. masses --      2.1645                 1.7820                 1.7819
 Frc consts  --      1.3244                 1.1268                 1.1446
 IR Inten    --     34.8460                12.9738                12.3630

                     22                     23                     24
                      A                      A                      A
 Frequencies --   1059.3284              1100.5714              1113.8320
 Red. masses --      2.5038                 2.7529                 1.2908
 Frc consts  --      1.6554                 1.9646                 0.9435
 IR Inten    --     33.4402                73.1230                 1.0920

                     25                     26                     27
                      A                      A                      A
 Frequencies --   1135.3240              1183.3345              1199.7707
 Red. masses --      2.2209                 1.7488                 1.3085
 Frc consts  --      1.6867                 1.4428                 1.1097
 IR Inten    --     43.9004                 8.4567                 2.5883

                     28                     29                     30
                      A                      A                      A
 Frequencies --   1213.8977              1231.0493              1296.5015
 Red. masses --      1.5854                 2.3040                 1.4105
 Frc consts  --      1.3764                 2.0572                 1.3970
 IR Inten    --      8.9245               115.2778                 4.2286

                     31                     32                     33
                      A                      A                      A
 Frequencies --   1299.4184              1312.5438              1328.4375
 Red. masses --      1.3271                 1.3212                 1.4041
 Frc consts  --      1.3202                 1.3411                 1.4599
 IR Inten    --      2.8132                 2.1769                 3.7142

                     34                     35                     36
                      A                      A                      A
 Frequencies --   1344.7372              1358.2113              1363.7071
 Red. masses --      1.3767                 1.4560                 1.2969
 Frc consts  --      1.4667                 1.5825                 1.4210
 IR Inten    --      2.6184                 4.6779                 6.8212

                     37                     38                     39
                      A                      A                      A
 Frequencies --   1411.2028              1445.3334              1477.1013
 Red. masses --      1.8725                 1.2855                 1.1007
 Frc consts  --      2.1971                 1.5822                 1.4149
 IR Inten    --     20.9962                14.6272                 0.4989

                     40                     41                     42
                      A                      A                      A
 Frequencies --   1495.6508              1516.3233              2952.7621
 Red. masses --      1.0980                 1.1050                 1.0698
 Frc consts  --      1.4471                 1.4970                 5.4954
 IR Inten    --      5.1268                 1.1461                95.2434

                     43                     44                     45
                      A                      A                      A
 Frequencies --   3033.9310              3051.6156              3061.0103
 Red. masses --      1.0690                 1.0824                 1.0614
 Frc consts  --      5.7973                 5.9389                 5.8595
 IR Inten    --     12.2709                70.2979                21.5642

                     46                     47                     48
                      A                      A                      A
 Frequencies --   3100.5389              3108.5778              3110.9600
 Red. masses --      1.0980                 1.0941                 1.1048
 Frc consts  --      6.2192                 6.2291                 6.2997
 IR Inten    --     17.1808                43.3777                22.7533

                     49                     50                     51
                      A                      A                      A
 Frequencies --   3117.3823              3171.1146              3183.3314
 Red. masses --      1.0887                 1.0894                 1.0934
 Frc consts  --      6.2334                 6.4548                 6.5284
 IR Inten    --     29.0566                15.4535                18.1507

 - Thermochemistry -
 -------------------
 Temperature   298.150 Kelvin.  Pressure   1.00000 Atm.
 Atom     1 has atomic number  6 and mass  12.00000

 Molecular mass:   126.06808 amu.
 Principal axes and moments of inertia in atomic units:
                           1         2         3
     Eigenvalues --   688.38290 874.283131149.13800
           X            0.99961  -0.01583  -0.02320
           Y            0.01640   0.99956   0.02475
           Z            0.02280  -0.02512   0.99942
 This molecule is an asymmetric top.
 Rotational symmetry number  1.
 Warning -- assumption of classical behavior for rotation
           may cause significant error
 Rotational temperatures (Kelvin)      0.12582     0.09907     0.07537
 Rotational constants (GHZ):           2.62171     2.06425     1.57052
 Zero-point vibrational energy     428667.4 (Joules/Mol)
                                  102.45397 (Kcal/Mol)
 Warning -- explicit consideration of   7 degrees of freedom as
           vibrations may cause significant error
 Vibrational temperatures:    150.93   324.48   484.28   561.01   672.82
          (Kelvin)            747.35   820.75   923.74   976.70  1087.49
                             1117.27  1165.30  1199.42  1253.76  1316.15
                             1348.10  1398.38  1416.45  1466.24  1490.55
                             1502.32  1524.14  1583.47  1602.55  1633.48
                             1702.55  1726.20  1746.53  1771.20  1865.37
                             1869.57  1888.46  1911.32  1934.77  1954.16
                             1962.07  2030.40  2079.51  2125.22  2151.91
                             2181.65  4248.36  4365.14  4390.59  4404.11
                             4460.98  4472.54  4475.97  4485.21  4562.52
                             4580.10

 Zero-point correction=                           0.163271 (Hartree/Particle)
 Thermal correction to Energy=                    0.169863
 Thermal correction to Enthalpy=                  0.170807
 Thermal correction to Gibbs Free Energy=         0.132381
 Sum of electronic and zero-point Energies=           -423.020661
 Sum of electronic and thermal Energies=              -423.014068
 Sum of electronic and thermal Enthalpies=            -423.013124
 Sum of electronic and thermal Free Energies=         -423.051550

                     E (Thermal)             CV                S
                      KCal/Mol        Cal/Mol-Kelvin    Cal/Mol-Kelvin
 Total                  106.591             27.476             80.875
 Electronic               0.000              0.000              0.000
 Translational            0.889              2.981             40.409
 Rotational               0.889              2.981             28.027
 Vibrational            104.813             21.515             12.439
 Vibration     1          0.605              1.945              3.361
 Vibration     2          0.650              1.802              1.914
 Vibration     3          0.717              1.602              1.228
 Vibration     4          0.758              1.492              1.000
 Vibration     5          0.825              1.322              0.744
 Vibration     6          0.874              1.207              0.611
 Vibration     7          0.927              1.095              0.503

 Optimization completed.
    -- Stationary point found.
 Normal termination of Gaussian 09 at Mon Jan 27 13:53:54 2020.
