 Gaussian 09, Revision D.01,
 Gaussian 09:  ES64L-G09RevD.01 24-Apr-2013

 -----------------------------
 # b3lyp 6-31G(2df,p) opt Freq
 -----------------------------

 -----
 titel
 -----
 Symbolic Z-matrix:
 Charge =  0 Multiplicity = 1

 SCF Done:  E(RB3LYP) =  -423.150543291     A.U. after   13 cycles
 Optimization completed.
    -- Stationary point found.
 Normal termination of Gaussian 09 at Tue Jan 28 03:40:22 2020.

 ----------------------------------------------------------------------
 #N Geom=AllCheck Guess=TCheck SCRF=Check GenChk RB3LYP/6-31G(2df,p) Fr
 eq
 ----------------------------------------------------------------------

 Structure from the checkpoint file:  "/scratch/puck/g09_41f2f8e0-c72d-4779-ba60-36d86dc7f9f4/Gau-8559.chk"
 -----
 titel
 -----
 Charge =  0 Multiplicity = 1

                         Standard orientation:
 ---------------------------------------------------------------------
 Center     Atomic      Atomic             Coordinates (Angstroms)
 Number     Number       Type             X           Y           Z
 ---------------------------------------------------------------------
      1          6           0        2.540887   -0.105435    0.062241
      2          6           0        1.099682   -0.382764    0.460786
      3          8           0        0.493049   -1.137326   -0.601612
      4          6           0       -0.892527   -0.882978   -0.711050
      5          6           0       -1.593234   -0.936193    0.676130
      6          6           0       -1.263569    0.562450    0.801219
      7          6           0       -1.159526    0.690034   -0.731394
      8          8           0        0.057223    1.438039   -0.688114
      9          6           0        0.268019    0.886194    0.646273
     10          1           0        3.086501    0.364276    0.887012
     11          1           0        3.043007   -1.041563   -0.195741
     12          1           0        2.563653    0.555803   -0.807190
     13          1           0        1.077537   -0.971556    1.392411
     14          1           0       -1.270360   -1.499143   -1.527568
     15          1           0       -2.673038   -1.083395    0.578718
     16          1           0       -1.199465   -1.648593    1.405242
     17          1           0       -1.833852    1.235790    1.440803
     18          1           0       -1.914836    1.086480   -1.411891
     19          1           0        0.720285    1.608349    1.330779
 ---------------------------------------------------------------------

 SCF Done:  E(RB3LYP) =  -423.150543291     A.U. after    1 cycles

 The electronic state is 1-A.
 Alpha  occ. eigenvalues --  -19.13827 -19.13542 -10.23905 -10.23307 -10.23292
 Alpha  occ. eigenvalues --  -10.23247 -10.19534 -10.18625 -10.17108  -1.06529
 Alpha  occ. eigenvalues --   -1.01337  -0.82822  -0.77533  -0.69041  -0.65026
 Alpha  occ. eigenvalues --   -0.62666  -0.60357  -0.53657  -0.50618  -0.48880
 Alpha  occ. eigenvalues --   -0.47190  -0.44791  -0.42320  -0.40601  -0.39093
 Alpha  occ. eigenvalues --   -0.39050  -0.37484  -0.37178  -0.35042  -0.32211
 Alpha  occ. eigenvalues --   -0.30274  -0.29476  -0.25779  -0.22630
 Alpha virt. eigenvalues --    0.06914   0.08965   0.10999   0.11731   0.13244
 Alpha virt. eigenvalues --    0.13899   0.14847   0.15966   0.16571   0.17174
 Alpha virt. eigenvalues --    0.17817   0.18862   0.18964   0.20168   0.21436

 Mulliken charges:
               1
     1  C   -0.407159
     2  C    0.137577
     3  O   -0.275996
     4  C    0.067598
     5  C   -0.273504
     6  C   -0.101176
     7  C    0.114299
     8  O   -0.289861
     9  C    0.055576
    10  H    0.107774
    11  H    0.125412
    12  H    0.141560
    13  H    0.067725
    14  H    0.081635
    15  H    0.105256
    16  H    0.107372
    17  H    0.075754
    18  H    0.079518
    19  H    0.080637
 Sum of Mulliken charges =   0.00000

 Dipole moment (field-independent basis, Debye):
    X=             -1.2167    Y=             -0.1743    Z=              1.6431  Tot=              2.0520
 Quadrupole moment (field-independent basis, Debye-Ang):
   XX=            -49.4129   YY=            -56.2634   ZZ=            -52.4489
   XY=              0.5139   XZ=              2.7851   YZ=              1.2581

  Exact polarizability:  84.275   1.787  68.669   3.233   1.020  68.164
 Approx polarizability: 111.194   2.673 104.261   4.461   0.511 106.996

                      1                      2                      3
                      A                      A                      A
 Frequencies --    160.9207               233.4435               278.6752
 Red. masses --      3.3500                 1.0699                 2.6151
 Frc consts  --      0.0511                 0.0344                 0.1197
 IR Inten    --      2.4167                 0.1429                 1.4413

                      4                      5                      6
                      A                      A                      A
 Frequencies --    356.1116               403.4945               424.7727
 Red. masses --      2.4399                 6.9762                 3.0793
 Frc consts  --      0.1823                 0.6692                 0.3273
 IR Inten    --      1.6112                 1.8770                 1.6624

                      7                      8                      9
                      A                      A                      A
 Frequencies --    514.8788               594.4858               680.9187
 Red. masses --      2.6041                 5.2676                 4.0327
 Frc consts  --      0.4067                 1.0968                 1.1016
 IR Inten    --      3.0389                 1.7925                 9.5067

                     10                     11                     12
                      A                      A                      A
 Frequencies --    727.5227               758.8636               808.4817
 Red. masses --      5.3124                 2.2836                 2.8186
 Frc consts  --      1.6567                 0.7748                 1.0855
 IR Inten    --      5.7896                 1.6313                 5.5820

                     13                     14                     15
                      A                      A                      A
 Frequencies --    826.8362               842.4642               875.5489
 Red. masses --      2.0727                 2.0976                 2.6685
 Frc consts  --      0.8349                 0.8771                 1.2052
 IR Inten    --      6.7692                 3.9162                19.0385

                     16                     17                     18
                      A                      A                      A
 Frequencies --    933.2310               946.5459               984.0963
 Red. masses --      1.7943                 2.7241                 3.0891
 Frc consts  --      0.9207                 1.4380                 1.7626
 IR Inten    --      1.9660                10.3520                24.3179

                     19                     20                     21
                      A                      A                      A
 Frequencies --    997.0204              1018.5263              1040.1851
 Red. masses --      2.5548                 1.9383                 2.2906
 Frc consts  --      1.4963                 1.1847                 1.4602
 IR Inten    --     44.8395                 4.4822                31.5530

                     22                     23                     24
                      A                      A                      A
 Frequencies --   1050.9269              1078.3919              1115.8001
 Red. masses --      1.8540                 2.0979                 1.9748
 Frc consts  --      1.2064                 1.4375                 1.4486
 IR Inten    --     20.6385                22.0871                 2.5936

                     25                     26                     27
                      A                      A                      A
 Frequencies --   1126.2993              1149.3548              1174.1715
 Red. masses --      1.9232                 2.1541                 2.2581
 Frc consts  --      1.4374                 1.6766                 1.8343
 IR Inten    --      3.0902                11.3854                62.0240

                     28                     29                     30
                      A                      A                      A
 Frequencies --   1196.7261              1218.0373              1239.6722
 Red. masses --      1.4475                 1.6856                 1.3111
 Frc consts  --      1.2214                 1.4734                 1.1872
 IR Inten    --      0.2747                 4.7656                 0.7719

                     31                     32                     33
                      A                      A                      A
 Frequencies --   1267.7968              1299.0233              1305.5775
 Red. masses --      1.5152                 1.4010                 1.6236
 Frc consts  --      1.4349                 1.3929                 1.6306
 IR Inten    --      6.4218                 4.1211                 2.2014

                     34                     35                     36
                      A                      A                      A
 Frequencies --   1331.7810              1345.8391              1374.2194
 Red. masses --      1.6260                 1.3397                 1.4456
 Frc consts  --      1.6992                 1.4296                 1.6085
 IR Inten    --      1.3953                 7.7541                 8.7407

                     37                     38                     39
                      A                      A                      A
 Frequencies --   1384.4070              1403.8516              1483.4623
 Red. masses --      1.4599                 1.3800                 1.0657
 Frc consts  --      1.6485                 1.6024                 1.3817
 IR Inten    --      2.4212                12.8821                 1.4595

                     40                     41                     42
                      A                      A                      A
 Frequencies --   1486.3225              1501.2030              2965.8399
 Red. masses --      1.0973                 1.0520                 1.0820
 Frc consts  --      1.4283                 1.3969                 5.6075
 IR Inten    --      7.6919                 2.3526                46.6931

                     43                     44                     45
                      A                      A                      A
 Frequencies --   3044.1246              3056.0107              3078.9176
 Red. masses --      1.0357                 1.0582                 1.0891
 Frc consts  --      5.6546                 5.8227                 6.0830
 IR Inten    --     18.7848                27.3779                37.5275

                     46                     47                     48
                      A                      A                      A
 Frequencies --   3097.7951              3108.3261              3110.6095
 Red. masses --      1.0889                 1.0974                 1.0987
 Frc consts  --      6.1567                 6.2467                 6.2638
 IR Inten    --     26.2538                37.1975                52.2424

                     49                     50                     51
                      A                      A                      A
 Frequencies --   3116.5372              3117.2869              3134.8540
 Red. masses --      1.0991                 1.0947                 1.1025
 Frc consts  --      6.2895                 6.2677                 6.3836
 IR Inten    --     20.8901                41.6168                13.0101

 - Thermochemistry -
 -------------------
 Temperature   298.150 Kelvin.  Pressure   1.00000 Atm.
 Atom     1 has atomic number  6 and mass  12.00000

 Molecular mass:   126.06808 amu.
 Principal axes and moments of inertia in atomic units:
                           1         2         3
     Eigenvalues --   603.49799 990.255781161.20670
           X            0.99981   0.01732   0.00861
           Y           -0.01740   0.99981   0.00911
           Z           -0.00845  -0.00926   0.99992
 This molecule is an asymmetric top.
 Rotational symmetry number  1.
 Warning -- assumption of classical behavior for rotation
           may cause significant error
 Rotational temperatures (Kelvin)      0.14352     0.08747     0.07459
 Rotational constants (GHZ):           2.99047     1.82250     1.55419
 Zero-point vibrational energy     423299.7 (Joules/Mol)
                                  101.17106 (Kcal/Mol)
 Warning -- explicit consideration of   8 degrees of freedom as
           vibrations may cause significant error
 Vibrational temperatures:    231.53   335.87   400.95   512.36   580.54
          (Kelvin)            611.15   740.79   855.33   979.69  1046.74
                             1091.83  1163.22  1189.63  1212.12  1259.72
                             1342.71  1361.87  1415.89  1434.49  1465.43
                             1496.59  1512.05  1551.56  1605.39  1620.49
                             1653.66  1689.37  1721.82  1752.48  1783.61
                             1824.07  1869.00  1878.43  1916.13  1936.36
                             1977.19  1991.85  2019.83  2134.37  2138.48
                             2159.89  4267.18  4379.81  4396.91  4429.87
                             4457.03  4472.18  4475.47  4484.00  4485.08
                             4510.35

 Zero-point correction=                           0.161226 (Hartree/Particle)
 Thermal correction to Energy=                    0.168068
 Thermal correction to Enthalpy=                  0.169013
 Thermal correction to Gibbs Free Energy=         0.130395
 Sum of electronic and zero-point Energies=           -422.989317
 Sum of electronic and thermal Energies=              -422.982475
 Sum of electronic and thermal Enthalpies=            -422.981531
 Sum of electronic and thermal Free Energies=         -423.020149

                     E (Thermal)             CV                S
                      KCal/Mol        Cal/Mol-Kelvin    Cal/Mol-Kelvin
 Total                  105.464             28.624             81.278
 Electronic               0.000              0.000              0.000
 Translational            0.889              2.981             40.409
 Rotational               0.889              2.981             28.031
 Vibrational            103.687             22.662             12.839
 Vibration     1          0.622              1.890              2.539
 Vibration     2          0.654              1.790              1.852
 Vibration     3          0.679              1.713              1.542
 Vibration     4          0.732              1.563              1.139
 Vibration     5          0.769              1.463              0.950
 Vibration     6          0.787              1.416              0.876
 Vibration     7          0.870              1.217              0.622
 Vibration     8          0.952              1.044              0.459

 Optimization completed.
    -- Stationary point found.
 Normal termination of Gaussian 09 at Tue Jan 28 04:25:22 2020.
