 Gaussian 09, Revision D.01,
 Gaussian 09:  ES64L-G09RevD.01 24-Apr-2013

 -----------------------------
 # b3lyp 6-31G(2df,p) opt Freq
 -----------------------------

 -----
 titel
 -----
 Symbolic Z-matrix:
 Charge =  0 Multiplicity = 1

 SCF Done:  E(RB3LYP) =  -423.131764089     A.U. after   13 cycles
 Optimization completed.
    -- Stationary point found.
 Normal termination of Gaussian 09 at Mon Jan 27 17:14:31 2020.

 ----------------------------------------------------------------------
 #N Geom=AllCheck Guess=TCheck SCRF=Check GenChk RB3LYP/6-31G(2df,p) Fr
 eq
 ----------------------------------------------------------------------

 Structure from the checkpoint file:  "/scratch/puck/g09_4dbee46d-dd1a-40b6-b6e9-7374a243fff3/Gau-86059.chk"
 -----
 titel
 -----
 Charge =  0 Multiplicity = 1

                         Standard orientation:
 ---------------------------------------------------------------------
 Center     Atomic      Atomic             Coordinates (Angstroms)
 Number     Number       Type             X           Y           Z
 ---------------------------------------------------------------------
      1          6           0        1.665845    1.437024   -0.408605
      2          6           0        0.548372    0.687877    0.268774
      3          6           0        0.815650   -0.220135    1.462336
      4          6           0        0.382791   -0.825066    0.164737
      5          8           0        1.262853   -1.657996   -0.513307
      6          6           0       -1.113259   -0.868515   -0.204468
      7          6           0       -1.818841    0.122312    0.743538
      8          6           0       -0.910419    1.064495   -0.072757
      9          8           0       -1.168324    0.186499   -1.239756
     10          1           0        2.579807    0.835132   -0.426095
     11          1           0        1.399323    1.668872   -1.445993
     12          1           0        1.895160    2.380705    0.099134
     13          1           0        1.870252   -0.359194    1.683236
     14          1           0        0.184706   -0.231958    2.343451
     15          1           0        1.150248   -1.484001   -1.456291
     16          1           0       -1.533504   -1.824144   -0.517946
     17          1           0       -2.863204    0.248308    0.459170
     18          1           0       -1.717142    0.037292    1.825442
     19          1           0       -1.142716    2.113015   -0.260928
 ---------------------------------------------------------------------

 SCF Done:  E(RB3LYP) =  -423.131764089     A.U. after    1 cycles

 The electronic state is 1-A.
 Alpha  occ. eigenvalues --  -19.14795 -19.13036 -10.24186 -10.24025 -10.23533
 Alpha  occ. eigenvalues --  -10.19253 -10.19117 -10.19060 -10.17863  -1.05063
 Alpha  occ. eigenvalues --   -1.02447  -0.86082  -0.74542  -0.72137  -0.67567
 Alpha  occ. eigenvalues --   -0.63155  -0.56783  -0.54633  -0.51058  -0.49427
 Alpha  occ. eigenvalues --   -0.46596  -0.44055  -0.42101  -0.40695  -0.40458
 Alpha  occ. eigenvalues --   -0.38829  -0.37017  -0.36032  -0.34810  -0.32592
 Alpha  occ. eigenvalues --   -0.30761  -0.29264  -0.24708  -0.23389
 Alpha virt. eigenvalues --    0.07730   0.09306   0.10148   0.10516   0.11961
 Alpha virt. eigenvalues --    0.12287   0.14304   0.15438   0.16641   0.16873
 Alpha virt. eigenvalues --    0.17563   0.17587   0.19043   0.21061   0.22622

 Mulliken charges:
               1
     1  C   -0.490352
     2  C    0.261109
     3  C   -0.409159
     4  C    0.411588
     5  O   -0.469058
     6  C   -0.021033
     7  C   -0.246603
     8  C    0.010053
     9  O   -0.315607
    10  H    0.126132
    11  H    0.124533
    12  H    0.118091
    13  H    0.122332
    14  H    0.112389
    15  H    0.288764
    16  H    0.082699
    17  H    0.115687
    18  H    0.100248
    19  H    0.078187
 Sum of Mulliken charges =   0.00000

 Dipole moment (field-independent basis, Debye):
    X=             -0.3024    Y=              0.7365    Z=              0.7781  Tot=              1.1133
 Quadrupole moment (field-independent basis, Debye-Ang):
   XX=            -53.3132   YY=            -53.7192   ZZ=            -52.5392
   XY=              2.2810   XZ=             -3.1333   YZ=              1.6249

  Exact polarizability:  78.160   1.684  72.678  -0.008  -0.500  70.141
 Approx polarizability: 105.854  -0.690 112.442   3.104  -0.269 111.900

                      1                      2                      3
                      A                      A                      A
 Frequencies --    180.3284               186.1069               195.8682
 Red. masses --      1.9583                 1.3473                 3.3451
 Frc consts  --      0.0375                 0.0275                 0.0756
 IR Inten    --      1.2719                 0.1948                 3.9940

                      4                      5                      6
                      A                      A                      A
 Frequencies --    273.3775               350.5688               399.2633
 Red. masses --      3.5784                 2.6578                 1.2505
 Frc consts  --      0.1576                 0.1925                 0.1175
 IR Inten    --      3.6495                 4.4122                99.0214

                      7                      8                      9
                      A                      A                      A
 Frequencies --    468.9291               502.5314               518.7306
 Red. masses --      2.2190                 2.3243                 3.3494
 Frc consts  --      0.2875                 0.3458                 0.5310
 IR Inten    --      0.0715                 2.0336                 2.4807

                     10                     11                     12
                      A                      A                      A
 Frequencies --    544.1669               630.9152               714.8174
 Red. masses --      3.5343                 6.0758                 3.1942
 Frc consts  --      0.6166                 1.4249                 0.9616
 IR Inten    --      8.2212                 7.7744                10.8807

                     13                     14                     15
                      A                      A                      A
 Frequencies --    727.7967               786.8332               841.3853
 Red. masses --      4.0289                 4.5672                 4.4919
 Frc consts  --      1.2574                 1.6659                 1.8736
 IR Inten    --      6.6414                10.6310                36.6829

                     16                     17                     18
                      A                      A                      A
 Frequencies --    856.7094               901.4921               908.8611
 Red. masses --      3.0238                 2.1313                 1.8021
 Frc consts  --      1.3076                 1.0205                 0.8771
 IR Inten    --     20.4396                 5.3982                 2.5596

                     19                     20                     21
                      A                      A                      A
 Frequencies --    939.6942               963.9590               975.7203
 Red. masses --      3.2201                 1.6744                 1.4728
 Frc consts  --      1.6753                 0.9167                 0.8261
 IR Inten    --     26.3331                10.3647                 2.5846

                     22                     23                     24
                      A                      A                      A
 Frequencies --   1024.4072              1049.5013              1067.2788
 Red. masses --      1.6529                 1.2245                 2.4117
 Frc consts  --      1.0220                 0.7946                 1.6186
 IR Inten    --      1.5746                12.0602                 1.9183

                     25                     26                     27
                      A                      A                      A
 Frequencies --   1085.1896              1101.1516              1150.5304
 Red. masses --      1.3682                 1.8154                 1.8171
 Frc consts  --      0.9493                 1.2969                 1.4172
 IR Inten    --      1.8632                 5.0531                20.5864

                     28                     29                     30
                      A                      A                      A
 Frequencies --   1179.0925              1209.7871              1233.3718
 Red. masses --      1.5797                 1.4037                 2.2902
 Frc consts  --      1.2940                 1.2105                 2.0526
 IR Inten    --      3.7132                11.2955                 8.4185

                     31                     32                     33
                      A                      A                      A
 Frequencies --   1245.8819              1269.1116              1288.9636
 Red. masses --      1.5500                 1.9298                 1.5524
 Frc consts  --      1.4176                 1.8313                 1.5196
 IR Inten    --     17.5678                38.5950                 7.0919

                     34                     35                     36
                      A                      A                      A
 Frequencies --   1332.5532              1356.0171              1409.1110
 Red. masses --      2.3243                 2.1403                 1.6551
 Frc consts  --      2.4317                 2.3187                 1.9362
 IR Inten    --     88.7373                 9.5002                 1.1290

                     37                     38                     39
                      A                      A                      A
 Frequencies --   1414.2066              1486.4246              1491.9318
 Red. masses --      1.3871                 1.4078                 1.0487
 Frc consts  --      1.6345                 1.8327                 1.3753
 IR Inten    --      0.4900                 7.9959                 2.6625

                     40                     41                     42
                      A                      A                      A
 Frequencies --   1501.6014              1517.4471              3025.1021
 Red. masses --      1.0967                 1.1727                 1.0354
 Frc consts  --      1.4569                 1.5910                 5.5828
 IR Inten    --      5.3868                 6.8932                34.6308

                     43                     44                     45
                      A                      A                      A
 Frequencies --   3085.4157              3089.5158              3101.8831
 Red. masses --      1.1010                 1.0578                 1.1000
 Frc consts  --      6.1751                 5.9491                 6.2357
 IR Inten    --     19.4548                27.5168                11.4562

                     46                     47                     48
                      A                      A                      A
 Frequencies --   3118.8537              3125.8579              3129.2190
 Red. masses --      1.0897                 1.0831                 1.0646
 Frc consts  --      6.2454                 6.2353                 6.1422
 IR Inten    --     54.5908                28.8277                13.2306

                     49                     50                     51
                      A                      A                      A
 Frequencies --   3152.4132              3208.9160              3773.6892
 Red. masses --      1.1086                 1.1148                 1.0656
 Frc consts  --      6.4908                 6.7633                 8.9409
 IR Inten    --     23.7944                10.8941                19.2824

 - Thermochemistry -
 -------------------
 Temperature   298.150 Kelvin.  Pressure   1.00000 Atm.
 Atom     1 has atomic number  6 and mass  12.00000

 Molecular mass:   126.06808 amu.
 Principal axes and moments of inertia in atomic units:
                           1         2         3
     Eigenvalues --   738.57331 973.815831131.35651
           X            0.99488   0.09246  -0.04087
           Y           -0.09354   0.99530  -0.02519
           Z            0.03835   0.02888   0.99885
 This molecule is an asymmetric top.
 Rotational symmetry number  1.
 Warning -- assumption of classical behavior for rotation
           may cause significant error
 Rotational temperatures (Kelvin)      0.11727     0.08894     0.07656
 Rotational constants (GHZ):           2.44355     1.85327     1.59520
 Zero-point vibrational energy     419246.1 (Joules/Mol)
                                  100.20223 (Kcal/Mol)
 Warning -- explicit consideration of  10 degrees of freedom as
           vibrations may cause significant error
 Vibrational temperatures:    259.45   267.77   281.81   393.33   504.39
          (Kelvin)            574.45   674.68   723.03   746.34   782.93
                              907.75  1028.46  1047.14  1132.08  1210.56
                             1232.61  1297.04  1307.65  1352.01  1386.92
                             1403.84  1473.89  1510.00  1535.57  1561.34
                             1584.31  1655.35  1696.45  1740.61  1774.54
                             1792.54  1825.97  1854.53  1917.24  1951.00
                             2027.39  2034.73  2138.63  2146.55  2160.47
                             2183.27  4352.44  4439.22  4445.12  4462.91
                             4487.33  4497.41  4502.24  4535.61  4616.91
                             5429.49

 Zero-point correction=                           0.159682 (Hartree/Particle)
 Thermal correction to Energy=                    0.167362
 Thermal correction to Enthalpy=                  0.168306
 Thermal correction to Gibbs Free Energy=         0.128154
 Sum of electronic and zero-point Energies=           -422.972082
 Sum of electronic and thermal Energies=              -422.964403
 Sum of electronic and thermal Enthalpies=            -422.963458
 Sum of electronic and thermal Free Energies=         -423.003610

                     E (Thermal)             CV                S
                      KCal/Mol        Cal/Mol-Kelvin    Cal/Mol-Kelvin
 Total                  105.021             31.501             84.506
 Electronic               0.000              0.000              0.000
 Translational            0.889              2.981             40.409
 Rotational               0.889              2.981             28.189
 Vibrational            103.244             25.540             15.909
 Vibration     1          0.629              1.866              2.325
 Vibration     2          0.632              1.859              2.266
 Vibration     3          0.636              1.846              2.172
 Vibration     4          0.676              1.722              1.575
 Vibration     5          0.727              1.574              1.164
 Vibration     6          0.765              1.472              0.965
 Vibration     7          0.826              1.319              0.741
 Vibration     8          0.858              1.244              0.652
 Vibration     9          0.874              1.209              0.613
 Vibration    10          0.899              1.152              0.556

 Optimization completed.
    -- Stationary point found.
 Normal termination of Gaussian 09 at Mon Jan 27 17:59:01 2020.
