 Gaussian 09, Revision D.01,
 Gaussian 09:  ES64L-G09RevD.01 24-Apr-2013

 -----------------------------
 # b3lyp 6-31G(2df,p) opt Freq
 -----------------------------

 -----
 titel
 -----
 Symbolic Z-matrix:
 Charge =  0 Multiplicity = 1

 SCF Done:  E(RB3LYP) =  -423.177876976     A.U. after   14 cycles
 Optimization completed.
    -- Stationary point found.
 Normal termination of Gaussian 09 at Tue Jan 28 03:56:00 2020.

 ----------------------------------------------------------------------
 #N Geom=AllCheck Guess=TCheck SCRF=Check GenChk RB3LYP/6-31G(2df,p) Fr
 eq
 ----------------------------------------------------------------------

 Structure from the checkpoint file:  "/scratch/puck/g09_ecf88106-1ed9-4100-bd66-bb06cf91632d/Gau-43570.chk"
 -----
 titel
 -----
 Charge =  0 Multiplicity = 1

                         Standard orientation:
 ---------------------------------------------------------------------
 Center     Atomic      Atomic             Coordinates (Angstroms)
 Number     Number       Type             X           Y           Z
 ---------------------------------------------------------------------
      1          8           0       -0.466871    1.628707   -1.167276
      2          6           0       -0.057783    1.114097    0.095950
      3          6           0       -1.256203    0.727190    0.972243
      4          6           0       -1.916836   -0.531243    0.460908
      5          6           0       -1.290608   -1.422197   -0.310296
      6          6           0        0.145744   -1.282559   -0.751337
      7          6           0        0.834960   -0.105468   -0.084575
      8          6           0        2.291065    0.035737   -0.115288
      9          8           0        1.627599   -0.412616    1.074140
     10          1           0       -1.183577    1.068242   -1.486556
     11          1           0        0.518105    1.911274    0.575142
     12          1           0       -0.916509    0.582058    2.006424
     13          1           0       -1.968837    1.559624    0.990044
     14          1           0       -2.950408   -0.703956    0.749729
     15          1           0       -1.819692   -2.307246   -0.655016
     16          1           0        0.707424   -2.194941   -0.518946
     17          1           0        0.189910   -1.166909   -1.843946
     18          1           0        2.896409   -0.717060   -0.619451
     19          1           0        2.739315    1.026853   -0.057952
 ---------------------------------------------------------------------

 SCF Done:  E(RB3LYP) =  -423.177876976     A.U. after    1 cycles

 The electronic state is 1-A.
 Alpha  occ. eigenvalues --  -19.14754 -19.13594 -10.23703 -10.23342 -10.22974
 Alpha  occ. eigenvalues --  -10.19406 -10.19038 -10.18883 -10.18745  -1.06766
 Alpha  occ. eigenvalues --   -1.01855  -0.82543  -0.74938  -0.72654  -0.65908
 Alpha  occ. eigenvalues --   -0.63336  -0.58725  -0.53069  -0.51080  -0.48991
 Alpha  occ. eigenvalues --   -0.45803  -0.45252  -0.44225  -0.42584  -0.40919
 Alpha  occ. eigenvalues --   -0.39182  -0.37890  -0.36022  -0.34648  -0.32950
 Alpha  occ. eigenvalues --   -0.29354  -0.28324  -0.25315  -0.25184
 Alpha virt. eigenvalues --    0.01583   0.08030   0.09261   0.10684   0.11502
 Alpha virt. eigenvalues --    0.12754   0.13006   0.14810   0.16398   0.17030
 Alpha virt. eigenvalues --    0.17602   0.18377   0.18747   0.22375   0.22621

 Mulliken charges:
               1
     1  O   -0.440493
     2  C    0.033578
     3  C   -0.280543
     4  C   -0.084552
     5  C   -0.045971
     6  C   -0.347224
     7  C    0.433204
     8  C   -0.251544
     9  O   -0.284646
    10  H    0.285086
    11  H    0.088441
    12  H    0.131966
    13  H    0.109054
    14  H    0.091748
    15  H    0.091306
    16  H    0.124672
    17  H    0.119644
    18  H    0.110404
    19  H    0.115871
 Sum of Mulliken charges =   0.00000

 Dipole moment (field-independent basis, Debye):
    X=             -0.8779    Y=             -0.7922    Z=             -0.8818  Tot=              1.4751
 Quadrupole moment (field-independent basis, Debye-Ang):
   XX=            -49.2307   YY=            -54.5702   ZZ=            -55.0977
   XY=              1.0470   XZ=             -2.4670   YZ=              4.8917

  Exact polarizability:  86.983   0.021  75.016  -5.540   8.930  65.286
 Approx polarizability: 117.679  -4.291 111.604  -7.777  12.647 108.570

                      1                      2                      3
                      A                      A                      A
 Frequencies --    100.0304               141.3204               211.2576
 Red. masses --      3.4878                 3.0388                 4.2439
 Frc consts  --      0.0206                 0.0358                 0.1116
 IR Inten    --      1.9138                 2.7566                 8.0115

                      4                      5                      6
                      A                      A                      A
 Frequencies --    300.3307               330.3852               349.4653
 Red. masses --      2.9070                 3.3826                 1.1425
 Frc consts  --      0.1545                 0.2175                 0.0822
 IR Inten    --      0.3590                 3.0575                46.7568

                      7                      8                      9
                      A                      A                      A
 Frequencies --    396.8412               407.7366               453.5167
 Red. masses --      1.8219                 2.5412                 4.6334
 Frc consts  --      0.1690                 0.2489                 0.5615
 IR Inten    --      9.0018                15.2132                 1.1100

                     10                     11                     12
                      A                      A                      A
 Frequencies --    520.5914               595.9665               679.4717
 Red. masses --      4.6530                 4.0981                 1.2173
 Frc consts  --      0.7430                 0.8576                 0.3311
 IR Inten    --      5.2224                 4.1129                16.7287

                     13                     14                     15
                      A                      A                      A
 Frequencies --    698.1041               821.2989               858.4072
 Red. masses --      4.4157                 3.6053                 2.4659
 Frc consts  --      1.2679                 1.4328                 1.0705
 IR Inten    --      7.5042                26.6218                 6.7912

                     16                     17                     18
                      A                      A                      A
 Frequencies --    890.8208               910.0416               928.3615
 Red. masses --      2.7623                 1.9763                 3.3808
 Frc consts  --      1.2915                 0.9643                 1.7168
 IR Inten    --      5.0807                 4.1197                 1.8789

                     19                     20                     21
                      A                      A                      A
 Frequencies --    968.4280               984.2820              1007.8689
 Red. masses --      1.7802                 2.0229                 1.4030
 Frc consts  --      0.9837                 1.1547                 0.8397
 IR Inten    --     15.5496                22.3557                 8.6726

                     22                     23                     24
                      A                      A                      A
 Frequencies --   1016.6535              1046.1240              1085.7895
 Red. masses --      3.2665                 1.8224                 2.6963
 Frc consts  --      1.9892                 1.1751                 1.8729
 IR Inten    --     27.8568                 4.6186                52.2988

                     25                     26                     27
                      A                      A                      A
 Frequencies --   1126.0960              1158.2618              1170.7419
 Red. masses --      1.2823                 1.3252                 1.2485
 Frc consts  --      0.9581                 1.0475                 1.0082
 IR Inten    --      3.7317                 0.6831                 7.1822

                     28                     29                     30
                      A                      A                      A
 Frequencies --   1197.8182              1219.6563              1273.3644
 Red. masses --      1.0939                 1.1609                 1.5531
 Frc consts  --      0.9247                 1.0174                 1.4838
 IR Inten    --     24.9048                10.9986                 7.7984

                     31                     32                     33
                      A                      A                      A
 Frequencies --   1295.5223              1307.3403              1334.8891
 Red. masses --      1.7155                 1.7579                 1.9353
 Frc consts  --      1.6964                 1.7702                 2.0318
 IR Inten    --      1.4805                 9.9347                 3.1062

                     34                     35                     36
                      A                      A                      A
 Frequencies --   1367.3237              1407.0414              1419.6157
 Red. masses --      1.5802                 1.4604                 1.3225
 Frc consts  --      1.7406                 1.7035                 1.5704
 IR Inten    --      4.0615                36.5853                28.8100

                     37                     38                     39
                      A                      A                      A
 Frequencies --   1445.0984              1459.7896              1466.3819
 Red. masses --      1.4954                 1.3106                 1.1109
 Frc consts  --      1.8399                 1.6455                 1.4075
 IR Inten    --      1.8164                 8.5778                 4.6919

                     40                     41                     42
                      A                      A                      A
 Frequencies --   1532.2558              1715.1699              3007.4242
 Red. masses --      1.4671                 6.3550                 1.0670
 Frc consts  --      2.0295                11.0148                 5.6860
 IR Inten    --      3.1340                 2.7533                18.6913

                     43                     44                     45
                      A                      A                      A
 Frequencies --   3023.2935              3058.0106              3064.7040
 Red. masses --      1.0628                 1.0930                 1.0987
 Frc consts  --      5.7237                 6.0221                 6.0803
 IR Inten    --     16.0635                10.2813                17.9523

                     46                     47                     48
                      A                      A                      A
 Frequencies --   3072.1753              3079.0882              3147.4109
 Red. masses --      1.0865                 1.0509                 1.0836
 Frc consts  --      6.0420                 5.8701                 6.3247
 IR Inten    --     28.4028                30.3955                 5.1734

                     49                     50                     51
                      A                      A                      A
 Frequencies --   3164.6395              3170.3405              3792.1798
 Red. masses --      1.1192                 1.0969                 1.0657
 Frc consts  --      6.6043                 6.4959                 9.0297
 IR Inten    --     20.8923                34.5840                20.0439

 - Thermochemistry -
 -------------------
 Temperature   298.150 Kelvin.  Pressure   1.00000 Atm.
 Atom     1 has atomic number  8 and mass  15.99491

 Molecular mass:   126.06808 amu.
 Principal axes and moments of inertia in atomic units:
                           1         2         3
     Eigenvalues --   750.422621106.985211327.58686
           X            0.99930   0.01940  -0.03203
           Y           -0.01576   0.99377   0.11031
           Z            0.03397  -0.10973   0.99338
 This molecule is an asymmetric top.
 Rotational symmetry number  1.
 Warning -- assumption of classical behavior for rotation
           may cause significant error
 Rotational temperatures (Kelvin)      0.11542     0.07824     0.06524
 Rotational constants (GHZ):           2.40497     1.63032     1.35941
 Zero-point vibrational energy     419762.0 (Joules/Mol)
                                  100.32553 (Kcal/Mol)
 Warning -- explicit consideration of  11 degrees of freedom as
           vibrations may cause significant error
 Vibrational temperatures:    143.92   203.33   303.95   432.11   475.35
          (Kelvin)            502.80   570.97   586.64   652.51   749.01
                              857.46   977.61  1004.41  1181.66  1235.06
                             1281.69  1309.35  1335.70  1393.35  1416.16
                             1450.10  1462.74  1505.14  1562.21  1620.20
                             1666.48  1684.43  1723.39  1754.81  1832.09
                             1863.97  1880.97  1920.61  1967.27  2024.42
                             2042.51  2079.17  2100.31  2109.79  2204.57
                             2467.74  4327.01  4349.84  4399.79  4409.42
                             4420.17  4430.12  4528.42  4553.20  4561.41
                             5456.09

 Zero-point correction=                           0.159879 (Hartree/Particle)
 Thermal correction to Energy=                    0.167979
 Thermal correction to Enthalpy=                  0.168923
 Thermal correction to Gibbs Free Energy=         0.127515
 Sum of electronic and zero-point Energies=           -423.017998
 Sum of electronic and thermal Energies=              -423.009898
 Sum of electronic and thermal Enthalpies=            -423.008954
 Sum of electronic and thermal Free Energies=         -423.050362

                     E (Thermal)             CV                S
                      KCal/Mol        Cal/Mol-Kelvin    Cal/Mol-Kelvin
 Total                  105.408             31.924             87.152
 Electronic               0.000              0.000              0.000
 Translational            0.889              2.981             40.409
 Rotational               0.889              2.981             28.491
 Vibrational            103.631             25.962             18.252
 Vibration     1          0.604              1.949              3.454
 Vibration     2          0.615              1.912              2.786
 Vibration     3          0.643              1.824              2.033
 Vibration     4          0.693              1.673              1.415
 Vibration     5          0.713              1.615              1.258
 Vibration     6          0.727              1.576              1.169
 Vibration     7          0.763              1.477              0.974
 Vibration     8          0.772              1.453              0.935
 Vibration     9          0.812              1.353              0.785
 Vibration    10          0.876              1.204              0.609
 Vibration    11          0.954              1.040              0.457

 Optimization completed.
    -- Stationary point found.
 Normal termination of Gaussian 09 at Tue Jan 28 04:44:21 2020.
