 Gaussian 09, Revision D.01,
 Gaussian 09:  ES64L-G09RevD.01 24-Apr-2013

 -----------------------------
 # b3lyp 6-31G(2df,p) opt Freq
 -----------------------------

 -----
 titel
 -----
 Symbolic Z-matrix:
 Charge =  0 Multiplicity = 1

 SCF Done:  E(RB3LYP) =  -423.199366673     A.U. after   14 cycles
 Optimization completed.
    -- Stationary point found.
 Normal termination of Gaussian 09 at Mon Jan 27 16:53:07 2020.

 ----------------------------------------------------------------------
 #N Geom=AllCheck Guess=TCheck SCRF=Check GenChk RB3LYP/6-31G(2df,p) Fr
 eq
 ----------------------------------------------------------------------

 Structure from the checkpoint file:  "/scratch/puck/g09_76d46ef5-81e9-4303-8060-0c0f618b8982/Gau-166770.chk"
 -----
 titel
 -----
 Charge =  0 Multiplicity = 1

                         Standard orientation:
 ---------------------------------------------------------------------
 Center     Atomic      Atomic             Coordinates (Angstroms)
 Number     Number       Type             X           Y           Z
 ---------------------------------------------------------------------
      1          8           0        1.008421   -1.020430    1.108885
      2          6           0        0.500634   -0.177651    0.100688
      3          6           0       -0.313389   -0.991148   -0.948592
      4          6           0       -1.737517   -1.084443   -0.354973
      5          6           0       -1.909726    0.197593    0.445171
      6          6           0       -1.500697    1.487342   -0.215580
      7          6           0       -0.534156    0.774330    0.705402
      8          6           0        1.645851    0.573387   -0.545852
      9          8           0        2.794670    0.415067   -0.206462
     10          1           0        1.970796   -0.893784    1.090324
     11          1           0       -0.327214   -0.474657   -1.914557
     12          1           0        0.155706   -1.964513   -1.100861
     13          1           0       -2.496576   -1.215274   -1.133264
     14          1           0       -1.803897   -1.942816    0.321356
     15          1           0       -2.672344    0.232252    1.214663
     16          1           0       -1.319964    1.506310   -1.285369
     17          1           0       -1.938927    2.402722    0.166347
     18          1           0       -0.267610    1.228995    1.651917
     19          1           0        1.369305    1.287220   -1.347529
 ---------------------------------------------------------------------

 SCF Done:  E(RB3LYP) =  -423.199366673     A.U. after    1 cycles

 The electronic state is 1-A.
 Alpha  occ. eigenvalues --  -19.15689 -19.13060 -10.27776 -10.24647 -10.19673
 Alpha  occ. eigenvalues --  -10.19616 -10.19410 -10.19156 -10.18897  -1.06812
 Alpha  occ. eigenvalues --   -1.01488  -0.88615  -0.77068  -0.72665  -0.63456
 Alpha  occ. eigenvalues --   -0.61792  -0.56396  -0.55031  -0.52214  -0.51995
 Alpha  occ. eigenvalues --   -0.47102  -0.45601  -0.44078  -0.41450  -0.40478
 Alpha  occ. eigenvalues --   -0.37983  -0.36911  -0.36189  -0.34617  -0.34416
 Alpha  occ. eigenvalues --   -0.30187  -0.29413  -0.26401  -0.26135
 Alpha virt. eigenvalues --   -0.03337   0.08469   0.08873   0.10953   0.12246
 Alpha virt. eigenvalues --    0.13232   0.14557   0.15042   0.15624   0.17202
 Alpha virt. eigenvalues --    0.17803   0.19664   0.20747   0.22163   0.23010

 Mulliken charges:
               1
     1  O   -0.483595
     2  C    0.310745
     3  C   -0.279151
     4  C   -0.221786
     5  C   -0.026472
     6  C   -0.312020
     7  C   -0.063145
     8  C    0.114075
     9  O   -0.276743
    10  H    0.289737
    11  H    0.100514
    12  H    0.119702
    13  H    0.099546
    14  H    0.119486
    15  H    0.089688
    16  H    0.110358
    17  H    0.117223
    18  H    0.097282
    19  H    0.094558
 Sum of Mulliken charges =   0.00000

 Dipole moment (field-independent basis, Debye):
    X=             -2.0219    Y=              0.7984    Z=             -1.1424  Tot=              2.4558
 Quadrupole moment (field-independent basis, Debye-Ang):
   XX=            -58.4845   YY=            -52.5471   ZZ=            -52.2556
   XY=             -1.0488   XZ=             -0.5240   YZ=              1.6616

  Exact polarizability:  87.757  -0.287  72.107   1.453  -1.786  66.434
 Approx polarizability: 128.032  -0.364 104.689   5.500  -6.254 102.985

                      1                      2                      3
                      A                      A                      A
 Frequencies --     93.8382               123.1688               221.1435
 Red. masses --      5.6798                 3.3668                 2.3300
 Frc consts  --      0.0295                 0.0301                 0.0671
 IR Inten    --      0.1347                 0.6851                 1.5112

                      4                      5                      6
                      A                      A                      A
 Frequencies --    307.3057               326.2200               371.8044
 Red. masses --      3.4013                 2.4652                 2.4300
 Frc consts  --      0.1892                 0.1546                 0.1979
 IR Inten    --     11.4969                 5.5982                 6.1767

                      7                      8                      9
                      A                      A                      A
 Frequencies --    390.0905               430.3270               460.8247
 Red. masses --      2.6811                 4.2934                 2.9890
 Frc consts  --      0.2404                 0.4684                 0.3740
 IR Inten    --     23.7414                 7.7061                 4.2661

                     10                     11                     12
                      A                      A                      A
 Frequencies --    488.5001               636.7144               710.8781
 Red. masses --      1.2735                 2.3095                 2.6469
 Frc consts  --      0.1791                 0.5517                 0.7881
 IR Inten    --     33.3111                 2.3328                14.7209

                     13                     14                     15
                      A                      A                      A
 Frequencies --    799.6531               815.6317               832.7681
 Red. masses --      2.8737                 1.7181                 2.1706
 Frc consts  --      1.0827                 0.6734                 0.8869
 IR Inten    --      3.9467                 4.8903                 5.3367

                     16                     17                     18
                      A                      A                      A
 Frequencies --    846.9517               884.5476               943.4843
 Red. masses --      2.3294                 2.0341                 2.6766
 Frc consts  --      0.9845                 0.9377                 1.4038
 IR Inten    --     25.8738                 0.5140                 6.1454

                     19                     20                     21
                      A                      A                      A
 Frequencies --    954.5458               989.3234              1018.8777
 Red. masses --      1.8371                 2.1941                 1.9969
 Frc consts  --      0.9862                 1.2653                 1.2214
 IR Inten    --      2.0026                 3.6755                 7.7666

                     22                     23                     24
                      A                      A                      A
 Frequencies --   1030.2830              1047.4015              1066.8717
 Red. masses --      1.5685                 2.6885                 1.3168
 Frc consts  --      0.9809                 1.7378                 0.8830
 IR Inten    --      3.3481                63.2184                 1.0908

                     25                     26                     27
                      A                      A                      A
 Frequencies --   1084.5727              1107.0791              1147.7688
 Red. masses --      1.4668                 1.1742                 2.2939
 Frc consts  --      1.0166                 0.8479                 1.7805
 IR Inten    --      8.9827                 0.0339                 4.6708

                     28                     29                     30
                      A                      A                      A
 Frequencies --   1171.9629              1197.3701              1226.0485
 Red. masses --      1.8681                 1.6733                 1.3996
 Frc consts  --      1.5118                 1.4135                 1.2395
 IR Inten    --      2.7186                 2.8257                 4.2511

                     31                     32                     33
                      A                      A                      A
 Frequencies --   1240.7194              1313.1808              1320.6739
 Red. masses --      2.1888                 1.5587                 1.3347
 Frc consts  --      1.9852                 1.5837                 1.3716
 IR Inten    --     20.9469                 3.0819                16.9831

                     34                     35                     36
                      A                      A                      A
 Frequencies --   1349.9913              1380.5256              1389.1521
 Red. masses --      1.6777                 1.7345                 1.2563
 Frc consts  --      1.8014                 1.9477                 1.4283
 IR Inten    --     12.7610                10.3256                47.5826

                     37                     38                     39
                      A                      A                      A
 Frequencies --   1438.9665              1475.2178              1486.5673
 Red. masses --      1.4464                 1.1534                 1.1300
 Frc consts  --      1.7646                 1.4789                 1.4713
 IR Inten    --     36.1086                 2.1881                 3.6487

                     40                     41                     42
                      A                      A                      A
 Frequencies --   1501.3403              1807.1862              2935.3737
 Red. masses --      1.1383                10.3756                 1.0859
 Frc consts  --      1.5117                19.9650                 5.5126
 IR Inten    --      3.1903               187.1426                60.1146

                     43                     44                     45
                      A                      A                      A
 Frequencies --   3044.4057              3048.2244              3086.1734
 Red. masses --      1.0606                 1.0667                 1.1029
 Frc consts  --      5.7915                 5.8394                 6.1891
 IR Inten    --     31.5176                19.9359                22.5753

                     46                     47                     48
                      A                      A                      A
 Frequencies --   3121.9042              3131.9700              3174.6541
 Red. masses --      1.0971                 1.0560                 1.0894
 Frc consts  --      6.2998                 6.1028                 6.4690
 IR Inten    --     12.8735                18.0072                11.3491

                     49                     50                     51
                      A                      A                      A
 Frequencies --   3187.1471              3213.8013              3680.8863
 Red. masses --      1.0944                 1.1135                 1.0647
 Frc consts  --      6.5496                 6.7760                 8.4996
 IR Inten    --      5.9181                13.5514                79.3988

 - Thermochemistry -
 -------------------
 Temperature   298.150 Kelvin.  Pressure   1.00000 Atm.
 Atom     1 has atomic number  8 and mass  15.99491

 Molecular mass:   126.06808 amu.
 Principal axes and moments of inertia in atomic units:
                           1         2         3
     Eigenvalues --   592.419981345.004371505.94267
           X            0.99998  -0.00588   0.00303
           Y            0.00575   0.99913   0.04138
           Z           -0.00327  -0.04136   0.99914
 This molecule is an asymmetric top.
 Rotational symmetry number  1.
 Warning -- assumption of classical behavior for rotation
           may cause significant error
 Rotational temperatures (Kelvin)      0.14620     0.06440     0.05751
 Rotational constants (GHZ):           3.04639     1.34181     1.19841
 Zero-point vibrational energy     419016.1 (Joules/Mol)
                                  100.14725 (Kcal/Mol)
 Warning -- explicit consideration of  10 degrees of freedom as
           vibrations may cause significant error
 Vibrational temperatures:    135.01   177.21   318.18   442.14   469.36
          (Kelvin)            534.94   561.25   619.14   663.02   702.84
                              916.09  1022.79  1150.52  1173.51  1198.17
                             1218.57  1272.67  1357.46  1373.38  1423.41
                             1465.94  1482.35  1506.98  1534.99  1560.46
                             1592.84  1651.38  1686.19  1722.75  1764.01
                             1785.12  1889.37  1900.15  1942.33  1986.27
                             1998.68  2070.35  2122.51  2138.84  2160.09
                             2600.13  4223.34  4380.22  4385.71  4440.31
                             4491.72  4506.20  4567.61  4585.59  4623.94
                             5295.97

 Zero-point correction=                           0.159595 (Hartree/Particle)
 Thermal correction to Energy=                    0.167672
 Thermal correction to Enthalpy=                  0.168616
 Thermal correction to Gibbs Free Energy=         0.127119
 Sum of electronic and zero-point Energies=           -423.039772
 Sum of electronic and thermal Energies=              -423.031694
 Sum of electronic and thermal Enthalpies=            -423.030750
 Sum of electronic and thermal Free Energies=         -423.072248

                     E (Thermal)             CV                S
                      KCal/Mol        Cal/Mol-Kelvin    Cal/Mol-Kelvin
 Total                  105.216             31.902             87.339
 Electronic               0.000              0.000              0.000
 Translational            0.889              2.981             40.409
 Rotational               0.889              2.981             28.575
 Vibrational            103.438             25.941             18.355
 Vibration     1          0.603              1.954              3.578
 Vibration     2          0.610              1.930              3.050
 Vibration     3          0.648              1.809              1.950
 Vibration     4          0.697              1.660              1.377
 Vibration     5          0.710              1.623              1.279
 Vibration     6          0.744              1.530              1.072
 Vibration     7          0.758              1.491              1.000
 Vibration     8          0.792              1.404              0.858
 Vibration     9          0.819              1.337              0.764
 Vibration    10          0.844              1.276              0.688

 Optimization completed.
    -- Stationary point found.
 Normal termination of Gaussian 09 at Mon Jan 27 17:37:04 2020.
