 Gaussian 09, Revision D.01,
 Gaussian 09:  ES64L-G09RevD.01 24-Apr-2013

 -----------------------------
 # b3lyp 6-31G(2df,p) opt Freq
 -----------------------------

 -----
 titel
 -----
 Symbolic Z-matrix:
 Charge =  0 Multiplicity = 1

 SCF Done:  E(RB3LYP) =  -423.120706250     A.U. after   14 cycles

 The electronic state is 1-A.
 Alpha  occ. eigenvalues --  -19.13320 -19.12994 -10.24386 -10.24333 -10.22352
 Alpha  occ. eigenvalues --  -10.19708 -10.19511 -10.19486 -10.19189  -1.04556
 Alpha  occ. eigenvalues --   -1.01247  -0.86649  -0.76016  -0.70047  -0.67099
 Alpha  occ. eigenvalues --   -0.61916  -0.55659  -0.54050  -0.52894  -0.51234
 Alpha  occ. eigenvalues --   -0.47396  -0.46190  -0.43812  -0.40805  -0.40175
 Alpha  occ. eigenvalues --   -0.38424  -0.36207  -0.33448  -0.33275  -0.32237
 Alpha  occ. eigenvalues --   -0.29697  -0.27504  -0.26483  -0.24526
 Alpha virt. eigenvalues --    0.06896   0.08561   0.09528   0.10133   0.11848
 Alpha virt. eigenvalues --    0.12618   0.13944   0.14313   0.15897   0.16605
 Alpha virt. eigenvalues --    0.18016   0.19041   0.19471   0.21506   0.23474

 Mulliken charges:
               1
     1  O   -0.422873
     2  C   -0.109590
     3  C   -0.004288
     4  C    0.045162
     5  O   -0.305806
     6  C    0.037072
     7  C   -0.041766
     8  C   -0.309831
     9  C   -0.042894
    10  H    0.282880
    11  H    0.105998
    12  H    0.110165
    13  H    0.075113
    14  H    0.067734
    15  H    0.078249
    16  H    0.099178
    17  H    0.122900
    18  H    0.114097
    19  H    0.098500
 Sum of Mulliken charges =   0.00000

 Dipole moment (field-independent basis, Debye):
    X=              1.4436    Y=             -0.6021    Z=              0.1288  Tot=              1.5694
 Quadrupole moment (field-independent basis, Debye-Ang):
   XX=            -55.5291   YY=            -57.0286   ZZ=            -49.0816
   XY=             -2.8962   XZ=             -2.3560   YZ=             -2.6734

 Optimization completed.
    -- Stationary point found.
 Normal termination of Gaussian 09 at Fri Jan 31 16:04:24 2020.

 ----------------------------------------------------------------------
 #N Geom=AllCheck Guess=TCheck SCRF=Check GenChk RB3LYP/6-31G(2df,p) Fr
 eq
 ----------------------------------------------------------------------

 Structure from the checkpoint file:  "/scratch/puck/g09_c243e2f3-5b54-4e5c-a897-d19af1567054/Gau-175145.chk"
 -----
 titel
 -----
 Charge =  0 Multiplicity = 1

                         Standard orientation:
 ---------------------------------------------------------------------
 Center     Atomic      Atomic             Coordinates (Angstroms)
 Number     Number       Type             X           Y           Z
 ---------------------------------------------------------------------
      1          8           0       -2.895982   -0.776513    0.168474
      2          6           0       -2.036845    0.151947   -0.482186
      3          6           0       -0.573108   -0.259742   -0.379399
      4          6           0        0.113744    0.067646    0.972445
      5          8           0        0.179628    1.471365    0.528372
      6          6           0        0.441829    0.840548   -0.781370
      7          6           0        1.841977    0.237471   -0.551314
      8          6           0        2.000250   -1.246148   -0.333456
      9          6           0        1.585269   -0.369143    0.820963
     10          1           0       -2.776339   -0.671539    1.117245
     11          1           0       -2.341308    0.143505   -1.534875
     12          1           0       -2.171281    1.170590   -0.099836
     13          1           0       -0.461790   -1.263444   -0.790824
     14          1           0       -0.365021   -0.062416    1.944427
     15          1           0        0.293326    1.512210   -1.627340
     16          1           0        2.707767    0.854194   -0.758700
     17          1           0        1.323297   -1.964695   -0.778321
     18          1           0        3.027069   -1.599100   -0.297238
     19          1           0        2.256411   -0.213590    1.656599
 ---------------------------------------------------------------------

 SCF Done:  E(RB3LYP) =  -423.120706250     A.U. after    1 cycles
