 Gaussian 09, Revision D.01,
 Gaussian 09:  ES64L-G09RevD.01 24-Apr-2013

 -----------------------------
 # b3lyp 6-31G(2df,p) opt Freq
 -----------------------------

 -----
 titel
 -----
 Symbolic Z-matrix:
 Charge =  0 Multiplicity = 1

 SCF Done:  E(RB3LYP) =  -423.177215206     A.U. after   14 cycles
 SCF Done:  E(RB3LYP) =  -423.177215205     A.U. after    6 cycles
 Optimization completed.
    -- Stationary point found.

 The electronic state is 1-A.
 Alpha  occ. eigenvalues --  -19.13219 -19.13197 -10.23206 -10.23063 -10.22233
 Alpha  occ. eigenvalues --  -10.18489 -10.18155 -10.18066 -10.17641  -1.04470
 Alpha  occ. eigenvalues --   -1.01205  -0.80222  -0.76437  -0.73515  -0.66031
 Alpha  occ. eigenvalues --   -0.57727  -0.56238  -0.54843  -0.52097  -0.50977
 Alpha  occ. eigenvalues --   -0.47418  -0.44548  -0.42121  -0.40533  -0.38979
 Alpha  occ. eigenvalues --   -0.38125  -0.35874  -0.33979  -0.33569  -0.32605
 Alpha  occ. eigenvalues --   -0.31024  -0.26584  -0.25322  -0.24398
 Alpha virt. eigenvalues --    0.01270   0.07806   0.10025   0.12261   0.13215
 Alpha virt. eigenvalues --    0.14203   0.15076   0.15776   0.16152   0.17133
 Alpha virt. eigenvalues --    0.18367   0.19040   0.20410   0.20433   0.21909

 Mulliken charges:
               1
     1  O   -0.424858
     2  C   -0.106306
     3  C    0.043234
     4  C   -0.227614
     5  C    0.017935
     6  O   -0.248860
     7  C   -0.007756
     8  C   -0.083101
     9  C   -0.079341
    10  H    0.285735
    11  H    0.099441
    12  H    0.080268
    13  H    0.077397
    14  H    0.100757
    15  H    0.112154
    16  H    0.078224
    17  H    0.074974
    18  H    0.103884
    19  H    0.103832
 Sum of Mulliken charges =   0.00000

 Dipole moment (field-independent basis, Debye):
    X=             -0.4877    Y=             -0.4168    Z=             -0.4715  Tot=              0.7962
 Quadrupole moment (field-independent basis, Debye-Ang):
   XX=            -48.6033   YY=            -49.7815   ZZ=            -55.8297
   XY=              3.2068   XZ=             -6.5339   YZ=              1.5012

 Normal termination of Gaussian 09 at Fri Jan 31 16:08:29 2020.

 ----------------------------------------------------------------------
 #N Geom=AllCheck Guess=TCheck SCRF=Check GenChk RB3LYP/6-31G(2df,p) Fr
 eq
 ----------------------------------------------------------------------

 Structure from the checkpoint file:  "/scratch/puck/g09_98df58df-934a-40e4-8aca-0773adcf0020/Gau-175148.chk"
 -----
 titel
 -----
 Charge =  0 Multiplicity = 1

                         Standard orientation:
 ---------------------------------------------------------------------
 Center     Atomic      Atomic             Coordinates (Angstroms)
 Number     Number       Type             X           Y           Z
 ---------------------------------------------------------------------
      1          8           0       -2.930684    0.298766   -0.353842
      2          6           0       -1.939161   -0.522077    0.249444
      3          6           0       -0.615055   -0.269018   -0.459366
      4          6           0       -0.114567    1.198389   -0.299614
      5          6           0        1.230757    0.972723    0.462451
      6          8           0        0.890609   -0.139095    1.304277
      7          6           0        0.559993   -1.039942    0.238970
      8          6           0        1.777322   -0.921968   -0.670985
      9          6           0        2.199286    0.334108   -0.528855
     10          1           0       -3.746727    0.198525    0.144844
     11          1           0       -1.820566   -0.290954    1.318731
     12          1           0       -2.206448   -1.588359    0.163569
     13          1           0       -0.716936   -0.556547   -1.509117
     14          1           0        0.019028    1.716724   -1.250881
     15          1           0       -0.811838    1.778445    0.308503
     16          1           0        1.592420    1.809973    1.058020
     17          1           0        0.314204   -2.027038    0.631643
     18          1           0        2.125348   -1.684661   -1.354081
     19          1           0        2.980672    0.853244   -1.066978
 ---------------------------------------------------------------------

 SCF Done:  E(RB3LYP) =  -423.177215205     A.U. after    1 cycles
