 Gaussian 09, Revision D.01,
 Gaussian 09:  ES64L-G09RevD.01 24-Apr-2013

 -----------------------------
 # b3lyp 6-31G(2df,p) opt Freq
 -----------------------------

 -----
 titel
 -----
 Symbolic Z-matrix:
 Charge =  0 Multiplicity = 1

 SCF Done:  E(RB3LYP) =  -423.147489152     A.U. after   14 cycles

 The electronic state is 1-A.
 Alpha  occ. eigenvalues --  -19.15315 -19.12995 -10.26850 -10.25454 -10.23362
 Alpha  occ. eigenvalues --  -10.21236 -10.20982 -10.20689 -10.18840  -1.05363
 Alpha  occ. eigenvalues --   -1.04039  -0.91789  -0.74314  -0.71534  -0.64839
 Alpha  occ. eigenvalues --   -0.62866  -0.61608  -0.51858  -0.48748  -0.48021
 Alpha  occ. eigenvalues --   -0.46319  -0.45786  -0.43704  -0.42553  -0.41596
 Alpha  occ. eigenvalues --   -0.39871  -0.38883  -0.35990  -0.35264  -0.33697
 Alpha  occ. eigenvalues --   -0.33014  -0.31735  -0.26024  -0.23498
 Alpha virt. eigenvalues --    0.01711   0.07898   0.10915   0.10997   0.12650
 Alpha virt. eigenvalues --    0.13319   0.13389   0.13851   0.14783   0.15739
 Alpha virt. eigenvalues --    0.15990   0.18052   0.18649   0.19755   0.21073

 Mulliken charges:
               1
     1  C   -0.248922
     2  O   -0.254080
     3  C    0.147167
     4  C   -0.226360
     5  C   -0.281554
     6  C    0.136231
     7  C   -0.523726
     8  C    0.429338
     9  O   -0.326594
    10  H    0.109166
    11  H    0.136220
    12  H    0.115300
    13  H    0.071900
    14  H    0.097343
    15  H    0.119893
    16  H    0.106217
    17  H    0.121654
    18  H    0.136873
    19  H    0.133932
 Sum of Mulliken charges =   0.00000

 Dipole moment (field-independent basis, Debye):
    X=             -1.4549    Y=              2.1812    Z=             -2.7340  Tot=              3.7880
 Quadrupole moment (field-independent basis, Debye-Ang):
   XX=            -50.7453   YY=            -53.8739   ZZ=            -56.1851
   XY=              0.3567   XZ=             -4.1500   YZ=              3.1505

 Optimization completed.
    -- Stationary point found.
 Normal termination of Gaussian 09 at Fri Jan 31 16:03:48 2020.

 ----------------------------------------------------------------------
 #N Geom=AllCheck Guess=TCheck SCRF=Check GenChk RB3LYP/6-31G(2df,p) Fr
 eq
 ----------------------------------------------------------------------

 Structure from the checkpoint file:  "/scratch/puck/g09_fa481d4f-97d4-4ff7-a947-3490dfb959a3/Gau-175119.chk"
 -----
 titel
 -----
 Charge =  0 Multiplicity = 1

                         Standard orientation:
 ---------------------------------------------------------------------
 Center     Atomic      Atomic             Coordinates (Angstroms)
 Number     Number       Type             X           Y           Z
 ---------------------------------------------------------------------
      1          6           0       -2.708595    0.060322    0.230003
      2          8           0       -1.563813   -0.761858    0.119057
      3          6           0       -0.569961   -0.244792   -0.707866
      4          6           0        0.705937   -1.116326   -0.825969
      5          6           0        1.411147    0.195578   -1.309146
      6          6           0        0.543224    0.706366   -0.102232
      7          6           0        0.432205    2.101155    0.443466
      8          6           0        1.035366   -0.585871    0.583528
      9          8           0        1.483659   -0.949165    1.624944
     10          1           0       -3.154675    0.262705   -0.755610
     11          1           0       -3.433388   -0.481157    0.841365
     12          1           0       -2.483635    1.020892    0.713356
     13          1           0       -0.973997    0.109207   -1.667527
     14          1           0        0.788486   -2.116778   -1.241746
     15          1           0        2.494182    0.246890   -1.196926
     16          1           0        1.086664    0.553684   -2.289577
     17          1           0        0.021005    2.793187   -0.299046
     18          1           0       -0.214200    2.123559    1.326449
     19          1           0        1.414854    2.477406    0.746556
 ---------------------------------------------------------------------

 SCF Done:  E(RB3LYP) =  -423.147489152     A.U. after    1 cycles
