 Gaussian 09, Revision D.01,
 Gaussian 09:  ES64L-G09RevD.01 24-Apr-2013

 -----------------------------
 # b3lyp 6-31G(2df,p) opt Freq
 -----------------------------

 -----
 titel
 -----
 Symbolic Z-matrix:
 Charge =  0 Multiplicity = 1

 SCF Done:  E(RB3LYP) =  -423.216052039     A.U. after   14 cycles
 Optimization completed.
    -- Stationary point found.
 Normal termination of Gaussian 09 at Mon Jan 27 10:18:00 2020.

 ----------------------------------------------------------------------
 #N Geom=AllCheck Guess=TCheck SCRF=Check GenChk RB3LYP/6-31G(2df,p) Fr
 eq
 ----------------------------------------------------------------------

 Structure from the checkpoint file:  "/scratch/puck/g09_22430027-6e15-458f-a099-1dcfd73921fc/Gau-66859.chk"
 -----
 titel
 -----
 Charge =  0 Multiplicity = 1

                         Standard orientation:
 ---------------------------------------------------------------------
 Center     Atomic      Atomic             Coordinates (Angstroms)
 Number     Number       Type             X           Y           Z
 ---------------------------------------------------------------------
      1          6           0        3.248307   -0.367526    0.035135
      2          6           0        1.804765   -0.087678   -0.360736
      3          8           0        1.671129    1.324842   -0.455898
      4          6           0        0.802118   -0.684516    0.653435
      5          6           0       -0.622688   -0.345103    0.332826
      6          6           0       -1.550906   -1.129189   -0.281781
      7          8           0       -2.726393   -0.463201   -0.443876
      8          6           0       -2.549903    0.777209    0.077177
      9          6           0       -1.289916    0.912512    0.565699
     10          1           0        3.932464    0.059063   -0.702956
     11          1           0        3.469239    0.085998    1.006766
     12          1           0        3.432965   -1.443867    0.102235
     13          1           0        1.604223   -0.549174   -1.342150
     14          1           0        0.777310    1.512328   -0.763383
     15          1           0        0.932169   -1.772556    0.675075
     16          1           0        1.059695   -0.306793    1.650276
     17          1           0       -1.534826   -2.144241   -0.644095
     18          1           0       -3.405231    1.430928    0.030488
     19          1           0       -0.876552    1.780935    1.055400
 ---------------------------------------------------------------------

 SCF Done:  E(RB3LYP) =  -423.216052039     A.U. after    1 cycles

 The electronic state is 1-A.
 Alpha  occ. eigenvalues --  -19.20586 -19.12790 -10.23154 -10.23084 -10.22689
 Alpha  occ. eigenvalues --  -10.18901 -10.18736 -10.18229 -10.17104  -1.10836
 Alpha  occ. eigenvalues --   -1.01157  -0.81486  -0.76629  -0.74294  -0.69020
 Alpha  occ. eigenvalues --   -0.59314  -0.58329  -0.56510  -0.51807  -0.51128
 Alpha  occ. eigenvalues --   -0.45497  -0.44520  -0.44215  -0.42027  -0.40815
 Alpha  occ. eigenvalues --   -0.39112  -0.37957  -0.36640  -0.35764  -0.35189
 Alpha  occ. eigenvalues --   -0.31925  -0.27647  -0.26094  -0.22543
 Alpha virt. eigenvalues --    0.01157   0.06317   0.09330   0.11725   0.12339
 Alpha virt. eigenvalues --    0.13374   0.14466   0.14757   0.15691   0.16818
 Alpha virt. eigenvalues --    0.17875   0.18367   0.19685   0.20937   0.22644

 Mulliken charges:
               1
     1  C   -0.381823
     2  C    0.143992
     3  O   -0.437005
     4  C   -0.326666
     5  C    0.218050
     6  C   -0.097306
     7  O   -0.138305
     8  C    0.005018
     9  C   -0.295461
    10  H    0.123266
    11  H    0.121815
    12  H    0.110150
    13  H    0.064641
    14  H    0.284801
    15  H    0.100582
    16  H    0.108770
    17  H    0.134168
    18  H    0.138138
    19  H    0.123174
 Sum of Mulliken charges =   0.00000

 Dipole moment (field-independent basis, Debye):
    X=             -0.5287    Y=             -0.7404    Z=              0.0635  Tot=              0.9120
 Quadrupole moment (field-independent basis, Debye-Ang):
   XX=            -55.4065   YY=            -51.0074   ZZ=            -53.8610
   XY=             -5.7967   XZ=              0.5522   YZ=              1.2235

  Exact polarizability:  99.156  -5.207  77.294   5.801   5.716  57.105
 Approx polarizability: 134.855  -2.432 124.898  14.190  13.242  90.915

                      1                      2                      3
                      A                      A                      A
 Frequencies --     64.3615                87.2024               115.1393
 Red. masses --      4.1931                 3.1787                 4.7275
 Frc consts  --      0.0102                 0.0142                 0.0369
 IR Inten    --      2.2537                 0.9974                 0.1725

                      4                      5                      6
                      A                      A                      A
 Frequencies --    224.4479               292.0210               310.1842
 Red. masses --      1.0476                 3.8638                 2.9195
 Frc consts  --      0.0311                 0.1941                 0.1655
 IR Inten    --      1.1142                 0.4779                 0.4926

                      7                      8                      9
                      A                      A                      A
 Frequencies --    333.4149               405.2157               457.2380
 Red. masses --      3.1742                 1.0594                 3.0440
 Frc consts  --      0.2079                 0.1025                 0.3750
 IR Inten    --      1.6398               137.7744                 7.3697

                     10                     11                     12
                      A                      A                      A
 Frequencies --    471.1305               623.9818               645.3346
 Red. masses --      2.2529                 4.2373                 3.0386
 Frc consts  --      0.2946                 0.9720                 0.7456
 IR Inten    --     15.2836                12.7846                 5.2009

                     13                     14                     15
                      A                      A                      A
 Frequencies --    725.7151               748.7303               788.3332
 Red. masses --      1.8749                 1.8127                 1.5453
 Frc consts  --      0.5818                 0.5987                 0.5658
 IR Inten    --      2.9380                 8.3499                32.0170

                     16                     17                     18
                      A                      A                      A
 Frequencies --    836.0682               849.6010               891.7470
 Red. masses --      1.6148                 1.8021                 5.2282
 Frc consts  --      0.6650                 0.7664                 2.4495
 IR Inten    --      3.1867                 2.7387                24.9632

                     19                     20                     21
                      A                      A                      A
 Frequencies --    909.3413               942.8951               988.1849
 Red. masses --      1.5560                 2.0172                 3.1636
 Frc consts  --      0.7581                 1.0567                 1.8202
 IR Inten    --      0.6842                15.2585                 6.5047

                     22                     23                     24
                      A                      A                      A
 Frequencies --   1047.3940              1059.8862              1084.5374
 Red. masses --      2.1718                 2.0658                 1.5927
 Frc consts  --      1.4037                 1.3673                 1.1037
 IR Inten    --     40.0517                22.4223                 2.3282

                     25                     26                     27
                      A                      A                      A
 Frequencies --   1098.9614              1153.6718              1198.0526
 Red. masses --      1.9252                 2.4241                 2.9997
 Frc consts  --      1.3699                 1.9009                 2.5368
 IR Inten    --     14.8555                23.7161                 3.7449

                     28                     29                     30
                      A                      A                      A
 Frequencies --   1222.7458              1269.4819              1282.8232
 Red. masses --      1.5898                 1.5631                 1.3301
 Frc consts  --      1.4005                 1.4841                 1.2896
 IR Inten    --     19.4306                11.5716                 2.2466

                     31                     32                     33
                      A                      A                      A
 Frequencies --   1290.2917              1320.7290              1381.0797
 Red. masses --      1.2182                 1.6347                 1.3056
 Frc consts  --      1.1949                 1.6800                 1.4672
 IR Inten    --     44.1048                 4.7420                20.4255

                     34                     35                     36
                      A                      A                      A
 Frequencies --   1401.0763              1407.9890              1440.4485
 Red. masses --      1.2694                 2.8167                 1.5683
 Frc consts  --      1.4682                 3.2900                 1.9173
 IR Inten    --      3.1900                 4.6143                27.8368

                     37                     38                     39
                      A                      A                      A
 Frequencies --   1472.8704              1485.0695              1500.6481
 Red. masses --      1.0982                 1.0542                 1.0525
 Frc consts  --      1.4037                 1.3699                 1.3964
 IR Inten    --      2.6787                 4.0409                 1.9046

                     40                     41                     42
                      A                      A                      A
 Frequencies --   1532.9113              1629.3214              2959.6075
 Red. masses --      3.9181                 5.7416                 1.0827
 Frc consts  --      5.4245                 8.9804                 5.5878
 IR Inten    --     14.9972                 1.0242                43.4387

                     43                     44                     45
                      A                      A                      A
 Frequencies --   3029.4426              3041.8218              3076.2158
 Red. masses --      1.0582                 1.0359                 1.1031
 Frc consts  --      5.7221                 5.6471                 6.1505
 IR Inten    --     20.7105                25.2063                17.0301

                     46                     47                     48
                      A                      A                      A
 Frequencies --   3114.1193              3122.4449              3251.4371
 Red. masses --      1.1014                 1.1019                 1.0907
 Frc consts  --      6.2933                 6.3298                 6.7939
 IR Inten    --     28.9850                21.4385                 0.2828

                     49                     50                     51
                      A                      A                      A
 Frequencies --   3272.0884              3283.9590              3799.1653
 Red. masses --      1.0969                 1.1055                 1.0657
 Frc consts  --      6.9195                 7.0241                 9.0631
 IR Inten    --      0.4353                 0.5425                27.9845

 - Thermochemistry -
 -------------------
 Temperature   298.150 Kelvin.  Pressure   1.00000 Atm.
 Atom     1 has atomic number  6 and mass  12.00000

 Molecular mass:   126.06808 amu.
 Principal axes and moments of inertia in atomic units:
                           1         2         3
     Eigenvalues --   423.231641984.305182207.40916
           X            0.99977  -0.02121   0.00118
           Y            0.02119   0.99964   0.01674
           Z           -0.00154  -0.01671   0.99986
 This molecule is an asymmetric top.
 Rotational symmetry number  1.
 Rotational temperatures (Kelvin)      0.20465     0.04365     0.03924
 Rotational constants (GHZ):           4.26419     0.90951     0.81758
 Zero-point vibrational energy     418337.6 (Joules/Mol)
                                   99.98508 (Kcal/Mol)
 Warning -- explicit consideration of  10 degrees of freedom as
           vibrations may cause significant error
 Vibrational temperatures:     92.60   125.46   165.66   322.93   420.15
          (Kelvin)            446.29   479.71   583.01   657.86   677.85
                              897.77   928.49  1044.14  1077.25  1134.23
                             1202.91  1222.38  1283.02  1308.34  1356.61
                             1421.78  1506.96  1524.94  1560.41  1581.16
                             1659.87  1723.73  1759.26  1826.50  1845.69
                             1856.44  1900.23  1987.06  2015.83  2025.78
                             2072.48  2119.13  2136.68  2159.10  2205.51
                             2344.23  4258.21  4358.69  4376.50  4425.98
                             4480.52  4492.50  4678.09  4707.80  4724.88
                             5466.14

 Zero-point correction=                           0.159336 (Hartree/Particle)
 Thermal correction to Energy=                    0.168140
 Thermal correction to Enthalpy=                  0.169085
 Thermal correction to Gibbs Free Energy=         0.125322
 Sum of electronic and zero-point Energies=           -423.056716
 Sum of electronic and thermal Energies=              -423.047912
 Sum of electronic and thermal Enthalpies=            -423.046968
 Sum of electronic and thermal Free Energies=         -423.090730

                     E (Thermal)             CV                S
                      KCal/Mol        Cal/Mol-Kelvin    Cal/Mol-Kelvin
 Total                  105.510             33.037             92.107
 Electronic               0.000              0.000              0.000
 Translational            0.889              2.981             40.409
 Rotational               0.889              2.981             29.007
 Vibrational            103.732             27.076             22.691
 Vibration     1          0.597              1.971              4.319
 Vibration     2          0.601              1.958              3.722
 Vibration     3          0.608              1.937              3.180
 Vibration     4          0.649              1.804              1.923
 Vibration     5          0.687              1.689              1.462
 Vibration     6          0.699              1.654              1.361
 Vibration     7          0.715              1.609              1.243
 Vibration     8          0.770              1.459              0.944
 Vibration     9          0.815              1.345              0.774
 Vibration    10          0.828              1.314              0.734

 Optimization completed.
    -- Stationary point found.
 Normal termination of Gaussian 09 at Mon Jan 27 10:54:53 2020.
