 Gaussian 09, Revision D.01,
 Gaussian 09:  ES64L-G09RevD.01 24-Apr-2013

 -----------------------------
 # b3lyp 6-31G(2df,p) opt Freq
 -----------------------------

 -----
 titel
 -----
 Symbolic Z-matrix:
 Charge =  0 Multiplicity = 1

 SCF Done:  E(RB3LYP) =  -423.167257161     A.U. after   13 cycles

 The electronic state is 1-A.
 Alpha  occ. eigenvalues --  -19.13675 -19.12965 -10.23753 -10.23251 -10.22689
 Alpha  occ. eigenvalues --  -10.22663 -10.19183 -10.19055 -10.18799  -1.06374
 Alpha  occ. eigenvalues --   -1.01161  -0.79562  -0.77914  -0.71029  -0.68715
 Alpha  occ. eigenvalues --   -0.61167  -0.57112  -0.53991  -0.50420  -0.48704
 Alpha  occ. eigenvalues --   -0.47733  -0.46246  -0.42397  -0.41443  -0.40791
 Alpha  occ. eigenvalues --   -0.38002  -0.35510  -0.35038  -0.34733  -0.32856
 Alpha  occ. eigenvalues --   -0.31866  -0.29198  -0.25618  -0.23944
 Alpha virt. eigenvalues --    0.08571   0.09923   0.10654   0.11216   0.12649
 Alpha virt. eigenvalues --    0.13419   0.14443   0.15847   0.16172   0.17144
 Alpha virt. eigenvalues --    0.17868   0.19112   0.19332   0.21115   0.21485

 Mulliken charges:
               1
     1  C   -0.064545
     2  C   -0.374978
     3  C    0.432724
     4  C   -0.317178
     5  C   -0.222706
     6  C    0.020402
     7  O   -0.347410
     8  C    0.132617
     9  O   -0.290590
    10  H    0.101715
    11  H    0.116321
    12  H    0.119396
    13  H    0.111375
    14  H    0.112363
    15  H    0.103371
    16  H    0.113400
    17  H    0.102286
    18  H    0.082801
    19  H    0.068636
 Sum of Mulliken charges =   0.00000

 Dipole moment (field-independent basis, Debye):
    X=             -0.6772    Y=              1.2929    Z=             -1.1317  Tot=              1.8469
 Quadrupole moment (field-independent basis, Debye-Ang):
   XX=            -50.6984   YY=            -52.7727   ZZ=            -54.6612
   XY=              3.8386   XZ=              1.4696   YZ=             -0.9105

 Optimization completed.
    -- Stationary point found.
 Normal termination of Gaussian 09 at Mon Jan 27 11:16:11 2020.

 ----------------------------------------------------------------------
 #N Geom=AllCheck Guess=TCheck SCRF=Check GenChk RB3LYP/6-31G(2df,p) Fr
 eq
 ----------------------------------------------------------------------

 Structure from the checkpoint file:  "/scratch/puck/g09_6ef60231-b748-4f1b-b161-b0bc9532b24a/Gau-149670.chk"
 -----
 titel
 -----
 Charge =  0 Multiplicity = 1

                         Standard orientation:
 ---------------------------------------------------------------------
 Center     Atomic      Atomic             Coordinates (Angstroms)
 Number     Number       Type             X           Y           Z
 ---------------------------------------------------------------------
      1          6           0        2.165021   -0.019105    0.145193
      2          6           0        1.302328    1.263412    0.015679
      3          6           0       -0.065537    0.646222   -0.004467
      4          6           0       -1.453045    1.134056   -0.417404
      5          6           0       -2.193044   -0.235581   -0.165007
      6          6           0       -0.982611   -1.044918    0.372498
      7          8           0       -0.359648   -0.068457    1.255098
      8          6           0        0.098109   -0.728584   -0.687479
      9          8           0        1.433563   -1.099173   -0.465445
     10          1           0        3.132971    0.062498   -0.359657
     11          1           0        2.334370   -0.250293    1.201930
     12          1           0        1.465018    1.953070    0.847239
     13          1           0        1.494155    1.791130   -0.924780
     14          1           0       -1.821642    1.934831    0.226408
     15          1           0       -1.501383    1.465415   -1.458074
     16          1           0       -2.976039   -0.155241    0.590850
     17          1           0       -2.627762   -0.659921   -1.074716
     18          1           0       -1.150188   -2.023881    0.821006
     19          1           0       -0.168139   -0.869571   -1.741503
 ---------------------------------------------------------------------

 SCF Done:  E(RB3LYP) =  -423.167257161     A.U. after    1 cycles
