 Gaussian 09, Revision D.01,
 Gaussian 09:  ES64L-G09RevD.01 24-Apr-2013

 -----------------------------
 # b3lyp 6-31G(2df,p) opt Freq
 -----------------------------

 -----
 titel
 -----
 Symbolic Z-matrix:
 Charge =  0 Multiplicity = 1

 SCF Done:  E(RB3LYP) =  -423.191154549     A.U. after   13 cycles

 The electronic state is 1-A.
 Alpha  occ. eigenvalues --  -19.13715 -19.13372 -10.27128 -10.23449 -10.22786
 Alpha  occ. eigenvalues --  -10.19662 -10.19344 -10.18240 -10.18126  -1.06785
 Alpha  occ. eigenvalues --   -0.99670  -0.85275  -0.76719  -0.71281  -0.64661
 Alpha  occ. eigenvalues --   -0.62647  -0.60544  -0.53443  -0.49973  -0.48907
 Alpha  occ. eigenvalues --   -0.47577  -0.45674  -0.42634  -0.41207  -0.40387
 Alpha  occ. eigenvalues --   -0.39476  -0.37314  -0.36211  -0.34857  -0.32338
 Alpha  occ. eigenvalues --   -0.30673  -0.29122  -0.24719  -0.24168
 Alpha virt. eigenvalues --    0.07927   0.11121   0.11496   0.13290   0.13626
 Alpha virt. eigenvalues --    0.13843   0.14586   0.15273   0.16242   0.17138
 Alpha virt. eigenvalues --    0.17422   0.17589   0.18738   0.21308   0.21691

 Mulliken charges:
               1
     1  C   -0.235738
     2  C   -0.049082
     3  C   -0.249868
     4  C    0.198678
     5  O   -0.261400
     6  C   -0.097994
     7  C   -0.056656
     8  C    0.114160
     9  O   -0.276197
    10  H    0.096394
    11  H    0.098573
    12  H    0.064782
    13  H    0.102124
    14  H    0.108451
    15  H    0.087145
    16  H    0.106043
    17  H    0.097795
    18  H    0.077288
    19  H    0.075502
 Sum of Mulliken charges =   0.00000

 Dipole moment (field-independent basis, Debye):
    X=              1.4450    Y=              1.0937    Z=              1.3970  Tot=              2.2882
 Quadrupole moment (field-independent basis, Debye-Ang):
   XX=            -55.6981   YY=            -49.5138   ZZ=            -54.5280
   XY=              0.2355   XZ=             -0.7741   YZ=             -1.6326

 Optimization completed.
    -- Stationary point found.
 Normal termination of Gaussian 09 at Mon Jan 27 11:19:34 2020.

 ----------------------------------------------------------------------
 #N Geom=AllCheck Guess=TCheck SCRF=Check GenChk RB3LYP/6-31G(2df,p) Fr
 eq
 ----------------------------------------------------------------------

 Structure from the checkpoint file:  "/scratch/puck/g09_6ab09086-45a6-499b-96dc-660200728205/Gau-164857.chk"
 -----
 titel
 -----
 Charge =  0 Multiplicity = 1

                         Standard orientation:
 ---------------------------------------------------------------------
 Center     Atomic      Atomic             Coordinates (Angstroms)
 Number     Number       Type             X           Y           Z
 ---------------------------------------------------------------------
      1          6           0        1.979950    0.019055   -0.053093
      2          6           0        0.924599    0.147321    1.081431
      3          6           0        0.043761   -1.118651    1.078065
      4          6           0       -0.795303   -1.053386   -0.211829
      5          8           0       -1.834774   -0.112237   -0.057610
      6          6           0       -1.329535    1.201694    0.206031
      7          6           0        0.189422    1.197556    0.178850
      8          6           0        0.836743    0.426911   -1.009404
      9          8           0        0.022452   -0.711516   -1.319977
     10          1           0        2.753090    0.790063    0.009937
     11          1           0        2.436458   -0.959570   -0.223061
     12          1           0        1.253235    0.442946    2.079755
     13          1           0        0.657496   -2.025302    1.105135
     14          1           0       -0.641555   -1.147248    1.930466
     15          1           0       -1.281488   -1.997270   -0.463218
     16          1           0       -1.729360    1.881948   -0.557893
     17          1           0       -1.705499    1.543124    1.181668
     18          1           0        0.603020    2.202236    0.287666
     19          1           0        1.055361    0.936092   -1.950057
 ---------------------------------------------------------------------

 SCF Done:  E(RB3LYP) =  -423.191154549     A.U. after    1 cycles
