 Gaussian 09, Revision D.01,
 Gaussian 09:  ES64L-G09RevD.01 24-Apr-2013

 -----------------------------
 # b3lyp 6-31G(2df,p) opt Freq
 -----------------------------

 -----
 titel
 -----
 Symbolic Z-matrix:
 Charge =  0 Multiplicity = 1

 SCF Done:  E(RB3LYP) =  -423.153162782     A.U. after   14 cycles

 The electronic state is 1-A.
 Alpha  occ. eigenvalues --  -19.15328 -19.14586 -10.27959 -10.24014 -10.23726
 Alpha  occ. eigenvalues --  -10.20640 -10.18841 -10.17654 -10.16504  -1.09191
 Alpha  occ. eigenvalues --   -0.99620  -0.81412  -0.76717  -0.71774  -0.66141
 Alpha  occ. eigenvalues --   -0.63577  -0.59422  -0.52359  -0.51912  -0.50285
 Alpha  occ. eigenvalues --   -0.47687  -0.46539  -0.44975  -0.43381  -0.40978
 Alpha  occ. eigenvalues --   -0.38796  -0.37671  -0.36372  -0.34247  -0.33640
 Alpha  occ. eigenvalues --   -0.27689  -0.26353  -0.25856  -0.25437
 Alpha virt. eigenvalues --    0.05962   0.06281   0.08831   0.10494   0.11961
 Alpha virt. eigenvalues --    0.12373   0.13282   0.13611   0.14031   0.15038
 Alpha virt. eigenvalues --    0.15389   0.17623   0.19265   0.20806   0.22246

 Mulliken charges:
               1
     1  C   -0.434649
     2  C    0.291581
     3  C   -0.357709
     4  C   -0.209085
     5  C    0.219615
     6  O   -0.251110
     7  C   -0.112539
     8  C   -0.085646
     9  O   -0.273961
    10  H    0.192516
    11  H    0.151479
    12  H    0.127864
    13  H    0.120295
    14  H    0.121387
    15  H    0.060165
    16  H    0.100917
    17  H    0.121213
    18  H    0.107216
    19  H    0.110449
 Sum of Mulliken charges =   0.00000

 Dipole moment (field-independent basis, Debye):
    X=              1.8519    Y=              0.1717    Z=              0.3180  Tot=              1.8869
 Quadrupole moment (field-independent basis, Debye-Ang):
   XX=            -45.6430   YY=            -56.6245   ZZ=            -52.0350
   XY=              2.4847   XZ=              0.4872   YZ=             -0.2960

 Optimization completed.
    -- Stationary point found.
 Normal termination of Gaussian 09 at Mon Jan 27 11:13:21 2020.

 ----------------------------------------------------------------------
 #N Geom=AllCheck Guess=TCheck SCRF=Check GenChk RB3LYP/6-31G(2df,p) Fr
 eq
 ----------------------------------------------------------------------

 Structure from the checkpoint file:  "/scratch/puck/g09_4bd6fe1a-efcc-43d7-b548-3b233ec1461d/Gau-15735.chk"
 -----
 titel
 -----
 Charge =  0 Multiplicity = 1

                         Standard orientation:
 ---------------------------------------------------------------------
 Center     Atomic      Atomic             Coordinates (Angstroms)
 Number     Number       Type             X           Y           Z
 ---------------------------------------------------------------------
      1          6           0       -4.241810   -0.112494   -0.392457
      2          6           0       -3.134918    0.147498   -0.002781
      3          6           0       -1.782322    0.440030    0.453897
      4          6           0       -0.744920   -0.569486   -0.073811
      5          6           0        0.649660   -0.261008    0.438500
      6          8           0        1.577219   -1.172991   -0.096027
      7          6           0        2.824552   -0.498206   -0.052656
      8          6           0        2.438112    0.959948   -0.356518
      9          8           0        1.065667    1.034153    0.020683
     10          1           0       -5.224027   -0.331408   -0.730489
     11          1           0       -1.490066    1.447024    0.135573
     12          1           0       -1.762649    0.448156    1.552080
     13          1           0       -1.013928   -1.583661    0.237117
     14          1           0       -0.720725   -0.550269   -1.167069
     15          1           0        0.681360   -0.299715    1.545522
     16          1           0        3.284352   -0.589122    0.943120
     17          1           0        3.489202   -0.945628   -0.794186
     18          1           0        3.029881    1.680636    0.219012
     19          1           0        2.533395    1.196996   -1.422963
 ---------------------------------------------------------------------

 SCF Done:  E(RB3LYP) =  -423.153162783     A.U. after    1 cycles
