 Gaussian 09, Revision D.01,
 Gaussian 09:  ES64L-G09RevD.01 24-Apr-2013

 -----------------------------
 # b3lyp 6-31G(2df,p) opt Freq
 -----------------------------

 -----
 titel
 -----
 Symbolic Z-matrix:
 Charge =  0 Multiplicity = 1

 SCF Done:  E(RB3LYP) =  -423.166893644     A.U. after   13 cycles

 The electronic state is 1-A.
 Alpha  occ. eigenvalues --  -19.13168 -19.13034 -10.24047 -10.23750 -10.22647
 Alpha  occ. eigenvalues --  -10.22351 -10.19375 -10.19089 -10.18163  -1.05821
 Alpha  occ. eigenvalues --   -1.01676  -0.79044  -0.77723  -0.71082  -0.69502
 Alpha  occ. eigenvalues --   -0.60436  -0.56658  -0.54857  -0.50202  -0.48800
 Alpha  occ. eigenvalues --   -0.47367  -0.45443  -0.43424  -0.41735  -0.39352
 Alpha  occ. eigenvalues --   -0.38639  -0.35692  -0.34982  -0.34372  -0.32664
 Alpha  occ. eigenvalues --   -0.31801  -0.30201  -0.24549  -0.24275
 Alpha virt. eigenvalues --    0.08382   0.09944   0.10327   0.12187   0.12382
 Alpha virt. eigenvalues --    0.13271   0.15069   0.15903   0.16523   0.16866
 Alpha virt. eigenvalues --    0.17456   0.18756   0.19604   0.20713   0.21468

 Mulliken charges:
               1
     1  C   -0.331409
     2  C    0.068349
     3  C   -0.259668
     4  C    0.141700
     5  O   -0.290499
     6  C   -0.065302
     7  C   -0.387371
     8  C    0.422586
     9  O   -0.325283
    10  H    0.115094
    11  H    0.097529
    12  H    0.081452
    13  H    0.095725
    14  H    0.123561
    15  H    0.062995
    16  H    0.101131
    17  H    0.116356
    18  H    0.113320
    19  H    0.119735
 Sum of Mulliken charges =   0.00000

 Dipole moment (field-independent basis, Debye):
    X=             -0.7619    Y=             -1.1548    Z=             -1.5631  Tot=              2.0874
 Quadrupole moment (field-independent basis, Debye-Ang):
   XX=            -49.2879   YY=            -54.4045   ZZ=            -53.8550
   XY=             -3.6008   XZ=              0.4555   YZ=              0.8598

 Optimization completed.
    -- Stationary point found.
 Normal termination of Gaussian 09 at Mon Jan 27 11:18:17 2020.

 ----------------------------------------------------------------------
 #N Geom=AllCheck Guess=TCheck SCRF=Check GenChk RB3LYP/6-31G(2df,p) Fr
 eq
 ----------------------------------------------------------------------

 Structure from the checkpoint file:  "/scratch/puck/g09_fc9c253e-e541-4f77-8ea3-4e71f9f783d6/Gau-41919.chk"
 -----
 titel
 -----
 Charge =  0 Multiplicity = 1

                         Standard orientation:
 ---------------------------------------------------------------------
 Center     Atomic      Atomic             Coordinates (Angstroms)
 Number     Number       Type             X           Y           Z
 ---------------------------------------------------------------------
      1          6           0       -1.472359   -1.006072   -0.702544
      2          6           0       -1.767707    0.017620    0.436340
      3          6           0       -1.196800    1.374130   -0.052357
      4          6           0        0.128794    0.806437   -0.624447
      5          8           0        1.343536    1.197095   -0.015545
      6          6           0        2.123700    0.022759    0.280457
      7          6           0        1.335712   -1.221936   -0.221460
      8          6           0       -0.058962   -0.663444   -0.202455
      9          8           0       -0.613624   -0.517778    1.146625
     10          1           0       -1.794121   -2.010598   -0.426519
     11          1           0       -1.742542   -0.763554   -1.734021
     12          1           0       -2.692196    0.003728    1.013803
     13          1           0       -1.810427    1.879041   -0.802689
     14          1           0       -1.021916    2.046651    0.789207
     15          1           0        0.194493    0.932217   -1.714926
     16          1           0        3.102935    0.111949   -0.202983
     17          1           0        2.275954   -0.027555    1.364298
     18          1           0        1.625000   -1.492641   -1.241635
     19          1           0        1.469259   -2.090732    0.425629
 ---------------------------------------------------------------------

 SCF Done:  E(RB3LYP) =  -423.166893644     A.U. after    1 cycles
