 Gaussian 09, Revision D.01,
 Gaussian 09:  ES64L-G09RevD.01 24-Apr-2013

 -----------------------------
 # b3lyp 6-31G(2df,p) opt Freq
 -----------------------------

 -----
 titel
 -----
 Symbolic Z-matrix:
 Charge =  0 Multiplicity = 1

 SCF Done:  E(RB3LYP) =  -423.204195592     A.U. after   14 cycles

 The electronic state is 1-A.
 Alpha  occ. eigenvalues --  -19.19583 -19.14011 -10.23359 -10.22410 -10.22252
 Alpha  occ. eigenvalues --  -10.21716 -10.18064 -10.17876 -10.17789  -1.09864
 Alpha  occ. eigenvalues --   -1.03189  -0.81261  -0.75640  -0.70986  -0.69123
 Alpha  occ. eigenvalues --   -0.64375  -0.56508  -0.55589  -0.50766  -0.48201
 Alpha  occ. eigenvalues --   -0.47095  -0.44804  -0.44097  -0.42667  -0.41151
 Alpha  occ. eigenvalues --   -0.40147  -0.39434  -0.37335  -0.36383  -0.34186
 Alpha  occ. eigenvalues --   -0.31879  -0.26018  -0.25231  -0.21798
 Alpha virt. eigenvalues --    0.02407   0.06076   0.09123   0.12251   0.13244
 Alpha virt. eigenvalues --    0.14334   0.14601   0.15007   0.15809   0.16589
 Alpha virt. eigenvalues --    0.17287   0.18247   0.19296   0.20121   0.23347

 Mulliken charges:
               1
     1  C   -0.219829
     2  O   -0.231010
     3  C   -0.200520
     4  C    0.172663
     5  C   -0.105126
     6  O   -0.149055
     7  C   -0.098152
     8  C    0.167858
     9  C   -0.507840
    10  H    0.101923
    11  H    0.127654
    12  H    0.103048
    13  H    0.090882
    14  H    0.091450
    15  H    0.134819
    16  H    0.131710
    17  H    0.123649
    18  H    0.119743
    19  H    0.146134
 Sum of Mulliken charges =   0.00000

 Dipole moment (field-independent basis, Debye):
    X=             -1.1214    Y=              0.1331    Z=              0.9440  Tot=              1.4719
 Quadrupole moment (field-independent basis, Debye-Ang):
   XX=            -49.6273   YY=            -49.5183   ZZ=            -55.0409
   XY=              2.7663   XZ=             -1.4916   YZ=             -0.6524

 Optimization completed.
    -- Stationary point found.
 Normal termination of Gaussian 09 at Mon Jan 27 11:16:40 2020.

 ----------------------------------------------------------------------
 #N Geom=AllCheck Guess=TCheck SCRF=Check GenChk RB3LYP/6-31G(2df,p) Fr
 eq
 ----------------------------------------------------------------------

 Structure from the checkpoint file:  "/scratch/puck/g09_ec87b7a8-a987-4058-bccd-4459266f9202/Gau-22651.chk"
 -----
 titel
 -----
 Charge =  0 Multiplicity = 1

                         Standard orientation:
 ---------------------------------------------------------------------
 Center     Atomic      Atomic             Coordinates (Angstroms)
 Number     Number       Type             X           Y           Z
 ---------------------------------------------------------------------
      1          6           0       -3.315271   -0.097655   -0.213557
      2          8           0       -1.934919   -0.041930   -0.482245
      3          6           0       -1.156501   -0.621677    0.552832
      4          6           0        0.291311   -0.467824    0.229395
      5          6           0        1.200117   -1.461021    0.046244
      6          8           0        2.428441   -0.952149   -0.219399
      7          6           0        2.294524    0.405036   -0.212214
      8          6           0        1.015101    0.771302    0.058542
      9          6           0        0.455198    2.155941    0.152868
     10          1           0       -3.575968    0.440755    0.712114
     11          1           0       -3.831369    0.373375   -1.053555
     12          1           0       -3.671621   -1.135670   -0.114892
     13          1           0       -1.395852   -0.127546    1.511383
     14          1           0       -1.408850   -1.688284    0.673288
     15          1           0        1.129615   -2.536556    0.074411
     16          1           0        3.192576    0.964427   -0.418595
     17          1           0        0.093360    2.374280    1.165189
     18          1           0        1.209415    2.906892   -0.097733
     19          1           0       -0.396354    2.276341   -0.523119
 ---------------------------------------------------------------------

 SCF Done:  E(RB3LYP) =  -423.204195592     A.U. after    1 cycles
