 Gaussian 09, Revision D.01,
 Gaussian 09:  ES64L-G09RevD.01 24-Apr-2013

 -----------------------------
 # b3lyp 6-31G(2df,p) opt Freq
 -----------------------------

 -----
 titel
 -----
 Symbolic Z-matrix:
 Charge =  0 Multiplicity = 1

 SCF Done:  E(RB3LYP) =  -423.173140850     A.U. after   13 cycles

 The electronic state is 1-A.
 Alpha  occ. eigenvalues --  -19.13652 -19.13155 -10.23210 -10.23161 -10.22949
 Alpha  occ. eigenvalues --  -10.22772 -10.19833 -10.18748 -10.18100  -1.05291
 Alpha  occ. eigenvalues --   -1.01698  -0.83234  -0.78331  -0.70058  -0.66241
 Alpha  occ. eigenvalues --   -0.61909  -0.56617  -0.54426  -0.52569  -0.49812
 Alpha  occ. eigenvalues --   -0.47965  -0.45082  -0.41797  -0.40463  -0.39370
 Alpha  occ. eigenvalues --   -0.38594  -0.36624  -0.35640  -0.34802  -0.34422
 Alpha  occ. eigenvalues --   -0.30687  -0.28522  -0.25584  -0.23286
 Alpha virt. eigenvalues --    0.08858   0.10059   0.10996   0.12668   0.12831
 Alpha virt. eigenvalues --    0.14705   0.15031   0.15564   0.16345   0.17315
 Alpha virt. eigenvalues --    0.17985   0.19189   0.19623   0.20037   0.21240

 Mulliken charges:
               1
     1  C   -0.259677
     2  C    0.064623
     3  O   -0.287509
     4  C    0.118512
     5  C   -0.237018
     6  C   -0.069647
     7  O   -0.272598
     8  C    0.144575
     9  C   -0.135687
    10  H    0.103970
    11  H    0.107027
    12  H    0.081713
    13  H    0.074917
    14  H    0.093368
    15  H    0.119758
    16  H    0.089446
    17  H    0.110756
    18  H    0.077505
    19  H    0.075966
 Sum of Mulliken charges =   0.00000

 Dipole moment (field-independent basis, Debye):
    X=              0.1936    Y=              0.2602    Z=              2.0322  Tot=              2.0579
 Quadrupole moment (field-independent basis, Debye-Ang):
   XX=            -49.8043   YY=            -54.1745   ZZ=            -54.1510
   XY=             -3.2854   XZ=             -0.4512   YZ=              0.9386

 Optimization completed.
    -- Stationary point found.
 Normal termination of Gaussian 09 at Mon Jan 27 11:25:22 2020.

 ----------------------------------------------------------------------
 #N Geom=AllCheck Guess=TCheck SCRF=Check GenChk RB3LYP/6-31G(2df,p) Fr
 eq
 ----------------------------------------------------------------------

 Structure from the checkpoint file:  "/scratch/puck/g09_f6773568-2060-4372-aabc-104586d14e1b/Gau-22660.chk"
 -----
 titel
 -----
 Charge =  0 Multiplicity = 1

                         Standard orientation:
 ---------------------------------------------------------------------
 Center     Atomic      Atomic             Coordinates (Angstroms)
 Number     Number       Type             X           Y           Z
 ---------------------------------------------------------------------
      1          6           0        2.040894   -0.026184    0.531564
      2          6           0        1.296645   -0.350970   -0.785255
      3          8           0        0.600409    0.864700   -1.075589
      4          6           0       -0.018331    1.174045    0.203213
      5          6           0       -1.541725    1.061783    0.065979
      6          6           0       -1.972056   -0.408130    0.180973
      7          8           0       -1.024216   -1.296013   -0.404053
      8          6           0        0.276563   -1.136110    0.090375
      9          6           0        0.584204    0.049805    1.066274
     10          1           0        2.603652   -0.864497    0.946591
     11          1           0        2.635403    0.888982    0.538300
     12          1           0        1.764997   -0.741782   -1.686339
     13          1           0        0.289184    2.179382    0.508656
     14          1           0       -2.044229    1.651978    0.841523
     15          1           0       -1.820704    1.481081   -0.905058
     16          1           0       -2.119594   -0.672241    1.239925
     17          1           0       -2.916055   -0.594337   -0.336693
     18          1           0        0.666698   -2.095130    0.445469
     19          1           0        0.333936    0.031636    2.126014
 ---------------------------------------------------------------------

 SCF Done:  E(RB3LYP) =  -423.173140850     A.U. after    1 cycles
