 Gaussian 09, Revision D.01,
 Gaussian 09:  ES64L-G09RevD.01 24-Apr-2013

 -----------------------------
 # b3lyp 6-31G(2df,p) opt Freq
 -----------------------------

 -----
 titel
 -----
 Symbolic Z-matrix:
 Charge =  0 Multiplicity = 1

 SCF Done:  E(RB3LYP) =  -423.216745142     A.U. after   14 cycles
 Optimization completed.
    -- Stationary point found.
 Normal termination of Gaussian 09 at Mon Jan 27 10:18:08 2020.

 ----------------------------------------------------------------------
 #N Geom=AllCheck Guess=TCheck SCRF=Check GenChk RB3LYP/6-31G(2df,p) Fr
 eq
 ----------------------------------------------------------------------

 Structure from the checkpoint file:  "/scratch/puck/g09_be71b190-0e39-419f-8443-8c75c52e7b4f/Gau-35710.chk"
 -----
 titel
 -----
 Charge =  0 Multiplicity = 1

                         Standard orientation:
 ---------------------------------------------------------------------
 Center     Atomic      Atomic             Coordinates (Angstroms)
 Number     Number       Type             X           Y           Z
 ---------------------------------------------------------------------
      1          6           0       -1.433420    2.148773   -0.064592
      2          6           0       -1.337755    0.654844   -0.010390
      3          6           0       -0.242077   -0.106066    0.280221
      4          6           0        1.174252    0.205281    0.616307
      5          6           0        2.157964   -0.204238   -0.484046
      6          8           0        3.460060    0.136638   -0.035494
      7          8           0       -0.567553   -1.436770    0.225049
      8          6           0       -1.883539   -1.516248   -0.101606
      9          6           0       -2.407847   -0.276566   -0.257038
     10          1           0       -1.716884    2.497056   -1.064659
     11          1           0       -2.190790    2.526546    0.631894
     12          1           0       -0.482843    2.623720    0.191804
     13          1           0        1.277159    1.279175    0.796345
     14          1           0        1.468141   -0.303135    1.542584
     15          1           0        2.063920   -1.283729   -0.673263
     16          1           0        1.901089    0.319646   -1.418148
     17          1           0        4.091655   -0.143826   -0.703913
     18          1           0       -2.288076   -2.512058   -0.179465
     19          1           0       -3.428893   -0.037024   -0.512760
 ---------------------------------------------------------------------

 SCF Done:  E(RB3LYP) =  -423.216745142     A.U. after    1 cycles

 The electronic state is 1-A.
 Alpha  occ. eigenvalues --  -19.19213 -19.13294 -10.22646 -10.22113 -10.22022
 Alpha  occ. eigenvalues --  -10.18708 -10.18227 -10.17928 -10.17148  -1.09498
 Alpha  occ. eigenvalues --   -1.01405  -0.80490  -0.78264  -0.72003  -0.68656
 Alpha  occ. eigenvalues --   -0.61839  -0.58003  -0.53601  -0.51261  -0.48960
 Alpha  occ. eigenvalues --   -0.46714  -0.44720  -0.42721  -0.40574  -0.40033
 Alpha  occ. eigenvalues --   -0.39541  -0.38459  -0.36895  -0.36369  -0.34264
 Alpha  occ. eigenvalues --   -0.32897  -0.26687  -0.25826  -0.20977
 Alpha virt. eigenvalues --    0.02474   0.07353   0.08132   0.09771   0.13604
 Alpha virt. eigenvalues --    0.13749   0.14261   0.15194   0.15818   0.17553
 Alpha virt. eigenvalues --    0.18875   0.19178   0.19949   0.21656   0.23975

 Mulliken charges:
               1
     1  C   -0.508816
     2  C    0.157521
     3  C    0.261715
     4  C   -0.297399
     5  C   -0.065150
     6  O   -0.419726
     7  O   -0.186768
     8  C   -0.021154
     9  C   -0.258756
    10  H    0.128556
    11  H    0.129312
    12  H    0.126285
    13  H    0.119644
    14  H    0.123959
    15  H    0.100466
    16  H    0.088832
    17  H    0.286740
    18  H    0.129340
    19  H    0.105398
 Sum of Mulliken charges =   0.00000

 Dipole moment (field-independent basis, Debye):
    X=             -0.2990    Y=              0.0422    Z=             -1.3002  Tot=              1.3348
 Quadrupole moment (field-independent basis, Debye-Ang):
   XX=            -48.6791   YY=            -51.1969   ZZ=            -53.4647
   XY=             -1.7315   XZ=             -4.0392   YZ=              0.6374

  Exact polarizability:  98.716  -0.030  84.111   5.166   0.091  54.364
 Approx polarizability: 135.668  -3.750 130.338  11.876  -1.357  83.959

                      1                      2                      3
                      A                      A                      A
 Frequencies --     46.7581                89.8066               110.8507
 Red. masses --      2.5552                 2.9849                 1.9528
 Frc consts  --      0.0033                 0.0142                 0.0141
 IR Inten    --      2.2733                 5.3683                 0.7360

                      4                      5                      6
                      A                      A                      A
 Frequencies --    124.2395               247.1771               251.4361
 Red. masses --      1.4636                 3.3241                 1.1310
 Frc consts  --      0.0133                 0.1197                 0.0421
 IR Inten    --      0.3518                 1.3158                93.8257

                      7                      8                      9
                      A                      A                      A
 Frequencies --    261.9286               337.2923               351.7846
 Red. masses --      2.4140                 3.4090                 4.4273
 Frc consts  --      0.0976                 0.2285                 0.3228
 IR Inten    --      9.1542                 9.4456                 8.4571

                     10                     11                     12
                      A                      A                      A
 Frequencies --    427.1132               621.6607               637.1006
 Red. masses --      3.2005                 4.2213                 4.3089
 Frc consts  --      0.3440                 0.9612                 1.0305
 IR Inten    --      2.9389                 2.0249                 6.5888

                     13                     14                     15
                      A                      A                      A
 Frequencies --    675.7906               744.4954               784.6420
 Red. masses --      3.8703                 1.3244                 4.6309
 Frc consts  --      1.0414                 0.4325                 1.6798
 IR Inten    --      3.4395                28.8131                14.8410

                     16                     17                     18
                      A                      A                      A
 Frequencies --    793.4233               821.2117               909.8089
 Red. masses --      1.2162                 1.2358                 5.5538
 Frc consts  --      0.4511                 0.4910                 2.7086
 IR Inten    --      1.1776                 5.2426                10.1332

                     19                     20                     21
                      A                      A                      A
 Frequencies --    978.4752              1002.0932              1018.3195
 Red. masses --      1.7758                 2.3573                 1.7438
 Frc consts  --      1.0017                 1.3947                 1.0654
 IR Inten    --      3.8571                13.0787                21.8771

                     22                     23                     24
                      A                      A                      A
 Frequencies --   1063.0221              1072.7741              1078.6198
 Red. masses --      1.4684                 1.7620                 5.7447
 Frc consts  --      0.9776                 1.1948                 3.9378
 IR Inten    --      1.8204                 2.9672                88.1613

                     25                     26                     27
                      A                      A                      A
 Frequencies --   1154.0887              1184.2492              1217.6487
 Red. masses --      2.0654                 2.3578                 1.6912
 Frc consts  --      1.6208                 1.9483                 1.4774
 IR Inten    --     27.4238                12.8290                 6.4920

                     28                     29                     30
                      A                      A                      A
 Frequencies --   1238.9417              1249.3539              1278.3192
 Red. masses --      1.2042                 1.9811                 1.9436
 Frc consts  --      1.0890                 1.8219                 1.8713
 IR Inten    --     35.1007                 7.3661                 2.6665

                     31                     32                     33
                      A                      A                      A
 Frequencies --   1313.4908              1336.7608              1416.5427
 Red. masses --      1.1658                 1.5493                 1.3242
 Frc consts  --      1.1850                 1.6312                 1.5656
 IR Inten    --      0.8324                 9.0883                 0.7399

                     34                     35                     36
                      A                      A                      A
 Frequencies --   1436.7120              1453.1492              1477.4821
 Red. masses --      3.1450                 1.4394                 1.0964
 Frc consts  --      3.8248                 1.7908                 1.4101
 IR Inten    --      0.9287                 7.0189                 1.2102

                     37                     38                     39
                      A                      A                      A
 Frequencies --   1483.7609              1498.9449              1528.4743
 Red. masses --      1.0432                 1.0806                 1.0854
 Frc consts  --      1.3532                 1.4304                 1.4940
 IR Inten    --      3.8852                 4.6383                 2.8114

                     40                     41                     42
                      A                      A                      A
 Frequencies --   1550.3159              1668.7484              2976.0942
 Red. masses --      4.8361                 7.2141                 1.0576
 Frc consts  --      6.8484                11.8362                 5.5189
 IR Inten    --     16.7880                 4.1516                43.5403

                     43                     44                     45
                      A                      A                      A
 Frequencies --   3012.1544              3027.8023              3039.6282
 Red. masses --      1.1029                 1.0381                 1.0643
 Frc consts  --      5.8958                 5.6073                 5.7939
 IR Inten    --     37.5520                36.1279                25.0649

                     46                     47                     48
                      A                      A                      A
 Frequencies --   3075.6829              3098.8595              3113.1813
 Red. masses --      1.0999                 1.0981                 1.0979
 Frc consts  --      6.1301                 6.2129                 6.2696
 IR Inten    --     19.7719                19.8950                19.6891

                     49                     50                     51
                      A                      A                      A
 Frequencies --   3245.5189              3280.3629              3832.8509
 Red. masses --      1.0907                 1.1046                 1.0664
 Frc consts  --      6.7690                 7.0031                 9.2300
 IR Inten    --      2.9618                 1.9511                23.6298

 - Thermochemistry -
 -------------------
 Temperature   298.150 Kelvin.  Pressure   1.00000 Atm.
 Atom     1 has atomic number  6 and mass  12.00000

 Molecular mass:   126.06808 amu.
 Principal axes and moments of inertia in atomic units:
                           1         2         3
     Eigenvalues --   609.682261785.389862266.61706
           X            0.99980  -0.01993  -0.00261
           Y            0.01995   0.99978   0.00688
           Z            0.00247  -0.00693   0.99997
 This molecule is an asymmetric top.
 Rotational symmetry number  1.
 Warning -- assumption of classical behavior for rotation
           may cause significant error
 Rotational temperatures (Kelvin)      0.14206     0.04851     0.03821
 Rotational constants (GHZ):           2.96013     1.01084     0.79623
 Zero-point vibrational energy     416533.4 (Joules/Mol)
                                   99.55387 (Kcal/Mol)
 Warning -- explicit consideration of  10 degrees of freedom as
           vibrations may cause significant error
 Vibrational temperatures:     67.27   129.21   159.49   178.75   355.63
          (Kelvin)            361.76   376.86   485.29   506.14   614.52
                              894.43   916.64   972.31  1071.16  1128.92
                             1141.56  1181.54  1309.01  1407.81  1441.79
                             1465.13  1529.45  1543.48  1551.89  1660.47
                             1703.87  1751.92  1782.56  1797.54  1839.21
                             1889.82  1923.30  2038.09  2067.11  2090.75
                             2125.76  2134.80  2156.64  2199.13  2230.56
                             2400.95  4281.93  4333.81  4356.33  4373.34
                             4425.22  4458.56  4479.17  4669.57  4719.70
                             5514.61

 Zero-point correction=                           0.158649 (Hartree/Particle)
 Thermal correction to Energy=                    0.168095
 Thermal correction to Enthalpy=                  0.169039
 Thermal correction to Gibbs Free Energy=         0.123422
 Sum of electronic and zero-point Energies=           -423.058096
 Sum of electronic and thermal Energies=              -423.048650
 Sum of electronic and thermal Enthalpies=            -423.047706
 Sum of electronic and thermal Free Energies=         -423.093324

                     E (Thermal)             CV                S
                      KCal/Mol        Cal/Mol-Kelvin    Cal/Mol-Kelvin
 Total                  105.481             33.798             96.010
 Electronic               0.000              0.000              0.000
 Translational            0.889              2.981             40.409
 Rotational               0.889              2.981             29.291
 Vibrational            103.704             27.836             26.310
 Vibration     1          0.595              1.979              4.950
 Vibration     2          0.602              1.956              3.664
 Vibration     3          0.607              1.940              3.254
 Vibration     4          0.610              1.929              3.033
 Vibration     5          0.661              1.767              1.751
 Vibration     6          0.663              1.760              1.720
 Vibration     7          0.669              1.743              1.649
 Vibration     8          0.718              1.601              1.225
 Vibration     9          0.728              1.572              1.158
 Vibration    10          0.789              1.411              0.868

 Optimization completed.
    -- Stationary point found.
 Normal termination of Gaussian 09 at Mon Jan 27 10:53:49 2020.
