 Gaussian 09, Revision D.01,
 Gaussian 09:  ES64L-G09RevD.01 24-Apr-2013

 -----------------------------
 # b3lyp 6-31G(2df,p) opt Freq
 -----------------------------

 -----
 titel
 -----
 Symbolic Z-matrix:
 Charge =  0 Multiplicity = 1

 SCF Done:  E(RB3LYP) =  -423.143674937     A.U. after   13 cycles

 The electronic state is 1-A.
 Alpha  occ. eigenvalues --  -19.15109 -19.14519 -10.23796 -10.23674 -10.23389
 Alpha  occ. eigenvalues --  -10.23276 -10.20020 -10.19471 -10.18407  -1.07170
 Alpha  occ. eigenvalues --   -1.03687  -0.85601  -0.75869  -0.72500  -0.64780
 Alpha  occ. eigenvalues --   -0.60819  -0.57425  -0.56587  -0.52529  -0.50078
 Alpha  occ. eigenvalues --   -0.48266  -0.44541  -0.43888  -0.42480  -0.41866
 Alpha  occ. eigenvalues --   -0.39561  -0.37310  -0.36349  -0.34524  -0.31713
 Alpha  occ. eigenvalues --   -0.29470  -0.27422  -0.26653  -0.24508
 Alpha virt. eigenvalues --    0.07623   0.08108   0.09508   0.10325   0.11531
 Alpha virt. eigenvalues --    0.12888   0.14677   0.15645   0.16808   0.17739
 Alpha virt. eigenvalues --    0.18335   0.18721   0.19176   0.20732   0.22750

 Mulliken charges:
               1
     1  C   -0.310925
     2  C   -0.043982
     3  C   -0.274533
     4  C    0.047185
     5  O   -0.259174
     6  C    0.050720
     7  C   -0.121018
     8  O   -0.252788
     9  C    0.107752
    10  H    0.119831
    11  H    0.110330
    12  H    0.092313
    13  H    0.122514
    14  H    0.107396
    15  H    0.097388
    16  H    0.094657
    17  H    0.108378
    18  H    0.109628
    19  H    0.094328
 Sum of Mulliken charges =   0.00000

 Dipole moment (field-independent basis, Debye):
    X=              1.2168    Y=             -0.8805    Z=             -0.0170  Tot=              1.5021
 Quadrupole moment (field-independent basis, Debye-Ang):
   XX=            -57.1225   YY=            -52.7924   ZZ=            -51.2301
   XY=             -3.5378   XZ=             -2.7329   YZ=             -0.9376

 Optimization completed.
    -- Stationary point found.
 Normal termination of Gaussian 09 at Mon Jan 27 11:15:09 2020.

 ----------------------------------------------------------------------
 #N Geom=AllCheck Guess=TCheck SCRF=Check GenChk RB3LYP/6-31G(2df,p) Fr
 eq
 ----------------------------------------------------------------------

 Structure from the checkpoint file:  "/scratch/puck/g09_ce03f487-daef-41fc-95ad-97ae69bae71a/Gau-68768.chk"
 -----
 titel
 -----
 Charge =  0 Multiplicity = 1

                         Standard orientation:
 ---------------------------------------------------------------------
 Center     Atomic      Atomic             Coordinates (Angstroms)
 Number     Number       Type             X           Y           Z
 ---------------------------------------------------------------------
      1          6           0        1.948487   -0.512340    0.815061
      2          6           0        1.252481   -0.918901   -0.468558
      3          6           0       -0.157617   -1.490338   -0.521931
      4          6           0       -1.156975   -0.882096    0.449768
      5          8           0       -2.345813   -0.309826   -0.117579
      6          6           0       -1.391908    0.565962    0.484661
      7          6           0       -0.570907    1.462168   -0.423537
      8          8           0        0.751398    1.569937    0.077020
      9          6           0        1.636318    0.527639   -0.230340
     10          1           0        1.336503   -0.458872    1.709332
     11          1           0        2.975931   -0.813810    0.987651
     12          1           0        1.901122   -1.401528   -1.196473
     13          1           0       -0.562090   -1.365952   -1.532456
     14          1           0       -0.099750   -2.571310   -0.347047
     15          1           0       -1.342181   -1.443740    1.364680
     16          1           0       -1.717535    1.018318    1.421752
     17          1           0       -0.591672    1.072215   -1.448181
     18          1           0       -0.974365    2.479511   -0.437623
     19          1           0        2.470088    0.891715   -0.827916
 ---------------------------------------------------------------------

 SCF Done:  E(RB3LYP) =  -423.143674937     A.U. after    1 cycles
