 Gaussian 09, Revision D.01,
 Gaussian 09:  ES64L-G09RevD.01 24-Apr-2013

 -----------------------------
 # b3lyp 6-31G(2df,p) opt Freq
 -----------------------------

 -----
 titel
 -----
 Symbolic Z-matrix:
 Charge =  0 Multiplicity = 1

 SCF Done:  E(RB3LYP) =  -423.189538867     A.U. after   13 cycles

 The electronic state is 1-A.
 Alpha  occ. eigenvalues --  -19.13261 -19.12934 -10.23515 -10.23515 -10.23246
 Alpha  occ. eigenvalues --  -10.22914 -10.19447 -10.18015 -10.18014  -1.04588
 Alpha  occ. eigenvalues --   -1.02155  -0.79133  -0.76918  -0.74841  -0.64764
 Alpha  occ. eigenvalues --   -0.61480  -0.60784  -0.53570  -0.48550  -0.48397
 Alpha  occ. eigenvalues --   -0.48329  -0.43587  -0.43358  -0.42445  -0.39882
 Alpha  occ. eigenvalues --   -0.39468  -0.38964  -0.36423  -0.34602  -0.32370
 Alpha  occ. eigenvalues --   -0.31621  -0.28440  -0.24023  -0.23956
 Alpha virt. eigenvalues --    0.07991   0.08906   0.12528   0.13125   0.13421
 Alpha virt. eigenvalues --    0.13869   0.14567   0.15556   0.16209   0.17228
 Alpha virt. eigenvalues --    0.17256   0.17832   0.18363   0.20217   0.21517

 Mulliken charges:
               1
     1  C   -0.108071
     2  O   -0.278422
     3  C    0.094522
     4  C   -0.225469
     5  C    0.082121
     6  O   -0.303614
     7  C    0.082124
     8  C   -0.225474
     9  C   -0.052994
    10  H    0.100588
    11  H    0.100590
    12  H    0.077704
    13  H    0.103240
    14  H    0.107740
    15  H    0.075554
    16  H    0.075553
    17  H    0.103240
    18  H    0.107741
    19  H    0.083328
 Sum of Mulliken charges =   0.00000

 Dipole moment (field-independent basis, Debye):
    X=              0.2327    Y=              0.6692    Z=              0.0000  Tot=              0.7085
 Quadrupole moment (field-independent basis, Debye-Ang):
   XX=            -61.9677   YY=            -49.2715   ZZ=            -49.8954
   XY=              0.1561   XZ=              0.0001   YZ=             -0.0001

 Optimization completed.
    -- Stationary point found.
 Normal termination of Gaussian 09 at Mon Jan 27 11:16:57 2020.

 ----------------------------------------------------------------------
 #N Geom=AllCheck Guess=TCheck SCRF=Check GenChk RB3LYP/6-31G(2df,p) Fr
 eq
 ----------------------------------------------------------------------

 Structure from the checkpoint file:  "/scratch/puck/g09_b7ccd792-4624-4636-9a7d-d15226e7d815/Gau-70029.chk"
 -----
 titel
 -----
 Charge =  0 Multiplicity = 1

                         Standard orientation:
 ---------------------------------------------------------------------
 Center     Atomic      Atomic             Coordinates (Angstroms)
 Number     Number       Type             X           Y           Z
 ---------------------------------------------------------------------
      1          6           0        1.320068    1.221689   -0.000051
      2          8           0        1.828791   -0.114615   -0.000018
      3          6           0        0.796082   -1.105882    0.000056
      4          6           0       -0.068053   -0.922566   -1.265575
      5          6           0       -0.926600    0.322709   -1.014211
      6          8           0       -1.914792   -0.009685    0.000004
      7          6           0       -0.926596    0.322825    1.014177
      8          6           0       -0.068040   -0.922415    1.265676
      9          6           0       -0.199001    1.242912   -0.000068
     10          1           0        1.709664    1.747633    0.883725
     11          1           0        1.709699    1.747591   -0.883836
     12          1           0        1.322768   -2.062664    0.000116
     13          1           0        0.591911   -0.800166   -2.130690
     14          1           0       -0.724719   -1.779880   -1.445004
     15          1           0       -1.379840    0.753336   -1.910938
     16          1           0       -1.379827    0.753550    1.910862
     17          1           0        0.591929   -0.799909    2.130773
     18          1           0       -0.724694   -1.779714    1.445213
     19          1           0       -0.596036    2.258995   -0.000130
 ---------------------------------------------------------------------

 SCF Done:  E(RB3LYP) =  -423.189538867     A.U. after    1 cycles
