 Gaussian 09, Revision D.01,
 Gaussian 09:  ES64L-G09RevD.01 24-Apr-2013

 -----------------------------
 # b3lyp 6-31G(2df,p) opt Freq
 -----------------------------

 -----
 titel
 -----
 Symbolic Z-matrix:
 Charge =  0 Multiplicity = 1

 SCF Done:  E(RB3LYP) =  -423.115660946     A.U. after   13 cycles

 The electronic state is 1-A.
 Alpha  occ. eigenvalues --  -19.13901 -19.13187 -10.23992 -10.23543 -10.23257
 Alpha  occ. eigenvalues --  -10.23123 -10.19519 -10.18996 -10.18844  -1.05288
 Alpha  occ. eigenvalues --   -1.03461  -0.83171  -0.75405  -0.72977  -0.65238
 Alpha  occ. eigenvalues --   -0.60496  -0.56510  -0.54296  -0.51843  -0.49004
 Alpha  occ. eigenvalues --   -0.48422  -0.47124  -0.44728  -0.42609  -0.39683
 Alpha  occ. eigenvalues --   -0.38467  -0.37261  -0.34372  -0.34223  -0.31518
 Alpha  occ. eigenvalues --   -0.30214  -0.27730  -0.25496  -0.23256
 Alpha virt. eigenvalues --    0.06543   0.09282   0.10375   0.10711   0.11800
 Alpha virt. eigenvalues --    0.12790   0.13040   0.14973   0.15697   0.16358
 Alpha virt. eigenvalues --    0.17266   0.17861   0.19133   0.21286   0.22112

 Mulliken charges:
               1
     1  C   -0.306894
     2  C    0.108033
     3  O   -0.306325
     4  C    0.105414
     5  C   -0.129885
     6  C    0.147257
     7  C   -0.301003
     8  C   -0.060413
     9  O   -0.299872
    10  H    0.115999
    11  H    0.116071
    12  H    0.103415
    13  H    0.078498
    14  H    0.111236
    15  H    0.076773
    16  H    0.114809
    17  H    0.117709
    18  H    0.103905
    19  H    0.105273
 Sum of Mulliken charges =   0.00000

 Dipole moment (field-independent basis, Debye):
    X=              0.0970    Y=              0.0645    Z=             -0.2192  Tot=              0.2483
 Quadrupole moment (field-independent basis, Debye-Ang):
   XX=            -47.1585   YY=            -57.7393   ZZ=            -50.8566
   XY=              4.8399   XZ=              2.3536   YZ=             -0.6860

 Optimization completed.
    -- Stationary point found.
 Normal termination of Gaussian 09 at Mon Jan 27 11:16:43 2020.

 ----------------------------------------------------------------------
 #N Geom=AllCheck Guess=TCheck SCRF=Check GenChk RB3LYP/6-31G(2df,p) Fr
 eq
 ----------------------------------------------------------------------

 Structure from the checkpoint file:  "/scratch/puck/g09_4ffe7153-febe-4ab7-8635-af6e50eb501a/Gau-46351.chk"
 -----
 titel
 -----
 Charge =  0 Multiplicity = 1

                         Standard orientation:
 ---------------------------------------------------------------------
 Center     Atomic      Atomic             Coordinates (Angstroms)
 Number     Number       Type             X           Y           Z
 ---------------------------------------------------------------------
      1          6           0       -2.771607   -0.521325    0.477938
      2          6           0       -2.167261    0.415124   -0.517351
      3          8           0       -1.162008    1.230055    0.096139
      4          6           0       -0.361027    0.041206    0.375342
      5          6           0       -1.450965   -0.871582   -0.177868
      6          6           0        0.916380    0.080371   -0.438037
      7          6           0        2.047139    0.997397    0.074513
      8          6           0        2.835790   -0.316163    0.251987
      9          8           0        1.716163   -1.104681   -0.211596
     10          1           0       -2.814251   -0.234746    1.525346
     11          1           0       -3.617484   -1.102155    0.122766
     12          1           0       -2.644156    0.788264   -1.416072
     13          1           0       -0.130424   -0.055828    1.444394
     14          1           0       -1.283054   -1.772989   -0.750612
     15          1           0        0.667674    0.201640   -1.500349
     16          1           0        2.450823    1.698159   -0.656466
     17          1           0        1.814902    1.534964    0.995665
     18          1           0        3.710982   -0.434184   -0.398381
     19          1           0        3.121053   -0.576295    1.278214
 ---------------------------------------------------------------------

 SCF Done:  E(RB3LYP) =  -423.115660946     A.U. after    1 cycles
