 Gaussian 09, Revision D.01,
 Gaussian 09:  ES64L-G09RevD.01 24-Apr-2013

 -----------------------------
 # b3lyp 6-31G(2df,p) opt Freq
 -----------------------------

 -----
 titel
 -----
 Symbolic Z-matrix:
 Charge =  0 Multiplicity = 1

 SCF Done:  E(RB3LYP) =  -423.191762334     A.U. after   13 cycles

 The electronic state is 1-A.
 Alpha  occ. eigenvalues --  -19.14841 -19.13182 -10.23619 -10.23557 -10.23138
 Alpha  occ. eigenvalues --  -10.22762 -10.19606 -10.18427 -10.18237  -1.06992
 Alpha  occ. eigenvalues --   -1.02819  -0.80296  -0.77575  -0.71269  -0.65621
 Alpha  occ. eigenvalues --   -0.61595  -0.57601  -0.54963  -0.53073  -0.48010
 Alpha  occ. eigenvalues --   -0.47103  -0.45233  -0.42999  -0.42312  -0.41359
 Alpha  occ. eigenvalues --   -0.39037  -0.37296  -0.34974  -0.34455  -0.32312
 Alpha  occ. eigenvalues --   -0.31388  -0.28914  -0.26724  -0.24489
 Alpha virt. eigenvalues --    0.08582   0.09300   0.11500   0.11919   0.13018
 Alpha virt. eigenvalues --    0.13591   0.14071   0.15545   0.16025   0.17143
 Alpha virt. eigenvalues --    0.17464   0.18693   0.18935   0.20103   0.22201

 Mulliken charges:
               1
     1  C   -0.070434
     2  O   -0.280134
     3  C    0.105571
     4  C   -0.247290
     5  C   -0.085004
     6  C    0.054652
     7  O   -0.261999
     8  C    0.054698
     9  C   -0.240193
    10  H    0.099575
    11  H    0.094203
    12  H    0.075468
    13  H    0.099980
    14  H    0.124383
    15  H    0.074387
    16  H    0.090013
    17  H    0.092890
    18  H    0.111188
    19  H    0.108044
 Sum of Mulliken charges =   0.00000

 Dipole moment (field-independent basis, Debye):
    X=              0.4261    Y=             -0.4737    Z=             -0.1547  Tot=              0.6556
 Quadrupole moment (field-independent basis, Debye-Ang):
   XX=            -58.8145   YY=            -49.6190   ZZ=            -52.2515
   XY=             -3.3431   XZ=              4.4777   YZ=              1.8075

 Optimization completed.
    -- Stationary point found.
 Normal termination of Gaussian 09 at Mon Jan 27 11:16:32 2020.

 ----------------------------------------------------------------------
 #N Geom=AllCheck Guess=TCheck SCRF=Check GenChk RB3LYP/6-31G(2df,p) Fr
 eq
 ----------------------------------------------------------------------

 Structure from the checkpoint file:  "/scratch/puck/g09_ee9b2fb0-7aec-48c6-8b12-3cdab6fb6a4f/Gau-69972.chk"
 -----
 titel
 -----
 Charge =  0 Multiplicity = 1

                         Standard orientation:
 ---------------------------------------------------------------------
 Center     Atomic      Atomic             Coordinates (Angstroms)
 Number     Number       Type             X           Y           Z
 ---------------------------------------------------------------------
      1          6           0        1.494415   -0.867391   -0.668155
      2          8           0        1.604977    0.559377   -0.637251
      3          6           0        0.774383    1.081486    0.413815
      4          6           0        0.579526   -0.103169    1.366721
      5          6           0        0.368155   -1.209770    0.319669
      6          6           0       -0.971847   -1.003928   -0.375623
      7          8           0       -2.030217   -0.427581    0.389964
      8          6           0       -1.419935    0.375884   -0.634580
      9          6           0       -0.566810    1.548400   -0.176117
     10          1           0        1.277685   -1.188818   -1.694503
     11          1           0        2.447041   -1.322650   -0.362496
     12          1           0        1.308234    1.924567    0.861988
     13          1           0        1.486114   -0.289850    1.949251
     14          1           0       -0.270131    0.013143    2.038673
     15          1           0        0.452994   -2.221859    0.723607
     16          1           0       -1.285942   -1.798832   -1.052918
     17          1           0       -2.077703    0.560157   -1.483430
     18          1           0       -0.359282    2.196771   -1.033810
     19          1           0       -1.124411    2.143930    0.557542
 ---------------------------------------------------------------------

 SCF Done:  E(RB3LYP) =  -423.191762334     A.U. after    1 cycles
