 Gaussian 09, Revision D.01,
 Gaussian 09:  ES64L-G09RevD.01 24-Apr-2013

 -----------------------------
 # b3lyp 6-31G(2df,p) opt Freq
 -----------------------------

 -----
 titel
 -----
 Symbolic Z-matrix:
 Charge =  0 Multiplicity = 1

 SCF Done:  E(RB3LYP) =  -423.212436079     A.U. after   14 cycles

 The electronic state is 1-A.
 Alpha  occ. eigenvalues --  -19.19695 -19.13265 -10.22829 -10.22609 -10.22281
 Alpha  occ. eigenvalues --  -10.19682 -10.18403 -10.17712 -10.17474  -1.09984
 Alpha  occ. eigenvalues --   -1.01382  -0.80452  -0.78820  -0.73660  -0.66946
 Alpha  occ. eigenvalues --   -0.60662  -0.59287  -0.54456  -0.52026  -0.49936
 Alpha  occ. eigenvalues --   -0.46889  -0.44953  -0.42346  -0.41837  -0.41366
 Alpha  occ. eigenvalues --   -0.39638  -0.38034  -0.36330  -0.35895  -0.34728
 Alpha  occ. eigenvalues --   -0.31998  -0.27145  -0.26684  -0.21495
 Alpha virt. eigenvalues --    0.02032   0.07668   0.07966   0.09861   0.11999
 Alpha virt. eigenvalues --    0.13103   0.14335   0.14803   0.15585   0.17097
 Alpha virt. eigenvalues --    0.18010   0.18691   0.20084   0.20655   0.22072

 Mulliken charges:
               1
     1  O   -0.418249
     2  C   -0.057150
     3  C   -0.193538
     4  C   -0.323597
     5  C    0.376501
     6  C   -0.277814
     7  C   -0.168407
     8  C   -0.021328
     9  O   -0.179829
    10  H    0.280315
    11  H    0.083414
    12  H    0.112151
    13  H    0.123085
    14  H    0.091215
    15  H    0.112868
    16  H    0.118140
    17  H    0.103422
    18  H    0.108813
    19  H    0.129986
 Sum of Mulliken charges =   0.00000

 Dipole moment (field-independent basis, Debye):
    X=              0.9599    Y=              1.2431    Z=             -0.8370  Tot=              1.7797
 Quadrupole moment (field-independent basis, Debye-Ang):
   XX=            -57.3575   YY=            -51.6776   ZZ=            -51.4396
   XY=             -4.6201   XZ=              1.3761   YZ=             -0.6884

 Optimization completed.
    -- Stationary point found.
 Normal termination of Gaussian 09 at Mon Jan 27 11:16:05 2020.

 ----------------------------------------------------------------------
 #N Geom=AllCheck Guess=TCheck SCRF=Check GenChk RB3LYP/6-31G(2df,p) Fr
 eq
 ----------------------------------------------------------------------

 Structure from the checkpoint file:  "/scratch/puck/g09_acd58626-06c9-43a8-a662-8f705e770b6d/Gau-22664.chk"
 -----
 titel
 -----
 Charge =  0 Multiplicity = 1

                         Standard orientation:
 ---------------------------------------------------------------------
 Center     Atomic      Atomic             Coordinates (Angstroms)
 Number     Number       Type             X           Y           Z
 ---------------------------------------------------------------------
      1          8           0       -3.876684   -0.507893   -0.454884
      2          6           0       -2.896589    0.238843    0.246829
      3          6           0       -1.469250   -0.098341   -0.184266
      4          6           0       -0.409787    0.665710    0.632417
      5          6           0        0.990424    0.355398    0.230773
      6          6           0        1.996271    1.089927   -0.318547
      7          6           0        3.113609    0.204423   -0.477771
      8          6           0        2.701874   -1.001883   -0.013699
      9          8           0        1.413957   -0.929641    0.421103
     10          1           0       -3.796800   -0.291506   -1.389381
     11          1           0       -3.072580    1.323392    0.148565
     12          1           0       -3.037501   -0.011484    1.304545
     13          1           0       -1.310912   -1.176702   -0.080466
     14          1           0       -1.342528    0.139990   -1.249266
     15          1           0       -0.558553    1.745711    0.523780
     16          1           0       -0.546642    0.436607    1.698166
     17          1           0        1.949625    2.136446   -0.577135
     18          1           0        4.086208    0.440292   -0.880201
     19          1           0        3.172181   -1.966940    0.077229
 ---------------------------------------------------------------------

 SCF Done:  E(RB3LYP) =  -423.212436079     A.U. after    1 cycles
