 Gaussian 09, Revision D.01,
 Gaussian 09:  ES64L-G09RevD.01 24-Apr-2013

 -----------------------------
 # b3lyp 6-31G(2df,p) opt Freq
 -----------------------------

 -----
 titel
 -----
 Symbolic Z-matrix:
 Charge =  0 Multiplicity = 1

 SCF Done:  E(RB3LYP) =  -423.107922083     A.U. after   13 cycles

 The electronic state is 1-A.
 Alpha  occ. eigenvalues --  -19.14007 -19.13406 -10.24249 -10.23820 -10.23569
 Alpha  occ. eigenvalues --  -10.23267 -10.20783 -10.20450 -10.19360  -1.05434
 Alpha  occ. eigenvalues --   -1.03999  -0.84461  -0.75528  -0.70175  -0.69168
 Alpha  occ. eigenvalues --   -0.60839  -0.58070  -0.54445  -0.52298  -0.50357
 Alpha  occ. eigenvalues --   -0.48376  -0.46570  -0.44106  -0.41184  -0.40856
 Alpha  occ. eigenvalues --   -0.40437  -0.38881  -0.36002  -0.35157  -0.31991
 Alpha  occ. eigenvalues --   -0.30250  -0.26907  -0.25016  -0.23724
 Alpha virt. eigenvalues --    0.06775   0.07987   0.08661   0.09895   0.10290
 Alpha virt. eigenvalues --    0.11997   0.13508   0.14329   0.15332   0.16165
 Alpha virt. eigenvalues --    0.17103   0.18047   0.18903   0.19160   0.20446

 Mulliken charges:
               1
     1  C   -0.352895
     2  C    0.059894
     3  O   -0.284719
     4  C   -0.132849
     5  C    0.262178
     6  C   -0.158917
     7  C   -0.085540
     8  O   -0.269576
     9  C   -0.088599
    10  H    0.116340
    11  H    0.117107
    12  H    0.110162
    13  H    0.108373
    14  H    0.105739
    15  H    0.085325
    16  H    0.102368
    17  H    0.103570
    18  H    0.096094
    19  H    0.105946
 Sum of Mulliken charges =   0.00000

 Dipole moment (field-independent basis, Debye):
    X=              0.0252    Y=              0.5019    Z=             -1.6545  Tot=              1.7292
 Quadrupole moment (field-independent basis, Debye-Ang):
   XX=            -64.8805   YY=            -49.6757   ZZ=            -52.3786
   XY=             -0.5347   XZ=             -0.1170   YZ=              1.6899

 Optimization completed.
    -- Stationary point found.
 Normal termination of Gaussian 09 at Mon Jan 27 11:14:33 2020.

 ----------------------------------------------------------------------
 #N Geom=AllCheck Guess=TCheck SCRF=Check GenChk RB3LYP/6-31G(2df,p) Fr
 eq
 ----------------------------------------------------------------------

 Structure from the checkpoint file:  "/scratch/puck/g09_3106bb69-7f66-474b-95c7-432debf8e7fe/Gau-68665.chk"
 -----
 titel
 -----
 Charge =  0 Multiplicity = 1

                         Standard orientation:
 ---------------------------------------------------------------------
 Center     Atomic      Atomic             Coordinates (Angstroms)
 Number     Number       Type             X           Y           Z
 ---------------------------------------------------------------------
      1          6           0       -1.352358    1.401634   -0.366058
      2          6           0       -1.381100    0.484202    0.818478
      3          8           0       -2.348754   -0.549741    0.629611
      4          6           0       -1.612867   -1.041650   -0.522274
      5          6           0       -0.587353    0.089699   -0.410364
      6          6           0        0.874750   -0.038128   -0.694555
      7          6           0        1.691508   -1.113161    0.067463
      8          8           0        2.642989   -0.129848    0.520400
      9          6           0        1.858088    0.949061   -0.019753
     10          1           0       -2.255959    1.542943   -0.953649
     11          1           0       -0.730572    2.285555   -0.257900
     12          1           0       -1.107604    0.746828    1.834260
     13          1           0       -1.195160   -2.033717   -0.312158
     14          1           0       -2.228994   -1.085239   -1.428550
     15          1           0        1.041114   -0.095427   -1.775550
     16          1           0        1.155595   -1.580092    0.904982
     17          1           0        2.165496   -1.894736   -0.537066
     18          1           0        1.415813    1.567235    0.774007
     19          1           0        2.442378    1.593421   -0.686092
 ---------------------------------------------------------------------

 SCF Done:  E(RB3LYP) =  -423.107922083     A.U. after    1 cycles
