 Gaussian 09, Revision D.01,
 Gaussian 09:  ES64L-G09RevD.01 24-Apr-2013

 -----------------------------
 # b3lyp 6-31G(2df,p) opt Freq
 -----------------------------

 -----
 titel
 -----
 Symbolic Z-matrix:
 Charge =  0 Multiplicity = 1

 SCF Done:  E(RB3LYP) =  -423.191543737     A.U. after   13 cycles

 The electronic state is 1-A.
 Alpha  occ. eigenvalues --  -19.13241 -19.12807 -10.23308 -10.23212 -10.23112
 Alpha  occ. eigenvalues --  -10.22454 -10.19296 -10.18699 -10.17626  -1.04668
 Alpha  occ. eigenvalues --   -1.01486  -0.82287  -0.76352  -0.70245  -0.67798
 Alpha  occ. eigenvalues --   -0.63892  -0.55505  -0.53451  -0.51644  -0.49390
 Alpha  occ. eigenvalues --   -0.46947  -0.44959  -0.42633  -0.42146  -0.40213
 Alpha  occ. eigenvalues --   -0.38812  -0.38178  -0.36172  -0.35566  -0.30776
 Alpha  occ. eigenvalues --   -0.29906  -0.29265  -0.24461  -0.24332
 Alpha virt. eigenvalues --    0.08016   0.09101   0.11190   0.12162   0.12615
 Alpha virt. eigenvalues --    0.14087   0.15570   0.16109   0.16629   0.16967
 Alpha virt. eigenvalues --    0.17488   0.18981   0.19427   0.20363   0.20987

 Mulliken charges:
               1
     1  C   -0.233286
     2  C    0.116745
     3  O   -0.301689
     4  C    0.099976
     5  C   -0.090173
     6  O   -0.279728
     7  C    0.109239
     8  C   -0.252729
     9  C   -0.093608
    10  H    0.092063
    11  H    0.117165
    12  H    0.074957
    13  H    0.076315
    14  H    0.115850
    15  H    0.087173
    16  H    0.077256
    17  H    0.101806
    18  H    0.108267
    19  H    0.074400
 Sum of Mulliken charges =   0.00000

 Dipole moment (field-independent basis, Debye):
    X=              0.4981    Y=             -0.8360    Z=              2.1227  Tot=              2.3351
 Quadrupole moment (field-independent basis, Debye-Ang):
   XX=            -55.3389   YY=            -50.3831   ZZ=            -53.6592
   XY=             -2.9851   XZ=             -1.2214   YZ=              1.3494

 Optimization completed.
    -- Stationary point found.
 Normal termination of Gaussian 09 at Mon Jan 27 11:19:39 2020.

 ----------------------------------------------------------------------
 #N Geom=AllCheck Guess=TCheck SCRF=Check GenChk RB3LYP/6-31G(2df,p) Fr
 eq
 ----------------------------------------------------------------------

 Structure from the checkpoint file:  "/scratch/puck/g09_483d2ff9-2219-490c-b84f-de580949626d/Gau-164865.chk"
 -----
 titel
 -----
 Charge =  0 Multiplicity = 1

                         Standard orientation:
 ---------------------------------------------------------------------
 Center     Atomic      Atomic             Coordinates (Angstroms)
 Number     Number       Type             X           Y           Z
 ---------------------------------------------------------------------
      1          6           0        0.604243   -1.276404   -0.898971
      2          6           0       -0.756830   -1.249335   -0.189699
      3          8           0       -1.600448   -0.183759   -0.688785
      4          6           0       -1.165877    0.693886    0.371795
      5          6           0       -0.150137    1.718447   -0.119031
      6          8           0        1.005089    1.137681   -0.710023
      7          6           0        1.401114   -0.143621   -0.210618
      8          6           0        1.014007   -0.311120    1.269601
      9          6           0       -0.499268   -0.481031    1.139044
     10          1           0        1.104395   -2.237638   -0.727481
     11          1           0        0.507228   -1.118700   -1.975458
     12          1           0       -1.286185   -2.205497   -0.179575
     13          1           0       -2.011460    1.199285    0.853357
     14          1           0       -0.602838    2.355545   -0.886448
     15          1           0        0.128373    2.366167    0.729338
     16          1           0        2.475554   -0.211289   -0.398433
     17          1           0        1.480690   -1.208028    1.690727
     18          1           0        1.313750    0.543054    1.883779
     19          1           0       -1.030137   -0.819207    2.027931
 ---------------------------------------------------------------------

 SCF Done:  E(RB3LYP) =  -423.191543737     A.U. after    1 cycles
