 Gaussian 09, Revision D.01,
 Gaussian 09:  ES64L-G09RevD.01 24-Apr-2013

 -----------------------------
 # b3lyp 6-31G(2df,p) opt Freq
 -----------------------------

 -----
 titel
 -----
 Symbolic Z-matrix:
 Charge =  0 Multiplicity = 1

 SCF Done:  E(RB3LYP) =  -423.222053138     A.U. after   14 cycles

 The electronic state is 1-A.
 Alpha  occ. eigenvalues --  -19.19173 -19.13407 -10.22686 -10.22641 -10.22466
 Alpha  occ. eigenvalues --  -10.19057 -10.18970 -10.17168 -10.17087  -1.09516
 Alpha  occ. eigenvalues --   -1.01516  -0.79540  -0.78817  -0.74489  -0.67219
 Alpha  occ. eigenvalues --   -0.62069  -0.58902  -0.54021  -0.50293  -0.49376
 Alpha  occ. eigenvalues --   -0.46131  -0.44463  -0.43016  -0.40876  -0.40547
 Alpha  occ. eigenvalues --   -0.39585  -0.38000  -0.37729  -0.37090  -0.35112
 Alpha  occ. eigenvalues --   -0.32413  -0.27345  -0.26529  -0.20571
 Alpha virt. eigenvalues --    0.02140   0.07740   0.08217   0.10756   0.11652
 Alpha virt. eigenvalues --    0.13520   0.14362   0.15344   0.16291   0.17480
 Alpha virt. eigenvalues --    0.17992   0.18127   0.20956   0.21478   0.22731

 Mulliken charges:
               1
     1  C   -0.492144
     2  C    0.346877
     3  C   -0.254541
     4  C   -0.265958
     5  C    0.344351
     6  C   -0.330356
     7  C   -0.056896
     8  O   -0.414778
     9  O   -0.217445
    10  H    0.135834
    11  H    0.134780
    12  H    0.135875
    13  H    0.103816
    14  H    0.105414
    15  H    0.121523
    16  H    0.102631
    17  H    0.100936
    18  H    0.117989
    19  H    0.282090
 Sum of Mulliken charges =   0.00000

 Dipole moment (field-independent basis, Debye):
    X=             -1.2726    Y=             -0.5107    Z=              0.7589  Tot=              1.5673
 Quadrupole moment (field-independent basis, Debye-Ang):
   XX=            -54.5234   YY=            -49.8414   ZZ=            -53.4795
   XY=             -0.8259   XZ=              5.1091   YZ=             -1.7292

 Optimization completed.
    -- Stationary point found.
 Normal termination of Gaussian 09 at Mon Jan 27 11:16:22 2020.

 ----------------------------------------------------------------------
 #N Geom=AllCheck Guess=TCheck SCRF=Check GenChk RB3LYP/6-31G(2df,p) Fr
 eq
 ----------------------------------------------------------------------

 Structure from the checkpoint file:  "/scratch/puck/g09_e4bbf9bb-72a7-4a18-9441-2b8ff6d9d180/Gau-22670.chk"
 -----
 titel
 -----
 Charge =  0 Multiplicity = 1

                         Standard orientation:
 ---------------------------------------------------------------------
 Center     Atomic      Atomic             Coordinates (Angstroms)
 Number     Number       Type             X           Y           Z
 ---------------------------------------------------------------------
      1          6           0       -2.960555   -1.345042   -0.045489
      2          6           0       -1.960791   -0.245310   -0.030607
      3          6           0       -2.027781    1.088865   -0.283953
      4          6           0       -0.704785    1.609183   -0.093801
      5          6           0        0.078783    0.557491    0.264763
      6          6           0        1.525652    0.407097    0.577437
      7          6           0        2.300927   -0.375920   -0.498993
      8          8           0        3.679906   -0.491439   -0.195211
      9          8           0       -0.679391   -0.582941    0.304720
     10          1           0       -3.054816   -1.819198    0.938381
     11          1           0       -3.939045   -0.951312   -0.329288
     12          1           0       -2.687200   -2.129754   -0.760440
     13          1           0       -2.912404    1.637343   -0.568482
     14          1           0       -0.380907    2.632415   -0.205636
     15          1           0        1.972630    1.399760    0.684392
     16          1           0        1.647304   -0.107365    1.541386
     17          1           0        1.831811   -1.359418   -0.648034
     18          1           0        2.245078    0.160081   -1.451646
     19          1           0        3.764720   -1.045683    0.587148
 ---------------------------------------------------------------------

 SCF Done:  E(RB3LYP) =  -423.222053138     A.U. after    1 cycles
