 Gaussian 09, Revision D.01,
 Gaussian 09:  ES64L-G09RevD.01 24-Apr-2013

 -----------------------------
 # b3lyp 6-31G(2df,p) opt Freq
 -----------------------------

 -----
 titel
 -----
 Symbolic Z-matrix:
 Charge =  0 Multiplicity = 1

 SCF Done:  E(RB3LYP) =  -423.217566559     A.U. after   14 cycles
 Optimization completed.
    -- Stationary point found.
 Normal termination of Gaussian 09 at Mon Jan 27 10:17:58 2020.

 ----------------------------------------------------------------------
 #N Geom=AllCheck Guess=TCheck SCRF=Check GenChk RB3LYP/6-31G(2df,p) Fr
 eq
 ----------------------------------------------------------------------

 Structure from the checkpoint file:  "/scratch/puck/g09_95c9e5fa-d41e-4d4e-940d-ff014da0d0cc/Gau-35696.chk"
 -----
 titel
 -----
 Charge =  0 Multiplicity = 1

                         Standard orientation:
 ---------------------------------------------------------------------
 Center     Atomic      Atomic             Coordinates (Angstroms)
 Number     Number       Type             X           Y           Z
 ---------------------------------------------------------------------
      1          6           0       -3.240404   -0.481183    0.759129
      2          6           0       -2.433920   -0.483012   -0.551109
      3          6           0       -1.018071   -0.052940   -0.376713
      4          6           0        0.181535   -0.667374   -0.553272
      5          6           0        1.199706    0.289544   -0.205074
      6          6           0        2.681349    0.081398   -0.223206
      7          8           0        3.091323   -1.035944    0.559446
      8          6           0        0.527245    1.410863    0.167006
      9          8           0       -0.816559    1.227124    0.064791
     10          1           0       -4.276077   -0.782768    0.576426
     11          1           0       -2.805180   -1.172850    1.486824
     12          1           0       -3.248936    0.516632    1.206051
     13          1           0       -2.426985   -1.486018   -0.989337
     14          1           0       -2.927892    0.173541   -1.279374
     15          1           0        0.338580   -1.680951   -0.888620
     16          1           0        3.029755   -0.142061   -1.237893
     17          1           0        3.188570    1.005509    0.095463
     18          1           0        2.699636   -0.928766    1.432663
     19          1           0        0.845772    2.384512    0.503332
 ---------------------------------------------------------------------

 SCF Done:  E(RB3LYP) =  -423.217566559     A.U. after    1 cycles

 The electronic state is 1-A.
 Alpha  occ. eigenvalues --  -19.19773 -19.13148 -10.23058 -10.22888 -10.22450
 Alpha  occ. eigenvalues --  -10.19519 -10.18097 -10.17903 -10.17296  -1.10068
 Alpha  occ. eigenvalues --   -1.01177  -0.80137  -0.79404  -0.72277  -0.67984
 Alpha  occ. eigenvalues --   -0.63188  -0.58362  -0.54059  -0.51920  -0.48403
 Alpha  occ. eigenvalues --   -0.46133  -0.44164  -0.43151  -0.42449  -0.41803
 Alpha  occ. eigenvalues --   -0.38954  -0.38230  -0.36759  -0.35574  -0.34344
 Alpha  occ. eigenvalues --   -0.32674  -0.27989  -0.25767  -0.21715
 Alpha virt. eigenvalues --    0.01762   0.05870   0.10014   0.10629   0.12559
 Alpha virt. eigenvalues --    0.13239   0.14722   0.14981   0.15800   0.16817
 Alpha virt. eigenvalues --    0.17453   0.18406   0.20010   0.21350   0.22649

 Mulliken charges:
               1
     1  C   -0.372015
     2  C   -0.290812
     3  C    0.390338
     4  C   -0.389923
     5  C    0.225012
     6  C   -0.172888
     7  O   -0.413265
     8  C   -0.123432
     9  O   -0.186529
    10  H    0.113757
    11  H    0.121213
    12  H    0.131979
    13  H    0.115461
    14  H    0.117317
    15  H    0.114466
    16  H    0.117142
    17  H    0.089527
    18  H    0.280404
    19  H    0.132249
 Sum of Mulliken charges =   0.00000

 Dipole moment (field-independent basis, Debye):
    X=             -1.1441    Y=              0.5301    Z=              0.3641  Tot=              1.3125
 Quadrupole moment (field-independent basis, Debye-Ang):
   XX=            -55.7072   YY=            -52.7341   ZZ=            -51.3432
   XY=              5.8651   XZ=              1.5108   YZ=              1.0114

  Exact polarizability: 105.344   2.315  75.742  -0.363   5.386  58.470
 Approx polarizability: 138.906  -5.359 125.186  -0.311  12.304  88.224

                      1                      2                      3
                      A                      A                      A
 Frequencies --     51.6807                68.7409               115.9016
 Red. masses --      2.7107                 3.5013                 3.0356
 Frc consts  --      0.0043                 0.0097                 0.0240
 IR Inten    --      0.1634                 2.3947                 0.1263

                      4                      5                      6
                      A                      A                      A
 Frequencies --    164.0943               207.7777               261.5063
 Red. masses --      3.2779                 1.2810                 1.9695
 Frc consts  --      0.0520                 0.0326                 0.0794
 IR Inten    --      1.3572                 0.6873                20.3352

                      7                      8                      9
                      A                      A                      A
 Frequencies --    312.5156               346.8390               418.8319
 Red. masses --      2.1088                 1.4494                 2.6884
 Frc consts  --      0.1213                 0.1027                 0.2779
 IR Inten    --     18.9250                85.4166                 9.4434

                     10                     11                     12
                      A                      A                      A
 Frequencies --    457.9317               588.8381               644.6555
 Red. masses --      5.4542                 3.6074                 3.4315
 Frc consts  --      0.6739                 0.7370                 0.8402
 IR Inten    --      2.8857                 4.1459                 6.3553

                     13                     14                     15
                      A                      A                      A
 Frequencies --    707.5086               734.6609               760.2500
 Red. masses --      3.5366                 1.8883                 1.9448
 Frc consts  --      1.0431                 0.6005                 0.6623
 IR Inten    --      0.4769                22.0275                 5.9692

                     16                     17                     18
                      A                      A                      A
 Frequencies --    787.7026               822.1554               938.3893
 Red. masses --      1.2442                 1.4186                 3.9337
 Frc consts  --      0.4549                 0.5650                 2.0409
 IR Inten    --      0.2204                23.1481                23.2073

                     19                     20                     21
                      A                      A                      A
 Frequencies --    972.8198               977.0135               992.9812
 Red. masses --      1.5328                 2.1575                 4.9044
 Frc consts  --      0.8547                 1.2134                 2.8492
 IR Inten    --     16.6224                11.8643                26.2861

                     22                     23                     24
                      A                      A                      A
 Frequencies --   1053.5934              1069.1751              1088.4167
 Red. masses --      4.2995                 2.0105                 1.6376
 Frc consts  --      2.8120                 1.3541                 1.1430
 IR Inten    --     66.6302                17.0475                 0.7472

                     25                     26                     27
                      A                      A                      A
 Frequencies --   1160.8262              1171.9156              1198.4142
 Red. masses --      1.7149                 4.0485                 1.1870
 Frc consts  --      1.3615                 3.2760                 1.0044
 IR Inten    --     20.8263                16.0744                10.0100

                     28                     29                     30
                      A                      A                      A
 Frequencies --   1232.9008              1284.1031              1308.4475
 Red. masses --      1.7226                 1.3832                 1.8892
 Frc consts  --      1.5427                 1.3438                 1.9056
 IR Inten    --      8.2109                 1.1072                 2.0350

                     31                     32                     33
                      A                      A                      A
 Frequencies --   1353.9766              1356.3764              1404.9278
 Red. masses --      1.4459                 1.5286                 1.3001
 Frc consts  --      1.5618                 1.6569                 1.5119
 IR Inten    --      1.6859                19.3391                 1.4309

                     34                     35                     36
                      A                      A                      A
 Frequencies --   1419.7283              1425.3656              1475.3831
 Red. masses --      2.4247                 1.2626                 1.0805
 Frc consts  --      2.8795                 1.5114                 1.3857
 IR Inten    --      1.0942                67.7987                 2.6302

                     37                     38                     39
                      A                      A                      A
 Frequencies --   1496.1286              1505.5108              1506.6819
 Red. masses --      1.0409                 1.0867                 1.0635
 Frc consts  --      1.3727                 1.4512                 1.4225
 IR Inten    --      6.2339                 0.3200                 1.6191

                     40                     41                     42
                      A                      A                      A
 Frequencies --   1587.7093              1655.3414              2982.2623
 Red. masses --      6.1598                 6.6293                 1.0700
 Frc consts  --      9.1487                10.7027                 5.6069
 IR Inten    --     31.2262                 3.4754                66.1653

                     43                     44                     45
                      A                      A                      A
 Frequencies --   3023.1907              3041.8326              3058.3688
 Red. masses --      1.0666                 1.0345                 1.0919
 Frc consts  --      5.7435                 5.6398                 6.0174
 IR Inten    --     24.8552                29.0082                28.6667

                     46                     47                     48
                      A                      A                      A
 Frequencies --   3080.4239              3112.7843              3122.9374
 Red. masses --      1.0946                 1.1024                 1.1019
 Frc consts  --      6.1199                 6.2936                 6.3319
 IR Inten    --      7.2268                34.3196                25.7457

                     49                     50                     51
                      A                      A                      A
 Frequencies --   3255.5233              3268.3094              3809.0997
 Red. masses --      1.0967                 1.0978                 1.0661
 Frc consts  --      6.8481                 6.9088                 9.1138
 IR Inten    --      2.1134                 0.3825                13.9889

 - Thermochemistry -
 -------------------
 Temperature   298.150 Kelvin.  Pressure   1.00000 Atm.
 Atom     1 has atomic number  6 and mass  12.00000

 Molecular mass:   126.06808 amu.
 Principal axes and moments of inertia in atomic units:
                           1         2         3
     Eigenvalues --   448.902522118.678142326.71413
           X            0.99975   0.02106  -0.00696
           Y           -0.02091   0.99956   0.02080
           Z            0.00739  -0.02065   0.99976
 This molecule is an asymmetric top.
 Rotational symmetry number  1.
 Warning -- assumption of classical behavior for rotation
           may cause significant error
 Rotational temperatures (Kelvin)      0.19295     0.04088     0.03723
 Rotational constants (GHZ):           4.02034     0.85182     0.77566
 Zero-point vibrational energy     417750.6 (Joules/Mol)
                                   99.84479 (Kcal/Mol)
 Warning -- explicit consideration of  11 degrees of freedom as
           vibrations may cause significant error
 Vibrational temperatures:     74.36    98.90   166.76   236.09   298.95
          (Kelvin)            376.25   449.64   499.02   602.60   658.86
                              847.21   927.51  1017.95  1057.01  1093.83
                             1133.33  1182.90  1350.13  1399.67  1405.70
                             1428.68  1515.88  1538.30  1565.99  1670.17
                             1686.12  1724.25  1773.87  1847.54  1882.56
                             1948.07  1951.52  2021.38  2042.67  2050.78
                             2122.74  2152.59  2166.09  2167.78  2284.36
                             2381.66  4290.80  4349.69  4376.51  4400.31
                             4432.04  4478.60  4493.20  4683.97  4702.36
                             5480.44

 Zero-point correction=                           0.159113 (Hartree/Particle)
 Thermal correction to Energy=                    0.168399
 Thermal correction to Enthalpy=                  0.169343
 Thermal correction to Gibbs Free Energy=         0.124112
 Sum of electronic and zero-point Energies=           -423.058454
 Sum of electronic and thermal Energies=              -423.049168
 Sum of electronic and thermal Enthalpies=            -423.048224
 Sum of electronic and thermal Free Energies=         -423.093454

                     E (Thermal)             CV                S
                      KCal/Mol        Cal/Mol-Kelvin    Cal/Mol-Kelvin
 Total                  105.672             33.546             95.196
 Electronic               0.000              0.000              0.000
 Translational            0.889              2.981             40.409
 Rotational               0.889              2.981             29.183
 Vibrational            103.894             27.584             25.604
 Vibration     1          0.596              1.977              4.752
 Vibration     2          0.598              1.969              4.189
 Vibration     3          0.608              1.936              3.168
 Vibration     4          0.623              1.887              2.502
 Vibration     5          0.641              1.829              2.063
 Vibration     6          0.669              1.743              1.652
 Vibration     7          0.701              1.650              1.349
 Vibration     8          0.725              1.582              1.181
 Vibration     9          0.782              1.429              0.896
 Vibration    10          0.816              1.343              0.772
 Vibration    11          0.946              1.056              0.469

 Optimization completed.
    -- Stationary point found.
 Normal termination of Gaussian 09 at Mon Jan 27 10:52:49 2020.
