 Gaussian 09, Revision D.01,
 Gaussian 09:  ES64L-G09RevD.01 24-Apr-2013

 -----------------------------
 # b3lyp 6-31G(2df,p) opt Freq
 -----------------------------

 -----
 titel
 -----
 Symbolic Z-matrix:
 Charge =  0 Multiplicity = 1

 SCF Done:  E(RB3LYP) =  -423.155745874     A.U. after   13 cycles

 The electronic state is 1-A.
 Alpha  occ. eigenvalues --  -19.14597 -19.12891 -10.24205 -10.23422 -10.22288
 Alpha  occ. eigenvalues --  -10.22261 -10.19991 -10.19816 -10.19236  -1.05319
 Alpha  occ. eigenvalues --   -1.02549  -0.86518  -0.75661  -0.69132  -0.67473
 Alpha  occ. eigenvalues --   -0.61435  -0.58569  -0.54648  -0.52193  -0.48627
 Alpha  occ. eigenvalues --   -0.48194  -0.46928  -0.43749  -0.42540  -0.40270
 Alpha  occ. eigenvalues --   -0.39808  -0.38374  -0.36139  -0.32511  -0.31544
 Alpha  occ. eigenvalues --   -0.29189  -0.28808  -0.25278  -0.24546
 Alpha virt. eigenvalues --    0.07553   0.08525   0.10862   0.11651   0.12000
 Alpha virt. eigenvalues --    0.12789   0.13959   0.15749   0.16258   0.16888
 Alpha virt. eigenvalues --    0.17460   0.18740   0.19224   0.19848   0.21264

 Mulliken charges:
               1
     1  C   -0.301669
     2  C   -0.053255
     3  C   -0.111383
     4  O   -0.299119
     5  C    0.359633
     6  C   -0.130918
     7  O   -0.273663
     8  C   -0.127304
     9  C   -0.106745
    10  H    0.123921
    11  H    0.114223
    12  H    0.093336
    13  H    0.096626
    14  H    0.111075
    15  H    0.095831
    16  H    0.101601
    17  H    0.103186
    18  H    0.107557
    19  H    0.097068
 Sum of Mulliken charges =   0.00000

 Dipole moment (field-independent basis, Debye):
    X=              2.4779    Y=             -0.3660    Z=              0.9346  Tot=              2.6735
 Quadrupole moment (field-independent basis, Debye-Ang):
   XX=            -57.8380   YY=            -51.8645   ZZ=            -51.5009
   XY=             -0.4745   XZ=              1.4367   YZ=              1.4996

 Optimization completed.
    -- Stationary point found.
 Normal termination of Gaussian 09 at Mon Jan 27 11:15:01 2020.

 ----------------------------------------------------------------------
 #N Geom=AllCheck Guess=TCheck SCRF=Check GenChk RB3LYP/6-31G(2df,p) Fr
 eq
 ----------------------------------------------------------------------

 Structure from the checkpoint file:  "/scratch/puck/g09_11c8f922-6674-408d-8209-5aef37c7bfd0/Gau-68668.chk"
 -----
 titel
 -----
 Charge =  0 Multiplicity = 1

                         Standard orientation:
 ---------------------------------------------------------------------
 Center     Atomic      Atomic             Coordinates (Angstroms)
 Number     Number       Type             X           Y           Z
 ---------------------------------------------------------------------
      1          6           0        1.742331   -1.298125   -0.285154
      2          6           0        1.919039   -0.048657    0.536152
      3          6           0        1.562424    1.251755   -0.159118
      4          8           0        0.302116    1.014723   -0.789780
      5          6           0       -0.421255    0.048948   -0.045130
      6          6           0       -1.564345    0.570718    0.867906
      7          8           0       -2.536117   -0.217684    0.153369
      8          6           0       -1.568781   -0.594458   -0.848518
      9          6           0        0.624876   -0.824713    0.611819
     10          1           0        1.619174   -1.195341   -1.359006
     11          1           0        2.285890   -2.182053    0.028372
     12          1           0        2.627250   -0.029884    1.355553
     13          1           0        1.490035    2.070773    0.573325
     14          1           0        2.263975    1.553371   -0.943997
     15          1           0       -1.520852    0.307625    1.931845
     16          1           0       -1.737770    1.649208    0.759215
     17          1           0       -1.520435   -1.679530   -0.993918
     18          1           0       -1.746862   -0.097458   -1.810083
     19          1           0        0.345872   -1.405837    1.482243
 ---------------------------------------------------------------------

 SCF Done:  E(RB3LYP) =  -423.155745874     A.U. after    1 cycles
