 Gaussian 09, Revision D.01,
 Gaussian 09:  ES64L-G09RevD.01 24-Apr-2013

 -----------------------------
 # b3lyp 6-31G(2df,p) opt Freq
 -----------------------------

 -----
 titel
 -----
 Symbolic Z-matrix:
 Charge =  0 Multiplicity = 1

 SCF Done:  E(RB3LYP) =  -423.172384042     A.U. after   13 cycles

 The electronic state is 1-A.
 Alpha  occ. eigenvalues --  -19.14448 -19.13569 -10.23407 -10.23298 -10.23175
 Alpha  occ. eigenvalues --  -10.22967 -10.19223 -10.18984 -10.18327  -1.05822
 Alpha  occ. eigenvalues --   -1.02853  -0.81176  -0.76119  -0.71609  -0.67416
 Alpha  occ. eigenvalues --   -0.63383  -0.56954  -0.53478  -0.52237  -0.48907
 Alpha  occ. eigenvalues --   -0.48070  -0.46139  -0.41926  -0.40746  -0.40286
 Alpha  occ. eigenvalues --   -0.38620  -0.36099  -0.35450  -0.34620  -0.33459
 Alpha  occ. eigenvalues --   -0.32242  -0.29650  -0.24874  -0.24470
 Alpha virt. eigenvalues --    0.08112   0.09450   0.10474   0.12336   0.13404
 Alpha virt. eigenvalues --    0.13895   0.15169   0.15637   0.16429   0.16946
 Alpha virt. eigenvalues --    0.17940   0.19197   0.19551   0.20892   0.21509

 Mulliken charges:
               1
     1  C   -0.238214
     2  C    0.018806
     3  O   -0.296954
     4  C    0.036179
     5  C    0.132979
     6  O   -0.272926
     7  C   -0.063829
     8  C   -0.243299
     9  C   -0.032324
    10  H    0.108652
    11  H    0.099623
    12  H    0.078315
    13  H    0.079104
    14  H    0.102024
    15  H    0.100116
    16  H    0.107836
    17  H    0.104206
    18  H    0.105770
    19  H    0.073936
 Sum of Mulliken charges =   0.00000

 Dipole moment (field-independent basis, Debye):
    X=              1.4098    Y=              1.1890    Z=              0.4097  Tot=              1.8892
 Quadrupole moment (field-independent basis, Debye-Ang):
   XX=            -56.3134   YY=            -54.1647   ZZ=            -50.5460
   XY=              2.6674   XZ=             -1.6248   YZ=             -0.0792

 Optimization completed.
    -- Stationary point found.
 Normal termination of Gaussian 09 at Mon Jan 27 11:25:11 2020.

 ----------------------------------------------------------------------
 #N Geom=AllCheck Guess=TCheck SCRF=Check GenChk RB3LYP/6-31G(2df,p) Fr
 eq
 ----------------------------------------------------------------------

 Structure from the checkpoint file:  "/scratch/puck/g09_b54aa4e3-e5a8-4128-9316-0932e8abb02d/Gau-22659.chk"
 -----
 titel
 -----
 Charge =  0 Multiplicity = 1

                         Standard orientation:
 ---------------------------------------------------------------------
 Center     Atomic      Atomic             Coordinates (Angstroms)
 Number     Number       Type             X           Y           Z
 ---------------------------------------------------------------------
      1          6           0       -0.599998    0.940206    1.100141
      2          6           0       -1.252700   -0.418818    0.786626
      3          8           0       -2.019856   -0.077949   -0.411048
      4          6           0       -0.720552    0.037804   -1.049355
      5          6           0       -0.261490   -1.154502   -0.183413
      6          8           0        1.089282   -1.403637    0.058074
      7          6           0        1.926458   -0.279026    0.324084
      8          6           0        1.506766    0.994201   -0.418538
      9          6           0       -0.012657    1.211643   -0.323904
     10          1           0       -1.372286    1.664038    1.368284
     11          1           0        0.142510    0.914466    1.899984
     12          1           0       -1.830797   -0.927930    1.557218
     13          1           0       -0.744822    0.028602   -2.139025
     14          1           0       -0.704906   -2.091023   -0.522029
     15          1           0        1.953925   -0.092298    1.406330
     16          1           0        2.934622   -0.584485    0.028091
     17          1           0        2.056702    1.841711    0.005710
     18          1           0        1.795941    0.923409   -1.474793
     19          1           0       -0.301270    2.187149   -0.719832
 ---------------------------------------------------------------------

 SCF Done:  E(RB3LYP) =  -423.172384042     A.U. after    1 cycles
