 Gaussian 09, Revision D.01,
 Gaussian 09:  ES64L-G09RevD.01 24-Apr-2013

 -----------------------------
 # b3lyp 6-31G(2df,p) opt Freq
 -----------------------------

 -----
 titel
 -----
 Symbolic Z-matrix:
 Charge =  0 Multiplicity = 1

 SCF Done:  E(RB3LYP) =  -423.215669465     A.U. after   14 cycles
 Optimization completed.
    -- Stationary point found.
 Normal termination of Gaussian 09 at Mon Jan 27 10:17:55 2020.

 ----------------------------------------------------------------------
 #N Geom=AllCheck Guess=TCheck SCRF=Check GenChk RB3LYP/6-31G(2df,p) Fr
 eq
 ----------------------------------------------------------------------

 Structure from the checkpoint file:  "/scratch/puck/g09_28e99229-3293-42c0-92d5-dfb2700af4de/Gau-35695.chk"
 -----
 titel
 -----
 Charge =  0 Multiplicity = 1

                         Standard orientation:
 ---------------------------------------------------------------------
 Center     Atomic      Atomic             Coordinates (Angstroms)
 Number     Number       Type             X           Y           Z
 ---------------------------------------------------------------------
      1          6           0       -3.169620   -0.937677    0.635306
      2          6           0       -2.631810    0.126855   -0.335362
      3          6           0       -1.144849    0.309397   -0.252157
      4          6           0       -0.470885    1.408727    0.179140
      5          8           0        0.876348    1.214267    0.121046
      6          6           0        1.076186   -0.052079   -0.354615
      7          6           0        2.496844   -0.482953   -0.471917
      8          8           0        3.145325   -0.634754    0.786924
      9          6           0       -0.122542   -0.645089   -0.595130
     10          1           0       -2.948031   -0.667578    1.672303
     11          1           0       -4.253923   -1.046360    0.533517
     12          1           0       -2.714162   -1.914287    0.443321
     13          1           0       -2.909812   -0.150202   -1.360418
     14          1           0       -3.123207    1.085700   -0.134965
     15          1           0       -0.791243    2.373063    0.539430
     16          1           0        2.530133   -1.461942   -0.956944
     17          1           0        3.049448    0.224555   -1.110279
     18          1           0        3.055763    0.203402    1.252697
     19          1           0       -0.268283   -1.645552   -0.974002
 ---------------------------------------------------------------------

 SCF Done:  E(RB3LYP) =  -423.215669465     A.U. after    1 cycles

 The electronic state is 1-A.
 Alpha  occ. eigenvalues --  -19.20007 -19.13362 -10.23584 -10.22726 -10.22287
 Alpha  occ. eigenvalues --  -10.19092 -10.18423 -10.17728 -10.17706  -1.10285
 Alpha  occ. eigenvalues --   -1.01391  -0.81386  -0.76998  -0.74126  -0.67409
 Alpha  occ. eigenvalues --   -0.63449  -0.57833  -0.54773  -0.52011  -0.48730
 Alpha  occ. eigenvalues --   -0.45544  -0.44566  -0.44011  -0.42208  -0.41603
 Alpha  occ. eigenvalues --   -0.39406  -0.37984  -0.36791  -0.35008  -0.34050
 Alpha  occ. eigenvalues --   -0.33625  -0.27102  -0.26525  -0.21890
 Alpha virt. eigenvalues --    0.01310   0.06519   0.09477   0.10526   0.11947
 Alpha virt. eigenvalues --    0.13240   0.14025   0.15207   0.15424   0.16891
 Alpha virt. eigenvalues --    0.17364   0.19153   0.20784   0.21813   0.22629

 Mulliken charges:
               1
     1  C   -0.365808
     2  C   -0.300835
     3  C    0.275576
     4  C   -0.124574
     5  O   -0.194490
     6  C    0.363321
     7  C   -0.172320
     8  O   -0.412622
     9  C   -0.388735
    10  H    0.121664
    11  H    0.112169
    12  H    0.120466
    13  H    0.108746
    14  H    0.102611
    15  H    0.130545
    16  H    0.123817
    17  H    0.102089
    18  H    0.288519
    19  H    0.109863
 Sum of Mulliken charges =   0.00000

 Dipole moment (field-independent basis, Debye):
    X=             -1.4412    Y=              0.7673    Z=             -0.5432  Tot=              1.7207
 Quadrupole moment (field-independent basis, Debye-Ang):
   XX=            -54.4366   YY=            -51.6337   ZZ=            -53.2491
   XY=              2.5307   XZ=             -1.6661   YZ=              3.9084

  Exact polarizability: 104.621  -0.358  75.980  -0.352   7.345  58.130
 Approx polarizability: 138.797   2.085 124.062   3.874  16.575  88.952

                      1                      2                      3
                      A                      A                      A
 Frequencies --     51.7644                61.3993               108.9406
 Red. masses --      3.2186                 2.7415                 3.7795
 Frc consts  --      0.0051                 0.0061                 0.0264
 IR Inten    --      1.3360                 0.1018                 0.4561

                      4                      5                      6
                      A                      A                      A
 Frequencies --    166.7116               202.4395               270.0052
 Red. masses --      2.7427                 1.4125                 1.6791
 Frc consts  --      0.0449                 0.0341                 0.0721
 IR Inten    --      0.5651                 0.3847                27.9751

                      7                      8                      9
                      A                      A                      A
 Frequencies --    301.1199               350.0259               403.8984
 Red. masses --      1.7699                 1.7755                 2.6425
 Frc consts  --      0.0946                 0.1282                 0.2540
 IR Inten    --     23.2377                88.5884                 1.3237

                     10                     11                     12
                      A                      A                      A
 Frequencies --    455.8001               587.1584               646.3863
 Red. masses --      5.3481                 3.9337                 3.0352
 Frc consts  --      0.6546                 0.7990                 0.7472
 IR Inten    --      3.9013                 1.3480                11.1494

                     13                     14                     15
                      A                      A                      A
 Frequencies --    700.1337               745.6270               767.3027
 Red. masses --      3.0591                 1.5763                 3.1448
 Frc consts  --      0.8835                 0.5163                 1.0909
 IR Inten    --      3.7072                 3.7192                21.1645

                     16                     17                     18
                      A                      A                      A
 Frequencies --    789.8337               829.2004               926.5413
 Red. masses --      1.1917                 1.4321                 2.6055
 Frc consts  --      0.4380                 0.5801                 1.3179
 IR Inten    --      1.3975                20.1252                55.3629

                     19                     20                     21
                      A                      A                      A
 Frequencies --    953.9905               991.7085              1008.5623
 Red. masses --      2.7865                 2.0112                 3.0784
 Frc consts  --      1.4942                 1.1654                 1.8449
 IR Inten    --      5.5715                 3.5135                 1.8035

                     22                     23                     24
                      A                      A                      A
 Frequencies --   1039.7233              1066.5987              1091.3277
 Red. masses --      5.9191                 1.7450                 1.6652
 Frc consts  --      3.7700                 1.1696                 1.1685
 IR Inten    --     99.7125                 1.0287                 0.9975

                     25                     26                     27
                      A                      A                      A
 Frequencies --   1156.6186              1166.9199              1192.9397
 Red. masses --      2.5945                 1.7807                 1.7800
 Frc consts  --      2.0450                 1.4286                 1.4925
 IR Inten    --      4.7785                32.0348                20.3060

                     28                     29                     30
                      A                      A                      A
 Frequencies --   1249.1770              1288.0382              1300.5191
 Red. masses --      1.3393                 1.3826                 2.1037
 Frc consts  --      1.2314                 1.3514                 2.0964
 IR Inten    --      6.4067                 5.6675                17.7671

                     31                     32                     33
                      A                      A                      A
 Frequencies --   1360.8972              1371.0781              1406.3965
 Red. masses --      1.5873                 1.2540                 1.6333
 Frc consts  --      1.7320                 1.3890                 1.9034
 IR Inten    --      5.1311                 4.1091                 0.9823

                     34                     35                     36
                      A                      A                      A
 Frequencies --   1413.2020              1420.4247              1484.0738
 Red. masses --      1.8427                 1.2670                 1.0648
 Frc consts  --      2.1683                 1.5062                 1.3818
 IR Inten    --      5.5345                79.2168                 1.3187

                     37                     38                     39
                      A                      A                      A
 Frequencies --   1490.3934              1496.3891              1506.1157
 Red. masses --      1.0957                 1.0403                 1.0760
 Frc consts  --      1.4340                 1.3724                 1.4380
 IR Inten    --      1.3359                 5.4972                 2.3322

                     40                     41                     42
                      A                      A                      A
 Frequencies --   1581.5851              1660.2767              2979.4237
 Red. masses --      6.0159                 6.6864                 1.0712
 Frc consts  --      8.8662                10.8594                 5.6024
 IR Inten    --      5.7603                 0.6844                58.9960

                     43                     44                     45
                      A                      A                      A
 Frequencies --   3022.2902              3036.7295              3061.1861
 Red. masses --      1.0627                 1.0345                 1.0986
 Frc consts  --      5.7194                 5.6209                 6.0657
 IR Inten    --     30.6582                27.1634                12.0485

                     46                     47                     48
                      A                      A                      A
 Frequencies --   3100.7775              3107.6435              3111.9161
 Red. masses --      1.0911                 1.1017                 1.1026
 Frc consts  --      6.1807                 6.2685                 6.2909
 IR Inten    --     16.1252                39.9502                31.9556

                     49                     50                     51
                      A                      A                      A
 Frequencies --   3247.3045              3268.8253              3816.0196
 Red. masses --      1.0966                 1.0977                 1.0662
 Frc consts  --      6.8128                 6.9108                 9.1476
 IR Inten    --      2.0735                 0.6119                22.0123

 - Thermochemistry -
 -------------------
 Temperature   298.150 Kelvin.  Pressure   1.00000 Atm.
 Atom     1 has atomic number  6 and mass  12.00000

 Molecular mass:   126.06808 amu.
 Principal axes and moments of inertia in atomic units:
                           1         2         3
     Eigenvalues --   451.982852127.446672322.54241
           X            0.99987   0.01104  -0.01134
           Y           -0.01067   0.99943   0.03204
           Z            0.01168  -0.03192   0.99942
 This molecule is an asymmetric top.
 Rotational symmetry number  1.
 Warning -- assumption of classical behavior for rotation
           may cause significant error
 Rotational temperatures (Kelvin)      0.19163     0.04071     0.03729
 Rotational constants (GHZ):           3.99294     0.84831     0.77705
 Zero-point vibrational energy     417576.6 (Joules/Mol)
                                   99.80321 (Kcal/Mol)
 Warning -- explicit consideration of  11 degrees of freedom as
           vibrations may cause significant error
 Vibrational temperatures:     74.48    88.34   156.74   239.86   291.26
          (Kelvin)            388.48   433.24   503.61   581.12   655.79
                              844.79   930.00  1007.33  1072.79  1103.98
                             1136.39  1193.03  1333.08  1372.58  1426.85
                             1451.09  1495.93  1534.60  1570.18  1664.11
                             1678.94  1716.37  1797.28  1853.20  1871.15
                             1958.03  1972.67  2023.49  2033.28  2043.67
                             2135.25  2144.34  2152.97  2166.96  2275.55
                             2388.76  4286.72  4348.40  4369.17  4404.36
                             4461.32  4471.20  4477.35  4672.14  4703.10
                             5490.39

 Zero-point correction=                           0.159047 (Hartree/Particle)
 Thermal correction to Energy=                    0.168376
 Thermal correction to Enthalpy=                  0.169320
 Thermal correction to Gibbs Free Energy=         0.123895
 Sum of electronic and zero-point Energies=           -423.056623
 Sum of electronic and thermal Energies=              -423.047294
 Sum of electronic and thermal Enthalpies=            -423.046350
 Sum of electronic and thermal Free Energies=         -423.091774

                     E (Thermal)             CV                S
                      KCal/Mol        Cal/Mol-Kelvin    Cal/Mol-Kelvin
 Total                  105.657             33.581             95.604
 Electronic               0.000              0.000              0.000
 Translational            0.889              2.981             40.409
 Rotational               0.889              2.981             29.192
 Vibrational            103.880             27.620             26.003
 Vibration     1          0.596              1.977              4.749
 Vibration     2          0.597              1.973              4.412
 Vibration     3          0.606              1.942              3.288
 Vibration     4          0.624              1.883              2.472
 Vibration     5          0.639              1.836              2.111
 Vibration     6          0.674              1.728              1.596
 Vibration     7          0.693              1.672              1.411
 Vibration     8          0.727              1.575              1.166
 Vibration     9          0.769              1.462              0.948
 Vibration    10          0.814              1.348              0.778
 Vibration    11          0.944              1.059              0.472

 Normal termination of Gaussian 09 at Mon Jan 27 10:52:43 2020.
