 Gaussian 09, Revision D.01,
 Gaussian 09:  ES64L-G09RevD.01 24-Apr-2013

 -----------------------------
 # b3lyp 6-31G(2df,p) opt Freq
 -----------------------------

 -----
 titel
 -----
 Symbolic Z-matrix:
 Charge =  0 Multiplicity = 1

 SCF Done:  E(RB3LYP) =  -423.180027265     A.U. after   14 cycles

 The electronic state is 1-A.
 Alpha  occ. eigenvalues --  -19.16178 -19.12824 -10.27200 -10.25765 -10.24340
 Alpha  occ. eigenvalues --  -10.19795 -10.19491 -10.19165 -10.18693  -1.08944
 Alpha  occ. eigenvalues --   -1.03764  -0.80928  -0.75646  -0.75024  -0.67661
 Alpha  occ. eigenvalues --   -0.62310  -0.58505  -0.51623  -0.48929  -0.47425
 Alpha  occ. eigenvalues --   -0.46259  -0.44932  -0.43159  -0.42400  -0.41623
 Alpha  occ. eigenvalues --   -0.40221  -0.39397  -0.36890  -0.35330  -0.35194
 Alpha  occ. eigenvalues --   -0.33566  -0.30323  -0.25776  -0.24715
 Alpha virt. eigenvalues --   -0.02599   0.07916   0.10275   0.10463   0.11830
 Alpha virt. eigenvalues --    0.12442   0.13890   0.14616   0.14768   0.16895
 Alpha virt. eigenvalues --    0.17242   0.18058   0.19664   0.21761   0.22221

 Mulliken charges:
               1
     1  C   -0.492088
     2  C    0.276115
     3  O   -0.307696
     4  C    0.263338
     5  C   -0.291472
     6  C   -0.278518
     7  C    0.328501
     8  C   -0.499042
     9  O   -0.311905
    10  H    0.138855
    11  H    0.141527
    12  H    0.154636
    13  H    0.132121
    14  H    0.112672
    15  H    0.111093
    16  H    0.112722
    17  H    0.133908
    18  H    0.138139
    19  H    0.137094
 Sum of Mulliken charges =   0.00000

 Dipole moment (field-independent basis, Debye):
    X=             -1.8917    Y=              1.6143    Z=             -0.4029  Tot=              2.5193
 Quadrupole moment (field-independent basis, Debye-Ang):
   XX=            -53.8208   YY=            -52.4599   ZZ=            -55.0259
   XY=              4.1587   XZ=              4.4624   YZ=             -2.8757

 Optimization completed.
    -- Stationary point found.
 Normal termination of Gaussian 09 at Mon Jan 27 11:18:34 2020.

 ----------------------------------------------------------------------
 #N Geom=AllCheck Guess=TCheck SCRF=Check GenChk RB3LYP/6-31G(2df,p) Fr
 eq
 ----------------------------------------------------------------------

 Structure from the checkpoint file:  "/scratch/puck/g09_6abacb61-713a-49c3-8ba2-3892973bb506/Gau-70164.chk"
 -----
 titel
 -----
 Charge =  0 Multiplicity = 1

                         Standard orientation:
 ---------------------------------------------------------------------
 Center     Atomic      Atomic             Coordinates (Angstroms)
 Number     Number       Type             X           Y           Z
 ---------------------------------------------------------------------
      1          6           0        2.196258    1.062144    0.320305
      2          6           0        1.509634   -0.209560   -0.130422
      3          8           0        2.080046   -1.080407   -0.753995
      4          6           0        0.076760   -0.388495    0.226090
      5          6           0       -0.743053   -1.679309    0.140201
      6          6           0       -2.016000   -0.811848   -0.136109
      7          6           0       -1.137749    0.449786   -0.050710
      8          6           0       -1.353140    1.756929   -0.741768
      9          8           0       -0.525880    0.442992    1.236441
     10          1           0        3.236741    1.042766   -0.005757
     11          1           0        1.695796    1.943356   -0.094490
     12          1           0        2.138320    1.156595    1.408927
     13          1           0       -0.448303   -2.294566   -0.710230
     14          1           0       -0.743519   -2.281040    1.051292
     15          1           0       -2.433924   -0.977785   -1.131660
     16          1           0       -2.815332   -0.854709    0.607463
     17          1           0       -1.518192    1.606313   -1.812924
     18          1           0       -2.240302    2.254330   -0.332455
     19          1           0       -0.500882    2.426174   -0.605261
 ---------------------------------------------------------------------

 SCF Done:  E(RB3LYP) =  -423.180027265     A.U. after    1 cycles
