 Gaussian 09, Revision D.01,
 Gaussian 09:  ES64L-G09RevD.01 24-Apr-2013

 -----------------------------
 # b3lyp 6-31G(2df,p) opt Freq
 -----------------------------

 -----
 titel
 -----
 Symbolic Z-matrix:
 Charge =  0 Multiplicity = 1

 SCF Done:  E(RB3LYP) =  -423.144246280     A.U. after   13 cycles

 The electronic state is 1-A.
 Alpha  occ. eigenvalues --  -19.14635 -19.13221 -10.23912 -10.23366 -10.23119
 Alpha  occ. eigenvalues --  -10.23006 -10.20650 -10.19655 -10.19126  -1.05017
 Alpha  occ. eigenvalues --   -1.03714  -0.85375  -0.77682  -0.69446  -0.67275
 Alpha  occ. eigenvalues --   -0.61443  -0.58576  -0.55242  -0.52469  -0.49118
 Alpha  occ. eigenvalues --   -0.48143  -0.46843  -0.43729  -0.42492  -0.40466
 Alpha  occ. eigenvalues --   -0.40127  -0.38888  -0.35854  -0.34448  -0.32327
 Alpha  occ. eigenvalues --   -0.29903  -0.28182  -0.25018  -0.23643
 Alpha virt. eigenvalues --    0.06849   0.08381   0.08866   0.11166   0.11654
 Alpha virt. eigenvalues --    0.12429   0.14330   0.15016   0.15819   0.16279
 Alpha virt. eigenvalues --    0.17445   0.18633   0.19804   0.20318   0.22745

 Mulliken charges:
               1
     1  C   -0.346318
     2  C    0.121012
     3  O   -0.254915
     4  C   -0.171855
     5  C    0.279652
     6  C   -0.125095
     7  O   -0.271587
     8  C   -0.124534
     9  C   -0.158310
    10  H    0.119790
    11  H    0.117873
    12  H    0.105313
    13  H    0.117076
    14  H    0.097827
    15  H    0.096754
    16  H    0.103096
    17  H    0.101281
    18  H    0.098697
    19  H    0.094242
 Sum of Mulliken charges =   0.00000

 Dipole moment (field-independent basis, Debye):
    X=             -1.0156    Y=             -0.9612    Z=              0.0053  Tot=              1.3984
 Quadrupole moment (field-independent basis, Debye-Ang):
   XX=            -61.7394   YY=            -53.0660   ZZ=            -49.7824
   XY=              4.3064   XZ=              1.5700   YZ=              0.4264

 Optimization completed.
    -- Stationary point found.
 Normal termination of Gaussian 09 at Mon Jan 27 11:15:04 2020.

 ----------------------------------------------------------------------
 #N Geom=AllCheck Guess=TCheck SCRF=Check GenChk RB3LYP/6-31G(2df,p) Fr
 eq
 ----------------------------------------------------------------------

 Structure from the checkpoint file:  "/scratch/puck/g09_d4af9204-7a41-4cd9-9605-8c105f24d73c/Gau-68808.chk"
 -----
 titel
 -----
 Charge =  0 Multiplicity = 1

                         Standard orientation:
 ---------------------------------------------------------------------
 Center     Atomic      Atomic             Coordinates (Angstroms)
 Number     Number       Type             X           Y           Z
 ---------------------------------------------------------------------
      1          6           0       -1.819036   -1.226844    0.353073
      2          6           0       -1.897936   -0.005612   -0.522416
      3          8           0       -1.609481    1.248245    0.040407
      4          6           0       -0.358514    1.143602    0.713430
      5          6           0        0.437649    0.013347    0.027453
      6          6           0        1.589970   -0.615562    0.845526
      7          8           0        2.578831   -0.154493   -0.095170
      8          6           0        1.572698    0.427819   -0.944709
      9          6           0       -0.656719   -0.853010   -0.558651
     10          1           0       -1.717687   -1.107595    1.426454
     11          1           0       -2.411211   -2.085390    0.055383
     12          1           0       -2.618235    0.064903   -1.328241
     13          1           0        0.137031    2.117411    0.662898
     14          1           0       -0.511147    0.900595    1.776094
     15          1           0        1.746830   -0.192455    1.847412
     16          1           0        1.567034   -1.710034    0.921939
     17          1           0        1.716575    1.507826   -1.077790
     18          1           0        1.540964   -0.050438   -1.932673
     19          1           0       -0.413629   -1.497274   -1.395614
 ---------------------------------------------------------------------

 SCF Done:  E(RB3LYP) =  -423.144246280     A.U. after    1 cycles
