 Gaussian 09, Revision D.01,
 Gaussian 09:  ES64L-G09RevD.01 24-Apr-2013

 -----------------------------
 # b3lyp 6-31G(2df,p) opt Freq
 -----------------------------

 -----
 titel
 -----
 Symbolic Z-matrix:
 Charge =  0 Multiplicity = 1

 SCF Done:  E(RB3LYP) =  -423.177654841     A.U. after   13 cycles

 The electronic state is 1-A.
 Alpha  occ. eigenvalues --  -19.14234 -19.13241 -10.23714 -10.23573 -10.23463
 Alpha  occ. eigenvalues --  -10.22248 -10.19089 -10.18625 -10.18467  -1.04814
 Alpha  occ. eigenvalues --   -1.01869  -0.85302  -0.77928  -0.72989  -0.64271
 Alpha  occ. eigenvalues --   -0.62171  -0.57586  -0.54919  -0.52804  -0.48808
 Alpha  occ. eigenvalues --   -0.47375  -0.46492  -0.43874  -0.41095  -0.39990
 Alpha  occ. eigenvalues --   -0.39314  -0.37067  -0.36583  -0.34491  -0.33044
 Alpha  occ. eigenvalues --   -0.30334  -0.27399  -0.24872  -0.24070
 Alpha virt. eigenvalues --    0.08535   0.09808   0.10094   0.11777   0.12695
 Alpha virt. eigenvalues --    0.14877   0.15152   0.16059   0.16418   0.16924
 Alpha virt. eigenvalues --    0.18113   0.19064   0.19759   0.21161   0.23052

 Mulliken charges:
               1
     1  C   -0.337291
     2  C    0.107710
     3  O   -0.276205
     4  C    0.084437
     5  C   -0.091030
     6  O   -0.273470
     7  C    0.075095
     8  C   -0.258206
     9  C   -0.052879
    10  H    0.120284
    11  H    0.112436
    12  H    0.097129
    13  H    0.084921
    14  H    0.107644
    15  H    0.103689
    16  H    0.079469
    17  H    0.110270
    18  H    0.108970
    19  H    0.097026
 Sum of Mulliken charges =   0.00000

 Dipole moment (field-independent basis, Debye):
    X=             -0.2862    Y=             -0.1915    Z=              0.6909  Tot=              0.7720
 Quadrupole moment (field-independent basis, Debye-Ang):
   XX=            -51.6966   YY=            -56.3530   ZZ=            -51.0608
   XY=              4.5688   XZ=              2.4745   YZ=             -1.2024

 Optimization completed.
    -- Stationary point found.
 Normal termination of Gaussian 09 at Mon Jan 27 11:16:33 2020.

 ----------------------------------------------------------------------
 #N Geom=AllCheck Guess=TCheck SCRF=Check GenChk RB3LYP/6-31G(2df,p) Fr
 eq
 ----------------------------------------------------------------------

 Structure from the checkpoint file:  "/scratch/puck/g09_0f846105-30ae-4019-a5d0-e8913f5d418d/Gau-69971.chk"
 -----
 titel
 -----
 Charge =  0 Multiplicity = 1

                         Standard orientation:
 ---------------------------------------------------------------------
 Center     Atomic      Atomic             Coordinates (Angstroms)
 Number     Number       Type             X           Y           Z
 ---------------------------------------------------------------------
      1          6           0       -2.189920   -0.292579    0.249979
      2          6           0       -1.292703    0.541763   -0.631447
      3          8           0       -0.459500    1.525248   -0.064178
      4          6           0        0.804119    1.054402    0.401187
      5          6           0        1.646610    0.378702   -0.703391
      6          8           0        1.404554   -1.032032   -0.595309
      7          6           0        0.318234   -1.197441    0.328970
      8          6           0        0.610368   -0.116458    1.375914
      9          6           0       -0.978394   -0.915368   -0.414318
     10          1           0       -2.163670   -0.101997    1.316208
     11          1           0       -3.168648   -0.564608   -0.131227
     12          1           0       -1.681143    0.860525   -1.594387
     13          1           0        1.295268    1.929994    0.828368
     14          1           0        1.360322    0.751898   -1.693588
     15          1           0        2.718130    0.559128   -0.557358
     16          1           0        0.366122   -2.222454    0.703611
     17          1           0       -0.177418    0.070936    2.105580
     18          1           0        1.538231   -0.356742    1.902605
     19          1           0       -1.157514   -1.590540   -1.245277
 ---------------------------------------------------------------------

 SCF Done:  E(RB3LYP) =  -423.177654841     A.U. after    1 cycles
