 Gaussian 09, Revision D.01,
 Gaussian 09:  ES64L-G09RevD.01 24-Apr-2013

 -----------------------------
 # b3lyp 6-31G(2df,p) opt Freq
 -----------------------------

 -----
 titel
 -----
 Symbolic Z-matrix:
 Charge =  0 Multiplicity = 1

 SCF Done:  E(RB3LYP) =  -423.191037662     A.U. after   13 cycles

 The electronic state is 1-A.
 Alpha  occ. eigenvalues --  -19.13858 -19.13858 -10.27133 -10.23512 -10.23512
 Alpha  occ. eigenvalues --  -10.19065 -10.18627 -10.17848 -10.17616  -1.07403
 Alpha  occ. eigenvalues --   -0.99335  -0.84137  -0.78792  -0.68712  -0.64684
 Alpha  occ. eigenvalues --   -0.64069  -0.60525  -0.53390  -0.49027  -0.48449
 Alpha  occ. eigenvalues --   -0.48045  -0.43995  -0.43908  -0.40152  -0.38807
 Alpha  occ. eigenvalues --   -0.38731  -0.37235  -0.36203  -0.36058  -0.34008
 Alpha  occ. eigenvalues --   -0.32164  -0.27854  -0.24822  -0.23779
 Alpha virt. eigenvalues --    0.08185   0.11070   0.11178   0.12529   0.13758
 Alpha virt. eigenvalues --    0.13799   0.15170   0.15795   0.16522   0.17077
 Alpha virt. eigenvalues --    0.18352   0.19926   0.20583   0.21271   0.21981

 Mulliken charges:
               1
     1  C   -0.239970
     2  C    0.098979
     3  O   -0.288369
     4  C    0.196631
     5  C   -0.220083
     6  C   -0.242772
     7  C   -0.049064
     8  C    0.098979
     9  O   -0.288368
    10  H    0.095599
    11  H    0.106138
    12  H    0.074284
    13  H    0.086072
    14  H    0.105239
    15  H    0.105240
    16  H    0.105449
    17  H    0.105449
    18  H    0.076283
    19  H    0.074284
 Sum of Mulliken charges =   0.00000

 Dipole moment (field-independent basis, Debye):
    X=              0.1692    Y=              1.8366    Z=              0.0000  Tot=              1.8444
 Quadrupole moment (field-independent basis, Debye-Ang):
   XX=            -50.4118   YY=            -52.5696   ZZ=            -55.4701
   XY=             -1.9335   XZ=              0.0000   YZ=              0.0000

 Optimization completed.
    -- Stationary point found.
 Normal termination of Gaussian 09 at Mon Jan 27 11:19:30 2020.

 ----------------------------------------------------------------------
 #N Geom=AllCheck Guess=TCheck SCRF=Check GenChk RB3LYP/6-31G(2df,p) Fr
 eq
 ----------------------------------------------------------------------

 Structure from the checkpoint file:  "/scratch/puck/g09_c3e3e8ce-8357-4fa0-b8e5-41c5e2954f89/Gau-164861.chk"
 -----
 titel
 -----
 Charge =  0 Multiplicity = 1

                         Standard orientation:
 ---------------------------------------------------------------------
 Center     Atomic      Atomic             Coordinates (Angstroms)
 Number     Number       Type             X           Y           Z
 ---------------------------------------------------------------------
      1          6           0       -1.986335    0.017648    0.000000
      2          6           0       -0.867955    0.274608   -1.042496
      3          8           0       -0.083477   -0.917031   -1.173963
      4          6           0        0.693007   -1.122585    0.000009
      5          6           0        1.886052   -0.168534   -0.000004
      6          6           0        1.335691    1.281187   -0.000005
      7          6           0       -0.186526    1.215102   -0.000010
      8          6           0       -0.867955    0.274627    1.042491
      9          8           0       -0.083474   -0.917009    1.173977
     10          1           0       -2.747995    0.802050   -0.000005
     11          1           0       -2.441439   -0.973916    0.000008
     12          1           0       -1.104154    0.627055   -2.048367
     13          1           0        0.993306   -2.172581    0.000018
     14          1           0        2.497716   -0.370502    0.883755
     15          1           0        2.497699   -0.370509   -0.883773
     16          1           0        1.683849    1.835800    0.877334
     17          1           0        1.683860    1.835803   -0.877340
     18          1           0       -0.658958    2.199711   -0.000020
     19          1           0       -1.104152    0.627088    2.048358
 ---------------------------------------------------------------------

 SCF Done:  E(RB3LYP) =  -423.191037662     A.U. after    1 cycles
