 Gaussian 09, Revision D.01,
 Gaussian 09:  ES64L-G09RevD.01 24-Apr-2013

 -----------------------------
 # b3lyp 6-31G(2df,p) opt Freq
 -----------------------------

 -----
 titel
 -----
 Symbolic Z-matrix:
 Charge =  0 Multiplicity = 1

 SCF Done:  E(RB3LYP) =  -423.147104145     A.U. after   13 cycles

 The electronic state is 1-A.
 Alpha  occ. eigenvalues --  -19.15351 -19.14069 -10.23736 -10.23536 -10.23442
 Alpha  occ. eigenvalues --  -10.23149 -10.19482 -10.19094 -10.18742  -1.08013
 Alpha  occ. eigenvalues --   -1.03167  -0.82022  -0.75883  -0.72320  -0.64868
 Alpha  occ. eigenvalues --   -0.62591  -0.59701  -0.52127  -0.51426  -0.49865
 Alpha  occ. eigenvalues --   -0.48181  -0.45182  -0.44274  -0.41944  -0.40151
 Alpha  occ. eigenvalues --   -0.39540  -0.37912  -0.35880  -0.34597  -0.32168
 Alpha  occ. eigenvalues --   -0.31524  -0.27797  -0.26554  -0.24016
 Alpha virt. eigenvalues --    0.07735   0.08598   0.10370   0.11111   0.12071
 Alpha virt. eigenvalues --    0.12332   0.13888   0.14599   0.15951   0.16362
 Alpha virt. eigenvalues --    0.17670   0.17875   0.18998   0.20259   0.21841

 Mulliken charges:
               1
     1  C   -0.266144
     2  C   -0.048254
     3  O   -0.309182
     4  C    0.411081
     5  C   -0.182107
     6  O   -0.257413
     7  C   -0.079666
     8  C   -0.227958
     9  C   -0.069348
    10  H    0.111403
    11  H    0.104337
    12  H    0.102192
    13  H    0.099859
    14  H    0.120357
    15  H    0.090811
    16  H    0.110622
    17  H    0.097188
    18  H    0.112057
    19  H    0.080166
 Sum of Mulliken charges =   0.00000

 Dipole moment (field-independent basis, Debye):
    X=              0.2480    Y=              1.6045    Z=              1.1828  Tot=              2.0087
 Quadrupole moment (field-independent basis, Debye-Ang):
   XX=            -58.2089   YY=            -52.5799   ZZ=            -51.2369
   XY=             -0.0243   XZ=             -1.6947   YZ=             -0.6501

 Optimization completed.
    -- Stationary point found.
 Normal termination of Gaussian 09 at Mon Jan 27 11:23:56 2020.

 ----------------------------------------------------------------------
 #N Geom=AllCheck Guess=TCheck SCRF=Check GenChk RB3LYP/6-31G(2df,p) Fr
 eq
 ----------------------------------------------------------------------

 Structure from the checkpoint file:  "/scratch/puck/g09_3d3b74bc-bf33-4df8-8eb1-7d8893ef1dba/Gau-22769.chk"
 -----
 titel
 -----
 Charge =  0 Multiplicity = 1

                         Standard orientation:
 ---------------------------------------------------------------------
 Center     Atomic      Atomic             Coordinates (Angstroms)
 Number     Number       Type             X           Y           Z
 ---------------------------------------------------------------------
      1          6           0       -1.520462    1.254035    0.299607
      2          6           0       -1.567669   -0.212480    0.747696
      3          8           0       -1.818783   -1.035754   -0.407825
      4          6           0       -0.490598   -0.582897   -0.185236
      5          6           0        0.663488   -1.535389   -0.083932
      6          8           0        1.896383   -0.825584   -0.027244
      7          6           0        1.807753    0.468122    0.557338
      8          6           0        1.038844    1.427585   -0.363322
      9          6           0       -0.362383    0.872154   -0.689863
     10          1           0       -2.440633    1.645401   -0.141101
     11          1           0       -1.183381    1.924743    1.095427
     12          1           0       -1.846207   -0.631853    1.708439
     13          1           0        0.541845   -2.187666    0.795716
     14          1           0        0.715046   -2.178830   -0.970282
     15          1           0        1.349921    0.417602    1.558464
     16          1           0        2.840419    0.804131    0.685952
     17          1           0        0.982025    2.425527    0.087497
     18          1           0        1.617787    1.524147   -1.287597
     19          1           0       -0.611460    1.000719   -1.745685
 ---------------------------------------------------------------------

 SCF Done:  E(RB3LYP) =  -423.147104145     A.U. after    1 cycles
