 Gaussian 09, Revision D.01,
 Gaussian 09:  ES64L-G09RevD.01 24-Apr-2013

 -----------------------------
 # b3lyp 6-31G(2df,p) opt Freq
 -----------------------------

 -----
 titel
 -----
 Symbolic Z-matrix:
 Charge =  0 Multiplicity = 1

 SCF Done:  E(RB3LYP) =  -423.177780652     A.U. after   13 cycles

 The electronic state is 1-A.
 Alpha  occ. eigenvalues --  -19.13762 -19.13387 -10.22855 -10.22825 -10.22543
 Alpha  occ. eigenvalues --  -10.22400 -10.19626 -10.19330 -10.18588  -1.04836
 Alpha  occ. eigenvalues --   -1.01893  -0.83812  -0.78609  -0.68876  -0.65859
 Alpha  occ. eigenvalues --   -0.62508  -0.58952  -0.54028  -0.52086  -0.48250
 Alpha  occ. eigenvalues --   -0.46955  -0.44980  -0.42302  -0.42137  -0.39944
 Alpha  occ. eigenvalues --   -0.39211  -0.38763  -0.36998  -0.33149  -0.32937
 Alpha  occ. eigenvalues --   -0.29702  -0.28476  -0.25668  -0.23033
 Alpha virt. eigenvalues --    0.08092   0.09390   0.11028   0.11825   0.13188
 Alpha virt. eigenvalues --    0.13899   0.15005   0.16199   0.16874   0.17268
 Alpha virt. eigenvalues --    0.18107   0.18544   0.19419   0.20988   0.22134

 Mulliken charges:
               1
     1  C   -0.283355
     2  C    0.072173
     3  O   -0.263388
     4  C   -0.077793
     5  C   -0.079826
     6  C   -0.069002
     7  O   -0.264370
     8  C    0.137063
     9  C   -0.080866
    10  H    0.106032
    11  H    0.107014
    12  H    0.078149
    13  H    0.093498
    14  H    0.106930
    15  H    0.075081
    16  H    0.090509
    17  H    0.107092
    18  H    0.077237
    19  H    0.067822
 Sum of Mulliken charges =   0.00000

 Dipole moment (field-independent basis, Debye):
    X=              0.3558    Y=              0.0664    Z=              2.3428  Tot=              2.3706
 Quadrupole moment (field-independent basis, Debye-Ang):
   XX=            -52.7105   YY=            -51.2607   ZZ=            -55.3057
   XY=             -3.9290   XZ=             -1.4820   YZ=              1.1747

 Optimization completed.
    -- Stationary point found.
 Normal termination of Gaussian 09 at Mon Jan 27 11:19:52 2020.

 ----------------------------------------------------------------------
 #N Geom=AllCheck Guess=TCheck SCRF=Check GenChk RB3LYP/6-31G(2df,p) Fr
 eq
 ----------------------------------------------------------------------

 Structure from the checkpoint file:  "/scratch/puck/g09_26f8ab1f-ec8c-484a-8190-326b36788153/Gau-32370.chk"
 -----
 titel
 -----
 Charge =  0 Multiplicity = 1

                         Standard orientation:
 ---------------------------------------------------------------------
 Center     Atomic      Atomic             Coordinates (Angstroms)
 Number     Number       Type             X           Y           Z
 ---------------------------------------------------------------------
      1          6           0        1.667319   -0.507158    0.700976
      2          6           0        1.173190   -0.346748   -0.763842
      3          8           0        0.780985    0.983587   -1.048713
      4          6           0        0.182238    1.627430    0.073683
      5          6           0       -0.652887    0.641096    0.905107
      6          6           0       -1.861570    0.137358    0.096973
      7          8           0       -1.342197   -0.839479   -0.809454
      8          6           0       -0.073831   -1.219698   -0.341532
      9          6           0        0.172574   -0.670155    1.081333
     10          1           0        2.211258   -1.445567    0.835232
     11          1           0        2.251390    0.305751    1.136465
     12          1           0        1.802061   -0.675624   -1.592320
     13          1           0        0.956690    2.082215    0.708037
     14          1           0       -0.433547    2.438987   -0.326330
     15          1           0       -0.949495    1.103790    1.850641
     16          1           0       -2.615404   -0.325796    0.750894
     17          1           0       -2.348010    0.930940   -0.479918
     18          1           0        0.083336   -2.290216   -0.495112
     19          1           0       -0.110785   -1.250109    1.961561
 ---------------------------------------------------------------------

 SCF Done:  E(RB3LYP) =  -423.177780652     A.U. after    1 cycles
