 Gaussian 09, Revision D.01,
 Gaussian 09:  ES64L-G09RevD.01 24-Apr-2013

 -----------------------------
 # b3lyp 6-31G(2df,p) opt Freq
 -----------------------------

 -----
 titel
 -----
 Symbolic Z-matrix:
 Charge =  0 Multiplicity = 1

 SCF Done:  E(RB3LYP) =  -423.192452887     A.U. after   13 cycles

 The electronic state is 1-A.
 Alpha  occ. eigenvalues --  -19.14575 -19.13729 -10.27333 -10.23704 -10.22807
 Alpha  occ. eigenvalues --  -10.19455 -10.18789 -10.18705 -10.18272  -1.08662
 Alpha  occ. eigenvalues --   -0.98854  -0.86101  -0.78719  -0.70001  -0.65313
 Alpha  occ. eigenvalues --   -0.61317  -0.58648  -0.54804  -0.52774  -0.49121
 Alpha  occ. eigenvalues --   -0.47347  -0.45618  -0.43461  -0.41465  -0.41020
 Alpha  occ. eigenvalues --   -0.39607  -0.38251  -0.35379  -0.33427  -0.32528
 Alpha  occ. eigenvalues --   -0.29456  -0.28495  -0.25701  -0.25207
 Alpha virt. eigenvalues --    0.08150   0.09812   0.11281   0.11916   0.13250
 Alpha virt. eigenvalues --    0.13413   0.14547   0.15574   0.16345   0.16517
 Alpha virt. eigenvalues --    0.17959   0.18419   0.20808   0.22592   0.24193

 Mulliken charges:
               1
     1  C   -0.298884
     2  C   -0.028440
     3  C   -0.243095
     4  C    0.057432
     5  C   -0.096041
     6  O   -0.263016
     7  C    0.173930
     8  O   -0.255583
     9  C   -0.049560
    10  H    0.107857
    11  H    0.123929
    12  H    0.086654
    13  H    0.107055
    14  H    0.100045
    15  H    0.085234
    16  H    0.109110
    17  H    0.100403
    18  H    0.091098
    19  H    0.091875
 Sum of Mulliken charges =   0.00000

 Dipole moment (field-independent basis, Debye):
    X=              0.7188    Y=              1.3723    Z=             -0.7753  Tot=              1.7323
 Quadrupole moment (field-independent basis, Debye-Ang):
   XX=            -52.6522   YY=            -51.2391   ZZ=            -54.6286
   XY=             -3.7588   XZ=             -0.9090   YZ=             -0.8605

 Optimization completed.
    -- Stationary point found.
 Normal termination of Gaussian 09 at Mon Jan 27 11:16:26 2020.

 ----------------------------------------------------------------------
 #N Geom=AllCheck Guess=TCheck SCRF=Check GenChk RB3LYP/6-31G(2df,p) Fr
 eq
 ----------------------------------------------------------------------

 Structure from the checkpoint file:  "/scratch/puck/g09_9dbdee96-ee8f-4ae2-9dfa-31e8cd28ad01/Gau-69969.chk"
 -----
 titel
 -----
 Charge =  0 Multiplicity = 1

                         Standard orientation:
 ---------------------------------------------------------------------
 Center     Atomic      Atomic             Coordinates (Angstroms)
 Number     Number       Type             X           Y           Z
 ---------------------------------------------------------------------
      1          6           0        2.162859   -0.364753    0.274708
      2          6           0        1.362682    0.511718   -0.661000
      3          6           0        0.444414    1.604949   -0.104847
      4          6           0       -0.837025    0.994558    0.474360
      5          6           0       -1.748365    0.338619   -0.597082
      6          8           0       -1.438681   -1.053425   -0.528280
      7          6           0       -0.316939   -1.154791    0.335354
      8          8           0       -0.491264   -0.131428    1.294168
      9          6           0        0.969481   -0.936842   -0.440920
     10          1           0        3.150608   -0.681804   -0.041811
     11          1           0        2.058853   -0.180724    1.338423
     12          1           0        1.836376    0.743072   -1.609152
     13          1           0        0.957459    2.181221    0.673529
     14          1           0        0.178493    2.313474   -0.897634
     15          1           0       -1.377804    1.707511    1.100246
     16          1           0       -2.811308    0.470586   -0.369566
     17          1           0       -1.550327    0.733157   -1.600892
     18          1           0       -0.357654   -2.122867    0.842414
     19          1           0        1.132208   -1.645552   -1.246091
 ---------------------------------------------------------------------

 SCF Done:  E(RB3LYP) =  -423.192452887     A.U. after    1 cycles
