 Gaussian 09, Revision D.01,
 Gaussian 09:  ES64L-G09RevD.01 24-Apr-2013

 -----------------------------
 # b3lyp 6-31G(2df,p) opt Freq
 -----------------------------

 -----
 titel
 -----
 Symbolic Z-matrix:
 Charge =  0 Multiplicity = 1

 SCF Done:  E(RB3LYP) =  -423.204205457     A.U. after   13 cycles

 The electronic state is 1-A.
 Alpha  occ. eigenvalues --  -19.13893 -19.13683 -10.27110 -10.23558 -10.23283
 Alpha  occ. eigenvalues --  -10.19035 -10.18370 -10.18350 -10.18274  -1.09285
 Alpha  occ. eigenvalues --   -0.98879  -0.82339  -0.75622  -0.73205  -0.63552
 Alpha  occ. eigenvalues --   -0.61695  -0.59247  -0.54250  -0.53577  -0.49425
 Alpha  occ. eigenvalues --   -0.46516  -0.43787  -0.42161  -0.40078  -0.39314
 Alpha  occ. eigenvalues --   -0.38243  -0.38085  -0.36156  -0.34124  -0.33545
 Alpha  occ. eigenvalues --   -0.31582  -0.29597  -0.26454  -0.25113
 Alpha virt. eigenvalues --    0.08413   0.10839   0.11111   0.11742   0.13231
 Alpha virt. eigenvalues --    0.14280   0.15257   0.15572   0.16789   0.17132
 Alpha virt. eigenvalues --    0.18803   0.19338   0.19795   0.21465   0.21969

 Mulliken charges:
               1
     1  C   -0.214086
     2  C   -0.085476
     3  C   -0.200249
     4  C   -0.223205
     5  C    0.065896
     6  O   -0.259018
     7  C    0.187544
     8  O   -0.249225
     9  C    0.039812
    10  H    0.097141
    11  H    0.106628
    12  H    0.070063
    13  H    0.109787
    14  H    0.094602
    15  H    0.106712
    16  H    0.098438
    17  H    0.081391
    18  H    0.091353
    19  H    0.081891
 Sum of Mulliken charges =   0.00000

 Dipole moment (field-independent basis, Debye):
    X=              1.4104    Y=              1.3298    Z=              0.8600  Tot=              2.1207
 Quadrupole moment (field-independent basis, Debye-Ang):
   XX=            -56.1406   YY=            -54.4726   ZZ=            -49.2168
   XY=             -0.7835   XZ=              0.2804   YZ=             -2.0432

 Optimization completed.
    -- Stationary point found.
 Normal termination of Gaussian 09 at Mon Jan 27 11:17:06 2020.

 ----------------------------------------------------------------------
 #N Geom=AllCheck Guess=TCheck SCRF=Check GenChk RB3LYP/6-31G(2df,p) Fr
 eq
 ----------------------------------------------------------------------

 Structure from the checkpoint file:  "/scratch/puck/g09_b85c3fa0-6e85-4f3b-aaa2-cbb405d55e48/Gau-70032.chk"
 -----
 titel
 -----
 Charge =  0 Multiplicity = 1

                         Standard orientation:
 ---------------------------------------------------------------------
 Center     Atomic      Atomic             Coordinates (Angstroms)
 Number     Number       Type             X           Y           Z
 ---------------------------------------------------------------------
      1          6           0       -0.320499    1.436991    0.665849
      2          6           0        0.173786    1.033565   -0.750049
      3          6           0        1.621046    0.525563   -0.585184
      4          6           0        1.633792   -0.454073    0.625424
      5          6           0        0.217789   -1.038595    0.703168
      6          8           0       -0.115200   -1.381909   -0.659356
      7          6           0       -0.788800   -0.197712   -1.041306
      8          8           0       -1.806588   -0.101883   -0.060349
      9          6           0       -0.889210    0.061404    1.034749
     10          1           0        0.482772    1.807919    1.305612
     11          1           0       -1.130238    2.168749    0.653658
     12          1           0        0.082838    1.816505   -1.503945
     13          1           0        1.951948    0.008230   -1.489079
     14          1           0        2.302394    1.366034   -0.421721
     15          1           0        2.355638   -1.259722    0.466863
     16          1           0        1.912081    0.044456    1.559841
     17          1           0        0.134209   -1.930694    1.325879
     18          1           0       -1.201962   -0.300410   -2.043315
     19          1           0       -1.402794   -0.053587    1.987946
 ---------------------------------------------------------------------

 SCF Done:  E(RB3LYP) =  -423.204205457     A.U. after    1 cycles
