 Gaussian 09, Revision D.01,
 Gaussian 09:  ES64L-G09RevD.01 24-Apr-2013

 -----------------------------
 # b3lyp 6-31G(2df,p) opt Freq
 -----------------------------

 -----
 titel
 -----
 Symbolic Z-matrix:
 Charge =  0 Multiplicity = 1

 SCF Done:  E(RB3LYP) =  -423.110856127     A.U. after   13 cycles

 The electronic state is 1-A.
 Alpha  occ. eigenvalues --  -19.15289 -19.13241 -10.24220 -10.23692 -10.23678
 Alpha  occ. eigenvalues --  -10.22827 -10.20214 -10.19853 -10.18878  -1.07245
 Alpha  occ. eigenvalues --   -1.04648  -0.83998  -0.75750  -0.69245  -0.66318
 Alpha  occ. eigenvalues --   -0.61307  -0.59139  -0.54240  -0.51882  -0.48686
 Alpha  occ. eigenvalues --   -0.48068  -0.46888  -0.45053  -0.42207  -0.39929
 Alpha  occ. eigenvalues --   -0.38563  -0.38165  -0.37428  -0.34257  -0.31790
 Alpha  occ. eigenvalues --   -0.30400  -0.27533  -0.26389  -0.22994
 Alpha virt. eigenvalues --    0.07647   0.09363   0.10451   0.10980   0.11065
 Alpha virt. eigenvalues --    0.12489   0.13452   0.13930   0.14841   0.15327
 Alpha virt. eigenvalues --    0.16539   0.17087   0.17900   0.18901   0.21390

 Mulliken charges:
               1
     1  C   -0.366474
     2  C    0.110203
     3  C   -0.182790
     4  O   -0.235355
     5  C    0.305489
     6  C   -0.344900
     7  C    0.037722
     8  O   -0.288713
     9  C   -0.120966
    10  H    0.104197
    11  H    0.106263
    12  H    0.096260
    13  H    0.113809
    14  H    0.115870
    15  H    0.115800
    16  H    0.109470
    17  H    0.102971
    18  H    0.110261
    19  H    0.110882
 Sum of Mulliken charges =   0.00000

 Dipole moment (field-independent basis, Debye):
    X=             -1.7711    Y=             -2.4335    Z=             -0.7154  Tot=              3.0936
 Quadrupole moment (field-independent basis, Debye-Ang):
   XX=            -56.3615   YY=            -53.3416   ZZ=            -51.4349
   XY=             -0.4242   XZ=              1.4700   YZ=             -0.3418

 Optimization completed.
    -- Stationary point found.
 Normal termination of Gaussian 09 at Mon Jan 27 11:16:33 2020.

 ----------------------------------------------------------------------
 #N Geom=AllCheck Guess=TCheck SCRF=Check GenChk RB3LYP/6-31G(2df,p) Fr
 eq
 ----------------------------------------------------------------------

 Structure from the checkpoint file:  "/scratch/puck/g09_40969fc4-5734-4faf-b21c-24dc1772c0e0/Gau-49235.chk"
 -----
 titel
 -----
 Charge =  0 Multiplicity = 1

                         Standard orientation:
 ---------------------------------------------------------------------
 Center     Atomic      Atomic             Coordinates (Angstroms)
 Number     Number       Type             X           Y           Z
 ---------------------------------------------------------------------
      1          6           0       -0.610057   -0.691637   -0.688403
      2          6           0       -1.777720   -0.473848    0.249470
      3          6           0       -3.089387   -0.015871   -0.221198
      4          8           0       -2.189334    0.886367    0.426549
      5          6           0        0.686650   -0.243585   -0.073378
      6          6           0        1.574815   -1.110416    0.805406
      7          6           0        2.138547   -0.470062   -0.426662
      8          8           0        2.502545    0.886514   -0.170079
      9          6           0        1.112338    1.212741    0.114465
     10          1           0       -0.553284   -1.756023   -0.949768
     11          1           0       -0.798137   -0.139251   -1.617511
     12          1           0       -1.740158   -1.043132    1.179879
     13          1           0       -3.244386    0.162373   -1.284807
     14          1           0       -3.987657   -0.264883    0.341925
     15          1           0        1.906633   -0.768715    1.782432
     16          1           0        1.378945   -2.176561    0.730277
     17          1           0        2.631754   -0.986767   -1.242766
     18          1           0        0.979082    1.663371    1.104132
     19          1           0        0.710400    1.882620   -0.653753
 ---------------------------------------------------------------------

 SCF Done:  E(RB3LYP) =  -423.110856127     A.U. after    1 cycles
