 Gaussian 09, Revision D.01,
 Gaussian 09:  ES64L-G09RevD.01 24-Apr-2013

 -----------------------------
 # b3lyp 6-31G(2df,p) opt Freq
 -----------------------------

 -----
 titel
 -----
 Symbolic Z-matrix:
 Charge =  0 Multiplicity = 1

 SCF Done:  E(RB3LYP) =  -423.153302811     A.U. after   13 cycles

 The electronic state is 1-A.
 Alpha  occ. eigenvalues --  -19.14079 -19.13389 -10.24339 -10.23017 -10.22908
 Alpha  occ. eigenvalues --  -10.22491 -10.20419 -10.19603 -10.18824  -1.04922
 Alpha  occ. eigenvalues --   -1.01956  -0.84514  -0.75137  -0.72676  -0.67552
 Alpha  occ. eigenvalues --   -0.60907  -0.57788  -0.55819  -0.51366  -0.49482
 Alpha  occ. eigenvalues --   -0.47550  -0.45343  -0.43080  -0.41413  -0.40220
 Alpha  occ. eigenvalues --   -0.38709  -0.36993  -0.36163  -0.35498  -0.31970
 Alpha  occ. eigenvalues --   -0.30207  -0.30017  -0.24891  -0.24576
 Alpha virt. eigenvalues --    0.07741   0.09104   0.10982   0.11418   0.11951
 Alpha virt. eigenvalues --    0.13376   0.14783   0.15055   0.16140   0.16416
 Alpha virt. eigenvalues --    0.17068   0.18704   0.20031   0.20425   0.22183

 Mulliken charges:
               1
     1  C   -0.329507
     2  C    0.102221
     3  C   -0.268555
     4  C    0.281095
     5  C   -0.198293
     6  O   -0.282212
     7  C   -0.113344
     8  C    0.105031
     9  O   -0.298217
    10  H    0.105439
    11  H    0.106568
    12  H    0.085468
    13  H    0.101403
    14  H    0.109027
    15  H    0.099561
    16  H    0.106788
    17  H    0.104459
    18  H    0.102293
    19  H    0.080777
 Sum of Mulliken charges =   0.00000

 Dipole moment (field-independent basis, Debye):
    X=              1.1981    Y=             -1.4286    Z=             -0.1317  Tot=              1.8691
 Quadrupole moment (field-independent basis, Debye-Ang):
   XX=            -56.9541   YY=            -53.2518   ZZ=            -51.5867
   XY=             -3.3335   XZ=              1.7211   YZ=              0.2003

 Optimization completed.
    -- Stationary point found.
 Normal termination of Gaussian 09 at Mon Jan 27 11:18:11 2020.

 ----------------------------------------------------------------------
 #N Geom=AllCheck Guess=TCheck SCRF=Check GenChk RB3LYP/6-31G(2df,p) Fr
 eq
 ----------------------------------------------------------------------

 Structure from the checkpoint file:  "/scratch/puck/g09_9569629c-bb06-4de9-8daf-ea29e44dc211/Gau-46442.chk"
 -----
 titel
 -----
 Charge =  0 Multiplicity = 1

                         Standard orientation:
 ---------------------------------------------------------------------
 Center     Atomic      Atomic             Coordinates (Angstroms)
 Number     Number       Type             X           Y           Z
 ---------------------------------------------------------------------
      1          6           0        1.454788   -0.935528   -0.751437
      2          6           0        1.830049    0.203124    0.256857
      3          6           0        0.830404   -0.445520    1.233037
      4          6           0        0.061527   -0.675125   -0.112466
      5          6           0       -1.331133   -1.240861   -0.185253
      6          8           0       -2.183870   -0.122883    0.149498
      7          6           0       -1.457757    1.120671    0.139312
      8          6           0       -0.146404    0.776384   -0.566062
      9          8           0        1.105380    1.369834   -0.201058
     10          1           0        1.575699   -0.732204   -1.818240
     11          1           0        1.905711   -1.891585   -0.480196
     12          1           0        2.853017    0.476587    0.508403
     13          1           0        1.179867   -1.386112    1.663489
     14          1           0        0.394245    0.196975    1.999299
     15          1           0       -1.578385   -1.606092   -1.192717
     16          1           0       -1.524392   -2.046386    0.530663
     17          1           0       -2.062961    1.861946   -0.391323
     18          1           0       -1.285386    1.479489    1.162364
     19          1           0       -0.278335    0.852906   -1.653195
 ---------------------------------------------------------------------

 SCF Done:  E(RB3LYP) =  -423.153302811     A.U. after    1 cycles
