 Gaussian 09, Revision D.01,
 Gaussian 09:  ES64L-G09RevD.01 24-Apr-2013

 -----------------------------
 # b3lyp 6-31G(2df,p) opt Freq
 -----------------------------

 -----
 titel
 -----
 Symbolic Z-matrix:
 Charge =  0 Multiplicity = 1

 SCF Done:  E(RB3LYP) =  -423.183694185     A.U. after   13 cycles

 The electronic state is 1-A.
 Alpha  occ. eigenvalues --  -19.14033 -19.13694 -10.27339 -10.23189 -10.22665
 Alpha  occ. eigenvalues --  -10.20028 -10.19438 -10.18618 -10.18155  -1.06572
 Alpha  occ. eigenvalues --   -1.00486  -0.85619  -0.78836  -0.72631  -0.64188
 Alpha  occ. eigenvalues --   -0.62553  -0.56987  -0.54917  -0.53395  -0.48154
 Alpha  occ. eigenvalues --   -0.47774  -0.46656  -0.43919  -0.43016  -0.39009
 Alpha  occ. eigenvalues --   -0.38377  -0.36407  -0.36259  -0.33713  -0.33315
 Alpha  occ. eigenvalues --   -0.31119  -0.27576  -0.26104  -0.23754
 Alpha virt. eigenvalues --    0.07860   0.10592   0.11567   0.12394   0.12974
 Alpha virt. eigenvalues --    0.13592   0.14364   0.15281   0.16302   0.17975
 Alpha virt. eigenvalues --    0.18710   0.19417   0.20086   0.20870   0.23180

 Mulliken charges:
               1
     1  C   -0.326307
     2  C    0.113431
     3  O   -0.262169
     4  C    0.217818
     5  C   -0.262282
     6  C   -0.062493
     7  C   -0.086379
     8  O   -0.270574
     9  C   -0.070059
    10  H    0.136881
    11  H    0.107916
    12  H    0.095154
    13  H    0.089904
    14  H    0.109948
    15  H    0.105071
    16  H    0.071142
    17  H    0.108169
    18  H    0.095656
    19  H    0.089173
 Sum of Mulliken charges =   0.00000

 Dipole moment (field-independent basis, Debye):
    X=              0.0743    Y=             -1.6425    Z=              1.9354  Tot=              2.5394
 Quadrupole moment (field-independent basis, Debye-Ang):
   XX=            -50.5240   YY=            -53.6219   ZZ=            -54.1071
   XY=             -0.7715   XZ=             -1.0155   YZ=              1.5999

 Optimization completed.
    -- Stationary point found.
 Normal termination of Gaussian 09 at Mon Jan 27 11:16:36 2020.

 ----------------------------------------------------------------------
 #N Geom=AllCheck Guess=TCheck SCRF=Check GenChk RB3LYP/6-31G(2df,p) Fr
 eq
 ----------------------------------------------------------------------

 Structure from the checkpoint file:  "/scratch/puck/g09_e271c4fc-e4f0-488c-af57-6752f1f5b1be/Gau-69973.chk"
 -----
 titel
 -----
 Charge =  0 Multiplicity = 1

                         Standard orientation:
 ---------------------------------------------------------------------
 Center     Atomic      Atomic             Coordinates (Angstroms)
 Number     Number       Type             X           Y           Z
 ---------------------------------------------------------------------
      1          6           0        1.804402   -0.599715   -0.695402
      2          6           0        1.488927    0.586379    0.174130
      3          8           0        0.503124    1.511032   -0.216951
      4          6           0       -0.841754    1.090855   -0.076012
      5          6           0       -1.059992    0.293175    1.212652
      6          6           0       -0.438990   -1.034342    0.730330
      7          6           0       -1.143645   -1.150122   -0.624184
      8          8           0       -1.226495    0.197171   -1.113115
      9          6           0        1.072958   -0.791773    0.623504
     10          1           0        1.245542   -0.678215   -1.620087
     11          1           0        2.833286   -0.937719   -0.755644
     12          1           0        2.299702    1.093461    0.686776
     13          1           0       -1.432877    2.001193   -0.185409
     14          1           0       -0.557121    0.734572    2.074422
     15          1           0       -2.129635    0.197342    1.421195
     16          1           0       -0.654913   -1.890740    1.371870
     17          1           0       -0.605034   -1.766462   -1.349387
     18          1           0       -2.155921   -1.560296   -0.505834
     19          1           0        1.652501   -1.225496    1.432514
 ---------------------------------------------------------------------

 SCF Done:  E(RB3LYP) =  -423.183694185     A.U. after    1 cycles
