 Gaussian 09, Revision D.01,
 Gaussian 09:  ES64L-G09RevD.01 24-Apr-2013

 -----------------------------
 # b3lyp 6-31G(2df,p) opt Freq
 -----------------------------

 -----
 titel
 -----
 Symbolic Z-matrix:
 Charge =  0 Multiplicity = 1

 SCF Done:  E(RB3LYP) =  -423.112708318     A.U. after   14 cycles

 The electronic state is 1-A.
 Alpha  occ. eigenvalues --  -19.13519 -19.13389 -10.24959 -10.24895 -10.22815
 Alpha  occ. eigenvalues --  -10.22156 -10.20596 -10.19518 -10.18995  -1.05806
 Alpha  occ. eigenvalues --   -1.03433  -0.80885  -0.74863  -0.72867  -0.65478
 Alpha  occ. eigenvalues --   -0.62614  -0.59874  -0.52772  -0.52258  -0.49313
 Alpha  occ. eigenvalues --   -0.48202  -0.44732  -0.42122  -0.40959  -0.40620
 Alpha  occ. eigenvalues --   -0.39149  -0.38303  -0.34939  -0.33156  -0.32482
 Alpha  occ. eigenvalues --   -0.30923  -0.30093  -0.25121  -0.24037
 Alpha virt. eigenvalues --    0.07740   0.08937   0.09338   0.11565   0.12250
 Alpha virt. eigenvalues --    0.12741   0.14128   0.14433   0.15092   0.15866
 Alpha virt. eigenvalues --    0.16395   0.17868   0.18721   0.19265   0.21543

 Mulliken charges:
               1
     1  C   -0.235713
     2  C   -0.009677
     3  O   -0.320316
     4  C   -0.011851
     5  C    0.373595
     6  C   -0.340655
     7  C   -0.083259
     8  O   -0.245237
     9  C   -0.155267
    10  H    0.110293
    11  H    0.101442
    12  H    0.094635
    13  H    0.092414
    14  H    0.106060
    15  H    0.113805
    16  H    0.086703
    17  H    0.109633
    18  H    0.091411
    19  H    0.121985
 Sum of Mulliken charges =   0.00000

 Dipole moment (field-independent basis, Debye):
    X=              0.1574    Y=              2.4483    Z=              0.3565  Tot=              2.4791
 Quadrupole moment (field-independent basis, Debye-Ang):
   XX=            -58.5847   YY=            -54.3522   ZZ=            -50.1556
   XY=              0.1202   XZ=             -1.5462   YZ=              0.0306

 Optimization completed.
    -- Stationary point found.
 Normal termination of Gaussian 09 at Mon Jan 27 11:14:43 2020.

 ----------------------------------------------------------------------
 #N Geom=AllCheck Guess=TCheck SCRF=Check GenChk RB3LYP/6-31G(2df,p) Fr
 eq
 ----------------------------------------------------------------------

 Structure from the checkpoint file:  "/scratch/puck/g09_882eaf82-4285-477d-8a3a-f4e4a12e859e/Gau-162845.chk"
 -----
 titel
 -----
 Charge =  0 Multiplicity = 1

                         Standard orientation:
 ---------------------------------------------------------------------
 Center     Atomic      Atomic             Coordinates (Angstroms)
 Number     Number       Type             X           Y           Z
 ---------------------------------------------------------------------
      1          6           0        2.022473    1.013178   -0.065505
      2          6           0        1.321997   -0.093370   -0.886646
      3          8           0        1.842395   -1.092166    0.081646
      4          6           0        1.314519    0.031232    0.897858
      5          6           0        0.049233    0.036329   -0.003109
      6          6           0       -0.904469    1.244584   -0.102744
      7          6           0       -2.272799    0.615949    0.205130
      8          8           0       -2.184001   -0.712745   -0.279116
      9          6           0       -0.893140   -1.183667    0.082672
     10          1           0        3.110953    0.950690   -0.055302
     11          1           0        1.653358    2.037884   -0.141128
     12          1           0        1.401614   -0.332739   -1.948455
     13          1           0        1.391023   -0.060151    1.982907
     14          1           0       -0.651673    2.054712    0.585944
     15          1           0       -0.898112    1.653321   -1.118277
     16          1           0       -2.465829    0.623928    1.291618
     17          1           0       -3.111112    1.106338   -0.295791
     18          1           0       -0.902596   -1.586775    1.108542
     19          1           0       -0.621664   -1.993323   -0.596228
 ---------------------------------------------------------------------

 SCF Done:  E(RB3LYP) =  -423.112708318     A.U. after    1 cycles
