 Gaussian 09, Revision D.01,
 Gaussian 09:  ES64L-G09RevD.01 24-Apr-2013

 -----------------------------
 # b3lyp 6-31G(2df,p) opt Freq
 -----------------------------

 -----
 titel
 -----
 Symbolic Z-matrix:
 Charge =  0 Multiplicity = 1

 SCF Done:  E(RB3LYP) =  -423.149850037     A.U. after   14 cycles

 The electronic state is 1-A.
 Alpha  occ. eigenvalues --  -19.15410 -19.14678 -10.27692 -10.24246 -10.23933
 Alpha  occ. eigenvalues --  -10.20775 -10.19522 -10.17882 -10.16753  -1.09223
 Alpha  occ. eigenvalues --   -0.99766  -0.81642  -0.76938  -0.71814  -0.66152
 Alpha  occ. eigenvalues --   -0.63907  -0.59305  -0.52993  -0.52392  -0.50599
 Alpha  occ. eigenvalues --   -0.47734  -0.45904  -0.45498  -0.42491  -0.41088
 Alpha  occ. eigenvalues --   -0.40993  -0.38231  -0.35998  -0.33969  -0.33859
 Alpha  occ. eigenvalues --   -0.27607  -0.26331  -0.26115  -0.25693
 Alpha virt. eigenvalues --    0.05598   0.06090   0.08567   0.10393   0.11261
 Alpha virt. eigenvalues --    0.12374   0.12918   0.13352   0.13935   0.15416
 Alpha virt. eigenvalues --    0.16757   0.17456   0.17940   0.20170   0.21272

 Mulliken charges:
               1
     1  C   -0.437298
     2  C    0.291267
     3  C   -0.355395
     4  C   -0.199430
     5  C    0.112565
     6  C   -0.135111
     7  O   -0.231910
     8  C    0.025926
     9  O   -0.272845
    10  H    0.193134
    11  H    0.127827
    12  H    0.151025
    13  H    0.113278
    14  H    0.110918
    15  H    0.082824
    16  H    0.096710
    17  H    0.122327
    18  H    0.084576
    19  H    0.119611
 Sum of Mulliken charges =   0.00000

 Dipole moment (field-independent basis, Debye):
    X=             -0.0208    Y=              0.9061    Z=             -0.1608  Tot=              0.9205
 Quadrupole moment (field-independent basis, Debye-Ang):
   XX=            -56.9553   YY=            -52.2926   ZZ=            -51.9458
   XY=             -1.9850   XZ=              0.3813   YZ=              1.1152

 Optimization completed.
    -- Stationary point found.
 Normal termination of Gaussian 09 at Mon Jan 27 11:12:30 2020.

 ----------------------------------------------------------------------
 #N Geom=AllCheck Guess=TCheck SCRF=Check GenChk RB3LYP/6-31G(2df,p) Fr
 eq
 ----------------------------------------------------------------------

 Structure from the checkpoint file:  "/scratch/puck/g09_c20b1b3d-ab17-403c-b34e-594c4c490d2d/Gau-39096.chk"
 -----
 titel
 -----
 Charge =  0 Multiplicity = 1

                         Standard orientation:
 ---------------------------------------------------------------------
 Center     Atomic      Atomic             Coordinates (Angstroms)
 Number     Number       Type             X           Y           Z
 ---------------------------------------------------------------------
      1          6           0       -4.213299    0.077275   -0.494047
      2          6           0       -3.128754   -0.145391   -0.025914
      3          6           0       -1.800844   -0.388899    0.522552
      4          6           0       -0.733946    0.566832   -0.047059
      5          6           0        0.650365    0.297938    0.531260
      6          6           0        1.769203    1.184744   -0.053577
      7          8           0        2.880851    0.307559   -0.139260
      8          6           0        2.318670   -0.934750   -0.468767
      9          8           0        1.089310   -1.033129    0.224954
     10          1           0       -5.176851    0.261475   -0.899829
     11          1           0       -1.832283   -0.291775    1.616008
     12          1           0       -1.492419   -1.419906    0.315815
     13          1           0       -0.698420    0.463133   -1.137199
     14          1           0       -1.017681    1.604127    0.168887
     15          1           0        0.620056    0.392527    1.626082
     16          1           0        1.487474    1.562681   -1.049425
     17          1           0        2.040608    2.027859    0.584340
     18          1           0        2.145379   -1.012228   -1.557854
     19          1           0        2.994482   -1.729836   -0.139062
 ---------------------------------------------------------------------

 SCF Done:  E(RB3LYP) =  -423.149850037     A.U. after    1 cycles
