 Gaussian 09, Revision D.01,
 Gaussian 09:  ES64L-G09RevD.01 24-Apr-2013

 -----------------------------
 # b3lyp 6-31G(2df,p) opt Freq
 -----------------------------

 -----
 titel
 -----
 Symbolic Z-matrix:
 Charge =  0 Multiplicity = 1

 SCF Done:  E(RB3LYP) =  -423.189069984     A.U. after   13 cycles

 The electronic state is 1-A.
 Alpha  occ. eigenvalues --  -19.14948 -19.13424 -10.23672 -10.23203 -10.23156
 Alpha  occ. eigenvalues --  -10.22545 -10.19597 -10.19112 -10.18151  -1.07065
 Alpha  occ. eigenvalues --   -1.02948  -0.81261  -0.75553  -0.71997  -0.65854
 Alpha  occ. eigenvalues --   -0.61674  -0.57546  -0.54969  -0.53245  -0.48170
 Alpha  occ. eigenvalues --   -0.46707  -0.45589  -0.42898  -0.42247  -0.40821
 Alpha  occ. eigenvalues --   -0.39765  -0.36972  -0.35119  -0.34077  -0.32582
 Alpha  occ. eigenvalues --   -0.31143  -0.28815  -0.27704  -0.24187
 Alpha virt. eigenvalues --    0.07916   0.08940   0.10326   0.11976   0.12948
 Alpha virt. eigenvalues --    0.13975   0.14952   0.15165   0.16133   0.16833
 Alpha virt. eigenvalues --    0.17536   0.18416   0.19909   0.20391   0.22014

 Mulliken charges:
               1
     1  C   -0.072021
     2  O   -0.273039
     3  C    0.068897
     4  C   -0.243455
     5  C   -0.048473
     6  C   -0.246080
     7  C    0.055322
     8  O   -0.257813
     9  C    0.045138
    10  H    0.100639
    11  H    0.095709
    12  H    0.077162
    13  H    0.122602
    14  H    0.100625
    15  H    0.072106
    16  H    0.113402
    17  H    0.101875
    18  H    0.094281
    19  H    0.093124
 Sum of Mulliken charges =   0.00000

 Dipole moment (field-independent basis, Debye):
    X=              0.6950    Y=              1.4081    Z=             -0.1163  Tot=              1.5746
 Quadrupole moment (field-independent basis, Debye-Ang):
   XX=            -57.3318   YY=            -50.9895   ZZ=            -52.4574
   XY=              1.5641   XZ=              3.9976   YZ=             -1.4652

 Optimization completed.
    -- Stationary point found.
 Normal termination of Gaussian 09 at Mon Jan 27 11:16:35 2020.

 ----------------------------------------------------------------------
 #N Geom=AllCheck Guess=TCheck SCRF=Check GenChk RB3LYP/6-31G(2df,p) Fr
 eq
 ----------------------------------------------------------------------

 Structure from the checkpoint file:  "/scratch/puck/g09_945bc102-737f-4543-b013-988e9585ecc7/Gau-69976.chk"
 -----
 titel
 -----
 Charge =  0 Multiplicity = 1

                         Standard orientation:
 ---------------------------------------------------------------------
 Center     Atomic      Atomic             Coordinates (Angstroms)
 Number     Number       Type             X           Y           Z
 ---------------------------------------------------------------------
      1          6           0        1.704813    0.393715   -0.642447
      2          8           0        1.364016   -1.001976   -0.670708
      3          6           0        0.313249   -1.212691    0.277964
      4          6           0        0.568857   -0.167499    1.365439
      5          6           0        0.833340    1.047530    0.454071
      6          6           0       -0.499976    1.579198   -0.108323
      7          6           0       -1.400082    0.462700   -0.621753
      8          8           0       -2.056045   -0.353117    0.362542
      9          6           0       -1.015795   -0.943866   -0.421175
     10          1           0        2.774078    0.482413   -0.412630
     11          1           0        1.532828    0.836535   -1.631642
     12          1           0        0.382963   -2.248532    0.620435
     13          1           0       -0.278517   -0.031723    2.037649
     14          1           0        1.456438   -0.439925    1.943097
     15          1           0        1.373873    1.852974    0.957458
     16          1           0       -1.041060    2.144312    0.660321
     17          1           0       -0.303187    2.276511   -0.931304
     18          1           0       -2.041613    0.711929   -1.466469
     19          1           0       -1.346007   -1.698277   -1.134236
 ---------------------------------------------------------------------

 SCF Done:  E(RB3LYP) =  -423.189069984     A.U. after    1 cycles
