 Gaussian 09, Revision D.01,
 Gaussian 09:  ES64L-G09RevD.01 24-Apr-2013

 -----------------------------
 # b3lyp 6-31G(2df,p) opt Freq
 -----------------------------

 -----
 titel
 -----
 Symbolic Z-matrix:
 Charge =  0 Multiplicity = 1

 SCF Done:  E(RB3LYP) =  -423.187321483     A.U. after   13 cycles

 The electronic state is 1-A.
 Alpha  occ. eigenvalues --  -19.14597 -19.13890 -10.23318 -10.23278 -10.22907
 Alpha  occ. eigenvalues --  -10.22663 -10.19294 -10.19225 -10.18608  -1.06869
 Alpha  occ. eigenvalues --   -1.03666  -0.81448  -0.75400  -0.71451  -0.65917
 Alpha  occ. eigenvalues --   -0.60925  -0.57363  -0.56356  -0.51262  -0.50125
 Alpha  occ. eigenvalues --   -0.47769  -0.45573  -0.43642  -0.42665  -0.39090
 Alpha  occ. eigenvalues --   -0.37544  -0.36958  -0.35712  -0.34588  -0.33060
 Alpha  occ. eigenvalues --   -0.31499  -0.28822  -0.26190  -0.25362
 Alpha virt. eigenvalues --    0.07865   0.10644   0.11030   0.11130   0.12183
 Alpha virt. eigenvalues --    0.13000   0.13956   0.15171   0.16216   0.16562
 Alpha virt. eigenvalues --    0.16836   0.18001   0.18784   0.20142   0.21637

 Mulliken charges:
               1
     1  C   -0.103552
     2  O   -0.245804
     3  C   -0.099320
     4  C   -0.066466
     5  C    0.032444
     6  O   -0.266922
     7  C    0.060762
     8  C   -0.261077
     9  C   -0.021655
    10  H    0.109309
    11  H    0.085559
    12  H    0.091717
    13  H    0.106531
    14  H    0.086259
    15  H    0.094398
    16  H    0.092992
    17  H    0.108788
    18  H    0.112445
    19  H    0.083592
 Sum of Mulliken charges =   0.00000

 Dipole moment (field-independent basis, Debye):
    X=             -0.5087    Y=              0.0079    Z=             -0.0283  Tot=              0.5096
 Quadrupole moment (field-independent basis, Debye-Ang):
   XX=            -60.6617   YY=            -48.6169   ZZ=            -52.9012
   XY=              0.0955   XZ=             -6.0692   YZ=              0.2411

 Optimization completed.
    -- Stationary point found.
 Normal termination of Gaussian 09 at Mon Jan 27 11:16:06 2020.

 ----------------------------------------------------------------------
 #N Geom=AllCheck Guess=TCheck SCRF=Check GenChk RB3LYP/6-31G(2df,p) Fr
 eq
 ----------------------------------------------------------------------

 Structure from the checkpoint file:  "/scratch/puck/g09_fbc07007-1ab5-4776-b26d-0d21e79e0ac1/Gau-149629.chk"
 -----
 titel
 -----
 Charge =  0 Multiplicity = 1

                         Standard orientation:
 ---------------------------------------------------------------------
 Center     Atomic      Atomic             Coordinates (Angstroms)
 Number     Number       Type             X           Y           Z
 ---------------------------------------------------------------------
      1          6           0       -1.787604    0.877730    0.317268
      2          8           0       -1.998217   -0.119806   -0.672455
      3          6           0       -1.322886   -1.285982   -0.214993
      4          6           0       -0.085327   -0.803124    0.586421
      5          6           0        1.233133   -0.961985   -0.139956
      6          8           0        2.299954   -0.233074    0.482080
      7          6           0        1.670679    0.330994   -0.677724
      8          6           0        0.642400    1.391880   -0.355182
      9          6           0       -0.308056    0.743222    0.691059
     10          1           0       -2.050404    1.844840   -0.120431
     11          1           0       -2.434104    0.703660    1.193865
     12          1           0       -1.986162   -1.884518    0.427665
     13          1           0       -1.067711   -1.887302   -1.093556
     14          1           0       -0.046196   -1.282242    1.568255
     15          1           0        1.514060   -1.916294   -0.580637
     16          1           0        2.307956    0.419830   -1.554337
     17          1           0        1.101286    2.312558    0.018011
     18          1           0        0.093241    1.639785   -1.271437
     19          1           0       -0.099902    1.116317    1.694249
 ---------------------------------------------------------------------

 SCF Done:  E(RB3LYP) =  -423.187321483     A.U. after    1 cycles
