 Gaussian 09, Revision D.01,
 Gaussian 09:  ES64L-G09RevD.01 24-Apr-2013

 -----------------------------
 # b3lyp 6-31G(2df,p) opt Freq
 -----------------------------

 -----
 titel
 -----
 Symbolic Z-matrix:
 Charge =  0 Multiplicity = 1

 SCF Done:  E(RB3LYP) =  -423.111207945     A.U. after   13 cycles

 The electronic state is 1-A.
 Alpha  occ. eigenvalues --  -19.13768 -19.12844 -10.24032 -10.23973 -10.23738
 Alpha  occ. eigenvalues --  -10.22982 -10.20057 -10.19374 -10.19028  -1.05200
 Alpha  occ. eigenvalues --   -1.03391  -0.84238  -0.74358  -0.71185  -0.68659
 Alpha  occ. eigenvalues --   -0.60041  -0.56359  -0.55156  -0.51773  -0.49642
 Alpha  occ. eigenvalues --   -0.47442  -0.46675  -0.44615  -0.44091  -0.40584
 Alpha  occ. eigenvalues --   -0.38410  -0.37293  -0.34490  -0.33160  -0.32614
 Alpha  occ. eigenvalues --   -0.30476  -0.27749  -0.24602  -0.23405
 Alpha virt. eigenvalues --    0.07076   0.08829   0.09526   0.09937   0.11552
 Alpha virt. eigenvalues --    0.12041   0.13563   0.13985   0.15337   0.16517
 Alpha virt. eigenvalues --    0.17262   0.17470   0.18934   0.20979   0.21226

 Mulliken charges:
               1
     1  C   -0.061961
     2  C   -0.297594
     3  C    0.133364
     4  O   -0.293527
     5  C   -0.050987
     6  C   -0.150082
     7  C   -0.097931
     8  O   -0.289805
     9  C    0.094707
    10  H    0.099521
    11  H    0.106322
    12  H    0.111600
    13  H    0.109170
    14  H    0.066209
    15  H    0.089320
    16  H    0.099980
    17  H    0.106523
    18  H    0.111481
    19  H    0.113691
 Sum of Mulliken charges =   0.00000

 Dipole moment (field-independent basis, Debye):
    X=             -0.8374    Y=              2.8524    Z=              0.7658  Tot=              3.0699
 Quadrupole moment (field-independent basis, Debye-Ang):
   XX=            -52.7423   YY=            -55.5803   ZZ=            -51.0741
   XY=              1.1934   XZ=              1.8482   YZ=             -1.1338

 Optimization completed.
    -- Stationary point found.
 Normal termination of Gaussian 09 at Mon Jan 27 11:24:38 2020.

 ----------------------------------------------------------------------
 #N Geom=AllCheck Guess=TCheck SCRF=Check GenChk RB3LYP/6-31G(2df,p) Fr
 eq
 ----------------------------------------------------------------------

 Structure from the checkpoint file:  "/scratch/puck/g09_822d513b-9a09-48bd-82fc-a5b0686675f6/Gau-61534.chk"
 -----
 titel
 -----
 Charge =  0 Multiplicity = 1

                         Standard orientation:
 ---------------------------------------------------------------------
 Center     Atomic      Atomic             Coordinates (Angstroms)
 Number     Number       Type             X           Y           Z
 ---------------------------------------------------------------------
      1          6           0       -2.982115   -0.167377   -0.310382
      2          6           0       -2.102795    1.077028   -0.084281
      3          6           0       -1.049671    0.061320    0.422662
      4          8           0       -1.892486   -1.051084    0.026590
      5          6           0        0.296339    0.031513   -0.235798
      6          6           0        1.412852    0.777716    0.480380
      7          6           0        2.701323    0.630210   -0.320878
      8          8           0        2.552538   -0.815736   -0.370280
      9          6           0        1.389060   -0.731362    0.453952
     10          1           0       -3.822972   -0.270671    0.388073
     11          1           0       -3.347376   -0.337232   -1.329543
     12          1           0       -1.806012    1.591671   -1.000350
     13          1           0       -2.461708    1.808540    0.640954
     14          1           0       -0.929063    0.079160    1.517137
     15          1           0        0.280706    0.016793   -1.324551
     16          1           0        1.236337    1.478598    1.285346
     17          1           0        2.739046    1.081422   -1.319558
     18          1           0        3.600348    0.901515    0.243886
     19          1           0        1.240325   -1.489531    1.214194
 ---------------------------------------------------------------------

 SCF Done:  E(RB3LYP) =  -423.111207945     A.U. after    1 cycles
