 Gaussian 09, Revision D.01,
 Gaussian 09:  ES64L-G09RevD.01 24-Apr-2013

 -----------------------------
 # b3lyp 6-31G(2df,p) opt Freq
 -----------------------------

 -----
 titel
 -----
 Symbolic Z-matrix:
 Charge =  0 Multiplicity = 1

 SCF Done:  E(RB3LYP) =  -423.164690985     A.U. after   14 cycles

 The electronic state is 1-A.
 Alpha  occ. eigenvalues --  -19.14859 -19.13084 -10.23927 -10.23364 -10.23095
 Alpha  occ. eigenvalues --  -10.22885 -10.18858 -10.18654 -10.18121  -1.07096
 Alpha  occ. eigenvalues --   -1.03413  -0.80187  -0.74500  -0.70901  -0.67098
 Alpha  occ. eigenvalues --   -0.61597  -0.57828  -0.53992  -0.51018  -0.48536
 Alpha  occ. eigenvalues --   -0.47470  -0.46322  -0.43598  -0.41092  -0.38540
 Alpha  occ. eigenvalues --   -0.38044  -0.37127  -0.36650  -0.34890  -0.32083
 Alpha  occ. eigenvalues --   -0.30926  -0.28789  -0.27175  -0.24074
 Alpha virt. eigenvalues --    0.07226   0.09223   0.10442   0.11114   0.12221
 Alpha virt. eigenvalues --    0.12559   0.14190   0.15429   0.15857   0.16614
 Alpha virt. eigenvalues --    0.17522   0.17812   0.19575   0.20467   0.21052

 Mulliken charges:
               1
     1  C   -0.069985
     2  C   -0.356643
     3  C    0.440376
     4  C   -0.285457
     5  C   -0.250067
     6  C    0.053575
     7  O   -0.268357
     8  C   -0.011314
     9  O   -0.327853
    10  H    0.104205
    11  H    0.103125
    12  H    0.116450
    13  H    0.112419
    14  H    0.118196
    15  H    0.108151
    16  H    0.108385
    17  H    0.115707
    18  H    0.095126
    19  H    0.093962
 Sum of Mulliken charges =   0.00000

 Dipole moment (field-independent basis, Debye):
    X=              0.7747    Y=              0.3873    Z=              0.1784  Tot=              0.8843
 Quadrupole moment (field-independent basis, Debye-Ang):
   XX=            -50.2491   YY=            -53.3334   ZZ=            -54.2648
   XY=             -3.8287   XZ=              4.1692   YZ=              3.1941

 Optimization completed.
    -- Stationary point found.
 Normal termination of Gaussian 09 at Mon Jan 27 11:18:52 2020.

 ----------------------------------------------------------------------
 #N Geom=AllCheck Guess=TCheck SCRF=Check GenChk RB3LYP/6-31G(2df,p) Fr
 eq
 ----------------------------------------------------------------------

 Structure from the checkpoint file:  "/scratch/puck/g09_8e68ad94-0ef7-4223-9088-a2cb72fa7c5e/Gau-32181.chk"
 -----
 titel
 -----
 Charge =  0 Multiplicity = 1

                         Standard orientation:
 ---------------------------------------------------------------------
 Center     Atomic      Atomic             Coordinates (Angstroms)
 Number     Number       Type             X           Y           Z
 ---------------------------------------------------------------------
      1          6           0        2.491537   -0.025470   -0.315106
      2          6           0        1.676606   -0.471624    0.913036
      3          6           0        0.452675    0.037129    0.120648
      4          6           0       -0.414791    1.163629    0.710347
      5          6           0       -1.732900    1.151988   -0.100633
      6          6           0       -1.857429   -0.291358   -0.549241
      7          8           0       -1.623931   -1.237019    0.506947
      8          6           0       -0.558287   -0.959543   -0.412014
      9          8           0        1.309385    0.479159   -0.973040
     10          1           0        3.231948    0.764558   -0.143501
     11          1           0        2.963775   -0.832500   -0.888707
     12          1           0        1.681331   -1.540340    1.133900
     13          1           0        1.880435    0.084106    1.830193
     14          1           0       -0.617324    0.938458    1.760842
     15          1           0        0.112622    2.118413    0.659547
     16          1           0       -2.593200    1.487970    0.485865
     17          1           0       -1.661364    1.793340   -0.986362
     18          1           0       -2.595557   -0.593877   -1.287295
     19          1           0       -0.230765   -1.785750   -1.037953
 ---------------------------------------------------------------------

 SCF Done:  E(RB3LYP) =  -423.164690985     A.U. after    1 cycles
