 Gaussian 09, Revision D.01,
 Gaussian 09:  ES64L-G09RevD.01 24-Apr-2013

 -----------------------------
 # b3lyp 6-31G(2df,p) opt Freq
 -----------------------------

 -----
 titel
 -----
 Symbolic Z-matrix:
 Charge =  0 Multiplicity = 1

 SCF Done:  E(RB3LYP) =  -423.213973839     A.U. after   14 cycles
 Optimization completed.
    -- Stationary point found.
 Normal termination of Gaussian 09 at Mon Jan 27 10:22:18 2020.

 ----------------------------------------------------------------------
 #N Geom=AllCheck Guess=TCheck SCRF=Check GenChk RB3LYP/6-31G(2df,p) Fr
 eq
 ----------------------------------------------------------------------

 Structure from the checkpoint file:  "/scratch/puck/g09_13625a55-fcbd-452b-b3cd-935ad6f8113a/Gau-19676.chk"
 -----
 titel
 -----
 Charge =  0 Multiplicity = 1

                         Standard orientation:
 ---------------------------------------------------------------------
 Center     Atomic      Atomic             Coordinates (Angstroms)
 Number     Number       Type             X           Y           Z
 ---------------------------------------------------------------------
      1          6           0       -3.078923   -0.232301   -0.000152
      2          8           0       -1.941785    0.610229    0.000199
      3          6           0       -0.752056   -0.035443    0.000090
      4          6           0       -0.465970   -1.366606    0.000134
      5          8           0        0.894655   -1.531129   -0.000032
      6          6           0        1.460250   -0.291288   -0.000094
      7          6           0        2.946856   -0.250119   -0.000011
      8          6           0        0.499142    0.676047   -0.000024
      9          6           0        0.645180    2.164416   -0.000041
     10          1           0       -3.096845   -0.871831    0.892942
     11          1           0       -3.955480    0.417357   -0.000361
     12          1           0       -3.096357   -0.871753   -0.893308
     13          1           0       -1.054297   -2.266338   -0.000055
     14          1           0        3.297919    0.783822   -0.000631
     15          1           0        3.361202   -0.749772    0.883264
     16          1           0        3.361337   -0.751008   -0.882494
     17          1           0        1.696299    2.464417    0.000164
     18          1           0        0.168343    2.612006   -0.879367
     19          1           0        0.168038    2.612062    0.879099
 ---------------------------------------------------------------------

 SCF Done:  E(RB3LYP) =  -423.213973839     A.U. after    1 cycles

 The electronic state is 1-A.
 Alpha  occ. eigenvalues --  -19.18392 -19.16604 -10.23423 -10.22184 -10.22130
 Alpha  occ. eigenvalues --  -10.20705 -10.18538 -10.17815 -10.17267  -1.08844
 Alpha  occ. eigenvalues --   -1.05893  -0.80119  -0.76612  -0.71095  -0.69562
 Alpha  occ. eigenvalues --   -0.66584  -0.56742  -0.54285  -0.51513  -0.46831
 Alpha  occ. eigenvalues --   -0.46366  -0.44408  -0.44099  -0.41111  -0.40272
 Alpha  occ. eigenvalues --   -0.40003  -0.39032  -0.38904  -0.36688  -0.35295
 Alpha  occ. eigenvalues --   -0.33186  -0.32172  -0.22795  -0.19719
 Alpha virt. eigenvalues --    0.03379   0.09554   0.09613   0.10035   0.11620
 Alpha virt. eigenvalues --    0.13965   0.14508   0.15894   0.16902   0.16933
 Alpha virt. eigenvalues --    0.17860   0.18006   0.20434   0.22668   0.22998

 Mulliken charges:
               1
     1  C   -0.249114
     2  O   -0.257062
     3  C    0.278968
     4  C   -0.192635
     5  O   -0.197068
     6  C    0.304679
     7  C   -0.490310
     8  C    0.015589
     9  C   -0.505723
    10  H    0.121137
    11  H    0.133403
    12  H    0.121136
    13  H    0.126955
    14  H    0.132661
    15  H    0.136703
    16  H    0.136707
    17  H    0.119489
    18  H    0.132239
    19  H    0.132245
 Sum of Mulliken charges =   0.00000

 Dipole moment (field-independent basis, Debye):
    X=             -0.5445    Y=              0.0026    Z=             -0.0005  Tot=              0.5445
 Quadrupole moment (field-independent basis, Debye-Ang):
   XX=            -44.6551   YY=            -53.2135   ZZ=            -54.3817
   XY=              3.9476   XZ=              0.0013   YZ=              0.0002

  Exact polarizability: 105.061  -0.420  83.701   0.001  -0.001  51.569
 Approx polarizability: 138.939  -7.383 134.959  -0.001  -0.001  78.881

                      1                      2                      3
                      A                      A                      A
 Frequencies --     82.5926                90.5116               114.8744
 Red. masses --      1.3086                 1.6524                 1.1028
 Frc consts  --      0.0053                 0.0080                 0.0086
 IR Inten    --      1.1364                 2.5188                 0.5376

                      4                      5                      6
                      A                      A                      A
 Frequencies --    160.8895               184.6704               219.4003
 Red. masses --      2.4588                 3.0659                 1.1998
 Frc consts  --      0.0375                 0.0616                 0.0340
 IR Inten    --      0.4580                 3.4417                 0.0072

                      7                      8                      9
                      A                      A                      A
 Frequencies --    259.3528               279.7350               336.9349
 Red. masses --      2.5406                 3.1734                 3.1102
 Frc consts  --      0.1007                 0.1463                 0.2080
 IR Inten    --      0.3101                 2.5439                 0.7108

                     10                     11                     12
                      A                      A                      A
 Frequencies --    385.7493               511.1877               590.6615
 Red. masses --      6.6538                 3.8986                 4.0061
 Frc consts  --      0.5834                 0.6002                 0.8235
 IR Inten    --      0.5002                 0.0602                11.4610

                     13                     14                     15
                      A                      A                      A
 Frequencies --    613.5689               645.5263               703.2774
 Red. masses --      2.9240                 1.4665                 5.5835
 Frc consts  --      0.6486                 0.3601                 1.6271
 IR Inten    --      4.7451                20.3263                 7.5208

                     16                     17                     18
                      A                      A                      A
 Frequencies --    734.0927               738.5452               929.5741
 Red. masses --      4.1655                 5.6232                 2.5369
 Frc consts  --      1.3226                 1.8071                 1.2916
 IR Inten    --      3.6610                 0.1019                16.4611

                     19                     20                     21
                      A                      A                      A
 Frequencies --    968.9160              1057.8975              1058.4909
 Red. masses --      1.5860                 1.4164                 3.7826
 Frc consts  --      0.8773                 0.9340                 2.4970
 IR Inten    --      4.9839                 1.1232                32.4028

                     22                     23                     24
                      A                      A                      A
 Frequencies --   1067.6360              1145.8437              1160.1676
 Red. masses --      1.4962                 2.9591                 2.8592
 Frc consts  --      1.0048                 2.2890                 2.2675
 IR Inten    --      0.0072                30.3336                37.5630

                     25                     26                     27
                      A                      A                      A
 Frequencies --   1182.4481              1192.9879              1227.5842
 Red. masses --      1.2780                 2.5548                 2.0989
 Frc consts  --      1.0528                 2.1423                 1.8636
 IR Inten    --      1.4159                67.0692                47.0016

                     28                     29                     30
                      A                      A                      A
 Frequencies --   1258.5091              1321.5830              1407.2310
 Red. masses --      2.8449                 2.6107                 1.3592
 Frc consts  --      2.6548                 2.6865                 1.5859
 IR Inten    --      1.4169                93.1784                12.2924

                     31                     32                     33
                      A                      A                      A
 Frequencies --   1425.1541              1444.9260              1472.2472
 Red. masses --      1.2420                 3.2749                 1.0428
 Frc consts  --      1.4863                 4.0284                 1.3317
 IR Inten    --      0.9146                35.9843                 2.3961

                     34                     35                     36
                      A                      A                      A
 Frequencies --   1476.2329              1479.5706              1482.3610
 Red. masses --      1.3572                 1.0423                 1.0469
 Frc consts  --      1.7426                 1.3444                 1.3554
 IR Inten    --      0.3625                 6.3450                 5.9064

                     37                     38                     39
                      A                      A                      A
 Frequencies --   1490.1523              1497.3535              1508.8936
 Red. masses --      1.0758                 1.1081                 1.0650
 Frc consts  --      1.4075                 1.4638                 1.4286
 IR Inten    --      3.5046                13.6784                 8.2568

                     40                     41                     42
                      A                      A                      A
 Frequencies --   1618.2256              1689.5825              2997.0934
 Red. masses --      5.7197                 7.5843                 1.0347
 Frc consts  --      8.8248                12.7562                 5.4763
 IR Inten    --     47.1058                53.1522                49.1861

                     43                     44                     45
                      A                      A                      A
 Frequencies --   3029.1274              3031.2013              3052.3316
 Red. masses --      1.0383                 1.0376                 1.1044
 Frc consts  --      5.6131                 5.6170                 6.0622
 IR Inten    --     39.7695                26.1446                40.7000

                     46                     47                     48
                      A                      A                      A
 Frequencies --   3077.9416              3079.0352              3113.5965
 Red. masses --      1.1002                 1.0997                 1.0994
 Frc consts  --      6.1412                 6.1429                 6.2794
 IR Inten    --     11.1789                22.6978                20.7095

                     49                     50                     51
                      A                      A                      A
 Frequencies --   3130.9746              3135.3357              3293.4482
 Red. masses --      1.0969                 1.0988                 1.0975
 Frc consts  --      6.3355                 6.3643                 7.0140
 IR Inten    --     12.9643                22.3904                 1.6597

 - Thermochemistry -
 -------------------
 Temperature   298.150 Kelvin.  Pressure   1.00000 Atm.
 Atom     1 has atomic number  6 and mass  12.00000

 Molecular mass:   126.06808 amu.
 Principal axes and moments of inertia in atomic units:
                           1         2         3
     Eigenvalues --   581.564141471.221352018.95194
           X            0.99939   0.03485   0.00001
           Y           -0.03485   0.99939   0.00000
           Z           -0.00001   0.00000   1.00000
 This molecule is an asymmetric top.
 Rotational symmetry number  1.
 Warning -- assumption of classical behavior for rotation
           may cause significant error
 Rotational temperatures (Kelvin)      0.14893     0.05887     0.04290
 Rotational constants (GHZ):           3.10325     1.22670     0.89390
 Zero-point vibrational energy     413640.1 (Joules/Mol)
                                   98.86236 (Kcal/Mol)
 Warning -- explicit consideration of  13 degrees of freedom as
           vibrations may cause significant error
 Vibrational temperatures:    118.83   130.23   165.28   231.48   265.70
          (Kelvin)            315.67   373.15   402.48   484.77   555.01
                              735.48   849.83   882.79   928.77  1011.86
                             1056.19  1062.60  1337.45  1394.05  1522.08
                             1522.93  1536.09  1648.61  1669.22  1701.28
                             1716.44  1766.22  1810.71  1901.46  2024.69
                             2050.48  2078.92  2118.23  2123.97  2128.77
                             2132.78  2143.99  2154.35  2170.96  2328.26
                             2430.93  4312.14  4358.23  4361.22  4391.62
                             4428.47  4430.04  4479.77  4504.77  4511.04
                             4738.53

 Zero-point correction=                           0.157547 (Hartree/Particle)
 Thermal correction to Energy=                    0.167300
 Thermal correction to Enthalpy=                  0.168244
 Thermal correction to Gibbs Free Energy=         0.122702
 Sum of electronic and zero-point Energies=           -423.056427
 Sum of electronic and thermal Energies=              -423.046674
 Sum of electronic and thermal Enthalpies=            -423.045730
 Sum of electronic and thermal Free Energies=         -423.091271

                     E (Thermal)             CV                S
                      KCal/Mol        Cal/Mol-Kelvin    Cal/Mol-Kelvin
 Total                  104.982             34.645             95.850
 Electronic               0.000              0.000              0.000
 Translational            0.889              2.981             40.409
 Rotational               0.889              2.981             28.937
 Vibrational            103.205             28.683             26.505
 Vibration     1          0.600              1.961              3.828
 Vibration     2          0.602              1.956              3.649
 Vibration     3          0.608              1.937              3.185
 Vibration     4          0.622              1.890              2.539
 Vibration     5          0.631              1.861              2.281
 Vibration     6          0.647              1.812              1.964
 Vibration     7          0.668              1.747              1.666
 Vibration     8          0.680              1.711              1.535
 Vibration     9          0.718              1.602              1.227
 Vibration    10          0.754              1.501              1.017
 Vibration    11          0.866              1.225              0.631
 Vibration    12          0.948              1.052              0.466
 Vibration    13          0.973              1.003              0.427

 Optimization completed.
    -- Stationary point found.
 Normal termination of Gaussian 09 at Mon Jan 27 11:03:36 2020.
