 Gaussian 09, Revision D.01,
 Gaussian 09:  ES64L-G09RevD.01 24-Apr-2013

 -----------------------------
 # b3lyp 6-31G(2df,p) opt Freq
 -----------------------------

 -----
 titel
 -----
 Symbolic Z-matrix:
 Charge =  0 Multiplicity = 1

 SCF Done:  E(RB3LYP) =  -423.126057175     A.U. after   13 cycles

 The electronic state is 1-A.
 Alpha  occ. eigenvalues --  -19.14521 -19.13090 -10.23932 -10.23353 -10.23154
 Alpha  occ. eigenvalues --  -10.22751 -10.19058 -10.18935 -10.18822  -1.07435
 Alpha  occ. eigenvalues --   -1.03363  -0.79967  -0.74835  -0.71588  -0.65523
 Alpha  occ. eigenvalues --   -0.61804  -0.56908  -0.54058  -0.51782  -0.48843
 Alpha  occ. eigenvalues --   -0.46063  -0.45368  -0.44897  -0.42126  -0.39336
 Alpha  occ. eigenvalues --   -0.37560  -0.36332  -0.35367  -0.34327  -0.32456
 Alpha  occ. eigenvalues --   -0.30639  -0.28361  -0.25399  -0.24417
 Alpha virt. eigenvalues --    0.06275   0.09159   0.11082   0.11581   0.12252
 Alpha virt. eigenvalues --    0.12424   0.13032   0.14870   0.15672   0.15951
 Alpha virt. eigenvalues --    0.17024   0.17836   0.18807   0.19899   0.22213

 Mulliken charges:
               1
     1  C   -0.056274
     2  C   -0.293923
     3  C    0.000666
     4  O   -0.285458
     5  C    0.431748
     6  C   -0.309104
     7  C   -0.237648
     8  C   -0.030945
     9  O   -0.292969
    10  H    0.114116
    11  H    0.100611
    12  H    0.109815
    13  H    0.124414
    14  H    0.075600
    15  H    0.107178
    16  H    0.108652
    17  H    0.107673
    18  H    0.112071
    19  H    0.113777
 Sum of Mulliken charges =   0.00000

 Dipole moment (field-independent basis, Debye):
    X=              0.1938    Y=              1.5144    Z=             -0.5296  Tot=              1.6160
 Quadrupole moment (field-independent basis, Debye-Ang):
   XX=            -48.5283   YY=            -52.0645   ZZ=            -55.2425
   XY=             -1.9470   XZ=             -3.3407   YZ=             -0.4193

 Optimization completed.
    -- Stationary point found.
 Normal termination of Gaussian 09 at Mon Jan 27 11:14:33 2020.

 ----------------------------------------------------------------------
 #N Geom=AllCheck Guess=TCheck SCRF=Check GenChk RB3LYP/6-31G(2df,p) Fr
 eq
 ----------------------------------------------------------------------

 Structure from the checkpoint file:  "/scratch/puck/g09_dc00998b-b52d-49cb-8852-4622aa4d2aaf/Gau-68669.chk"
 -----
 titel
 -----
 Charge =  0 Multiplicity = 1

                         Standard orientation:
 ---------------------------------------------------------------------
 Center     Atomic      Atomic             Coordinates (Angstroms)
 Number     Number       Type             X           Y           Z
 ---------------------------------------------------------------------
      1          6           0       -2.536676   -0.420641    0.196973
      2          6           0       -1.888246    0.945070    0.492630
      3          6           0       -0.841223    0.509664   -0.565764
      4          8           0       -1.564440   -0.710724   -0.833232
      5          6           0        0.539354    0.234840   -0.065240
      6          6           0        1.800663    1.120640   -0.106058
      7          6           0        2.659656   -0.192967   -0.159048
      8          6           0        1.350879   -0.994111   -0.111843
      9          8           0        0.667455   -0.606918    1.089350
     10          1           0       -2.485381   -1.148599    1.013998
     11          1           0       -3.556397   -0.395083   -0.203949
     12          1           0       -2.486560    1.812744    0.212402
     13          1           0       -1.496081    1.074404    1.501468
     14          1           0       -0.784883    1.147463   -1.458378
     15          1           0        1.883998    1.711218   -1.021772
     16          1           0        1.939592    1.768713    0.762148
     17          1           0        3.198829   -0.301398   -1.102936
     18          1           0        3.341870   -0.372868    0.674914
     19          1           0        1.114445   -1.970443   -0.516735
 ---------------------------------------------------------------------

 SCF Done:  E(RB3LYP) =  -423.126057175     A.U. after    1 cycles
