 Gaussian 09, Revision D.01,
 Gaussian 09:  ES64L-G09RevD.01 24-Apr-2013

 -----------------------------
 # b3lyp 6-31G(2df,p) opt Freq
 -----------------------------

 -----
 titel
 -----
 Symbolic Z-matrix:
 Charge =  0 Multiplicity = 1

 SCF Done:  E(RB3LYP) =  -423.107517609     A.U. after   13 cycles

 The electronic state is 1-A.
 Alpha  occ. eigenvalues --  -19.15050 -19.13274 -10.24008 -10.23467 -10.23352
 Alpha  occ. eigenvalues --  -10.23289 -10.19668 -10.19480 -10.19452  -1.07027
 Alpha  occ. eigenvalues --   -1.04642  -0.84228  -0.74978  -0.69480  -0.66276
 Alpha  occ. eigenvalues --   -0.60772  -0.58082  -0.54742  -0.51620  -0.49622
 Alpha  occ. eigenvalues --   -0.48276  -0.46865  -0.45172  -0.41973  -0.39990
 Alpha  occ. eigenvalues --   -0.38521  -0.37798  -0.36463  -0.33513  -0.32067
 Alpha  occ. eigenvalues --   -0.30288  -0.27510  -0.26293  -0.22897
 Alpha virt. eigenvalues --    0.08028   0.09636   0.10370   0.10841   0.11829
 Alpha virt. eigenvalues --    0.12098   0.12695   0.14200   0.14816   0.15920
 Alpha virt. eigenvalues --    0.16307   0.16870   0.18558   0.19031   0.21518

 Mulliken charges:
               1
     1  C   -0.277693
     2  C    0.111747
     3  C   -0.183142
     4  O   -0.232084
     5  C   -0.036483
     6  C   -0.156213
     7  C   -0.095684
     8  O   -0.289833
     9  C    0.111361
    10  H    0.106961
    11  H    0.103003
    12  H    0.094332
    13  H    0.111671
    14  H    0.115565
    15  H    0.086763
    16  H    0.096364
    17  H    0.102897
    18  H    0.109130
    19  H    0.121336
 Sum of Mulliken charges =   0.00000

 Dipole moment (field-independent basis, Debye):
    X=              0.9391    Y=              2.9893    Z=             -0.2777  Tot=              3.1456
 Quadrupole moment (field-independent basis, Debye-Ang):
   XX=            -49.2989   YY=            -57.0437   ZZ=            -51.0571
   XY=             -0.8336   XZ=              1.8478   YZ=              0.2301

 Optimization completed.
    -- Stationary point found.
 Normal termination of Gaussian 09 at Mon Jan 27 11:13:38 2020.

 ----------------------------------------------------------------------
 #N Geom=AllCheck Guess=TCheck SCRF=Check GenChk RB3LYP/6-31G(2df,p) Fr
 eq
 ----------------------------------------------------------------------

 Structure from the checkpoint file:  "/scratch/puck/g09_b1249222-1922-4977-9e4c-ca286b8220f6/Gau-15873.chk"
 -----
 titel
 -----
 Charge =  0 Multiplicity = 1

                         Standard orientation:
 ---------------------------------------------------------------------
 Center     Atomic      Atomic             Coordinates (Angstroms)
 Number     Number       Type             X           Y           Z
 ---------------------------------------------------------------------
      1          6           0        0.848702    1.035532    0.021097
      2          6           0        1.977675    0.171222    0.535327
      3          6           0        3.226783   -0.009279   -0.213281
      4          8           0        2.231945   -1.035666   -0.189573
      5          6           0       -0.514276    0.516030    0.438222
      6          6           0       -1.670871    0.783744   -0.508668
      7          6           0       -2.941987    0.170130    0.065442
      8          8           0       -2.286181   -1.113458    0.257434
      9          6           0       -1.098853   -0.609940   -0.359219
     10          1           0        0.984423    2.062711    0.385317
     11          1           0        0.915242    1.075230   -1.072869
     12          1           0        2.014839    0.045584    1.619264
     13          1           0        3.354552    0.495685   -1.170314
     14          1           0        4.150897   -0.240507    0.314517
     15          1           0       -0.711060    0.517657    1.510056
     16          1           0       -1.612905    1.492812   -1.324008
     17          1           0       -3.332366    0.584540    1.003050
     18          1           0       -3.754151    0.078326   -0.664872
     19          1           0       -0.538622   -1.263676   -1.016551
 ---------------------------------------------------------------------

 SCF Done:  E(RB3LYP) =  -423.107517609     A.U. after    1 cycles
