 Gaussian 09, Revision D.01,
 Gaussian 09:  ES64L-G09RevD.01 24-Apr-2013

 -----------------------------
 # b3lyp 6-31G(2df,p) opt Freq
 -----------------------------

 -----
 titel
 -----
 Symbolic Z-matrix:
 Charge =  0 Multiplicity = 1

 SCF Done:  E(RB3LYP) =  -423.173201754     A.U. after   14 cycles

 The electronic state is 1-A.
 Alpha  occ. eigenvalues --  -19.13513 -19.13198 -10.23551 -10.23551 -10.22945
 Alpha  occ. eigenvalues --  -10.22944 -10.18579 -10.17903 -10.17885  -1.06176
 Alpha  occ. eigenvalues --   -1.01789  -0.76997  -0.75937  -0.74454  -0.64422
 Alpha  occ. eigenvalues --   -0.62761  -0.58068  -0.53532  -0.51105  -0.48850
 Alpha  occ. eigenvalues --   -0.47671  -0.43090  -0.42527  -0.42454  -0.39326
 Alpha  occ. eigenvalues --   -0.36996  -0.35927  -0.34368  -0.34364  -0.33125
 Alpha  occ. eigenvalues --   -0.30843  -0.29830  -0.28191  -0.22650
 Alpha virt. eigenvalues --    0.08138   0.09243   0.11857   0.12497   0.12774
 Alpha virt. eigenvalues --    0.14547   0.15082   0.15420   0.16756   0.17411
 Alpha virt. eigenvalues --    0.17707   0.18597   0.18839   0.19604   0.20694

 Mulliken charges:
               1
     1  C   -0.224450
     2  C    0.057611
     3  O   -0.290895
     4  C    0.057612
     5  C    0.060901
     6  C   -0.204069
     7  C   -0.204070
     8  C    0.060901
     9  O   -0.264495
    10  H    0.106146
    11  H    0.116507
    12  H    0.077482
    13  H    0.077482
    14  H    0.077233
    15  H    0.111700
    16  H    0.097735
    17  H    0.111701
    18  H    0.097735
    19  H    0.077233
 Sum of Mulliken charges =   0.00000

 Dipole moment (field-independent basis, Debye):
    X=             -0.2183    Y=              0.0000    Z=              0.1675  Tot=              0.2752
 Quadrupole moment (field-independent basis, Debye-Ang):
   XX=            -51.4673   YY=            -48.1057   ZZ=            -58.6635
   XY=              0.0000   XZ=             -1.8247   YZ=              0.0000

 Optimization completed.
    -- Stationary point found.
 Normal termination of Gaussian 09 at Mon Jan 27 11:19:22 2020.

 ----------------------------------------------------------------------
 #N Geom=AllCheck Guess=TCheck SCRF=Check GenChk RB3LYP/6-31G(2df,p) Fr
 eq
 ----------------------------------------------------------------------

 Structure from the checkpoint file:  "/scratch/puck/g09_6af78324-b2f4-4ce6-a831-277818013b11/Gau-42031.chk"
 -----
 titel
 -----
 Charge =  0 Multiplicity = 1

                         Standard orientation:
 ---------------------------------------------------------------------
 Center     Atomic      Atomic             Coordinates (Angstroms)
 Number     Number       Type             X           Y           Z
 ---------------------------------------------------------------------
      1          6           0       -1.875416    0.000002    0.475834
      2          6           0       -0.954717   -0.997485   -0.265609
      3          8           0       -0.794846   -0.000005   -1.323878
      4          6           0       -0.954717    0.997482   -0.265617
      5          6           0        0.407026    1.098512    0.485785
      6          6           0        1.585805    0.780801   -0.465344
      7          6           0        1.585805   -0.780802   -0.465344
      8          6           0        0.407029   -1.098510    0.485791
      9          8           0        0.459132    0.000003    1.409172
     10          1           0       -2.876903    0.000005    0.045364
     11          1           0       -1.898513    0.000006    1.563718
     12          1           0       -1.330336   -1.951205   -0.643569
     13          1           0       -1.330338    1.951199   -0.643581
     14          1           0        0.501330    2.025958    1.054465
     15          1           0        1.443153    1.194028   -1.464812
     16          1           0        2.513976    1.178390   -0.048286
     17          1           0        1.443135   -1.194026   -1.464811
     18          1           0        2.513981   -1.178393   -0.048302
     19          1           0        0.501330   -2.025952    1.054477
 ---------------------------------------------------------------------

 SCF Done:  E(RB3LYP) =  -423.173201754     A.U. after    1 cycles
