 Gaussian 09, Revision D.01,
 Gaussian 09:  ES64L-G09RevD.01 24-Apr-2013

 -----------------------------
 # b3lyp 6-31G(2df,p) opt Freq
 -----------------------------

 -----
 titel
 -----
 Symbolic Z-matrix:
 Charge =  0 Multiplicity = 1

 SCF Done:  E(RB3LYP) =  -423.222837569     A.U. after   14 cycles
 Optimization completed.
    -- Stationary point found.
 Normal termination of Gaussian 09 at Mon Jan 27 10:22:28 2020.

 ----------------------------------------------------------------------
 #N Geom=AllCheck Guess=TCheck SCRF=Check GenChk RB3LYP/6-31G(2df,p) Fr
 eq
 ----------------------------------------------------------------------

 Structure from the checkpoint file:  "/scratch/puck/g09_137cbdac-9fde-4746-88b9-970502d04047/Gau-19674.chk"
 -----
 titel
 -----
 Charge =  0 Multiplicity = 1

                         Standard orientation:
 ---------------------------------------------------------------------
 Center     Atomic      Atomic             Coordinates (Angstroms)
 Number     Number       Type             X           Y           Z
 ---------------------------------------------------------------------
      1          6           0       -2.868999    0.447318    0.220658
      2          6           0       -1.477353   -0.045396    0.043842
      3          6           0       -0.275251    0.567599   -0.146235
      4          6           0        0.018873    2.033475   -0.242346
      5          6           0        0.702555   -0.495091   -0.243669
      6          6           0        2.179838   -0.341705   -0.417409
      7          8           0        2.790230    0.375875    0.656478
      8          6           0        0.008655   -1.653557   -0.099784
      9          8           0       -1.314750   -1.406432    0.070719
     10          1           0       -3.301829    0.095052    1.163942
     11          1           0       -2.885448    1.539161    0.225040
     12          1           0       -3.524480    0.102651   -0.587706
     13          1           0        0.876176    2.293179    0.385425
     14          1           0        0.274899    2.326831   -1.268224
     15          1           0       -0.835801    2.640749    0.067601
     16          1           0        2.643779   -1.331277   -0.548620
     17          1           0        2.412031    0.243895   -1.313901
     18          1           0        2.507665   -0.049509    1.473109
     19          1           0        0.299258   -2.692138   -0.104573
 ---------------------------------------------------------------------

 SCF Done:  E(RB3LYP) =  -423.222837569     A.U. after    1 cycles

 The electronic state is 1-A.
 Alpha  occ. eigenvalues --  -19.19330 -19.13335 -10.23039 -10.22480 -10.22235
 Alpha  occ. eigenvalues --  -10.18892 -10.17820 -10.17793 -10.17620  -1.09696
 Alpha  occ. eigenvalues --   -1.01226  -0.80963  -0.77709  -0.71746  -0.67732
 Alpha  occ. eigenvalues --   -0.66814  -0.56635  -0.53989  -0.50500  -0.48254
 Alpha  occ. eigenvalues --   -0.45855  -0.43568  -0.42835  -0.40526  -0.40366
 Alpha  occ. eigenvalues --   -0.40031  -0.39484  -0.38995  -0.36811  -0.34644
 Alpha  occ. eigenvalues --   -0.32625  -0.27345  -0.25249  -0.21130
 Alpha virt. eigenvalues --    0.02164   0.05824   0.09466   0.10576   0.12293
 Alpha virt. eigenvalues --    0.13223   0.14513   0.15097   0.16325   0.17775
 Alpha virt. eigenvalues --    0.18028   0.19823   0.21842   0.22518   0.22792

 Mulliken charges:
               1
     1  C   -0.490773
     2  C    0.279091
     3  C    0.065601
     4  C   -0.513410
     5  C    0.155166
     6  C   -0.179790
     7  O   -0.411594
     8  C   -0.135905
     9  O   -0.186813
    10  H    0.136653
    11  H    0.134643
    12  H    0.137423
    13  H    0.145853
    14  H    0.126729
    15  H    0.118116
    16  H    0.092098
    17  H    0.114442
    18  H    0.280184
    19  H    0.132284
 Sum of Mulliken charges =   0.00000

 Dipole moment (field-independent basis, Debye):
    X=             -0.9138    Y=             -0.3626    Z=              0.2002  Tot=              1.0033
 Quadrupole moment (field-independent basis, Debye-Ang):
   XX=            -55.6318   YY=            -51.3691   ZZ=            -51.5578
   XY=             -5.5199   XZ=             -0.3863   YZ=             -0.9306

  Exact polarizability:  98.733  -0.664  84.697  -4.279  -0.961  55.087
 Approx polarizability: 139.426   7.735 131.640  -6.882  -2.392  85.190

                      1                      2                      3
                      A                      A                      A
 Frequencies --     89.7865               104.5630               120.3500
 Red. masses --      2.9001                 1.1269                 3.3522
 Frc consts  --      0.0138                 0.0073                 0.0286
 IR Inten    --      2.0256                 0.6412                 0.9217

                      4                      5                      6
                      A                      A                      A
 Frequencies --    136.2166               202.3153               248.0893
 Red. masses --      1.0257                 3.1488                 2.4496
 Frc consts  --      0.0112                 0.0759                 0.0888
 IR Inten    --      0.1128                 3.1445                 7.0490

                      7                      8                      9
                      A                      A                      A
 Frequencies --    271.1614               285.4391               357.8961
 Red. masses --      2.4049                 2.9274                 1.2794
 Frc consts  --      0.1042                 0.1405                 0.0966
 IR Inten    --      1.9729                 8.2212               109.1749

                     10                     11                     12
                      A                      A                      A
 Frequencies --    418.4891               459.8801               587.5060
 Red. masses --      4.0963                 3.1262                 4.1990
 Frc consts  --      0.4227                 0.3895                 0.8539
 IR Inten    --      1.8307                 7.9111                 4.8873

                     13                     14                     15
                      A                      A                      A
 Frequencies --    632.3517               685.0825               693.4104
 Red. masses --      4.1782                 4.0841                 3.4835
 Frc consts  --      0.9844                 1.1294                 0.9868
 IR Inten    --      4.1925                 3.9466                 2.7075

                     16                     17                     18
                      A                      A                      A
 Frequencies --    746.9730               782.8348               925.6906
 Red. masses --      1.5912                 3.5676                 2.5410
 Frc consts  --      0.5231                 1.2882                 1.2829
 IR Inten    --     22.2453                17.6932                13.5517

                     19                     20                     21
                      A                      A                      A
 Frequencies --    970.6939               973.0092              1038.5695
 Red. masses --      1.5144                 1.7131                 5.9222
 Frc consts  --      0.8407                 0.9556                 3.7636
 IR Inten    --      6.2254                38.1405                71.2793

                     22                     23                     24
                      A                      A                      A
 Frequencies --   1058.8518              1069.1904              1124.8397
 Red. masses --      1.4148                 1.5077                 2.2565
 Frc consts  --      0.9346                 1.0155                 1.6822
 IR Inten    --      2.6108                 0.6886                 2.2143

                     25                     26                     27
                      A                      A                      A
 Frequencies --   1172.4524              1184.6562              1197.3620
 Red. masses --      2.2172                 6.6522                 1.1993
 Frc consts  --      1.7958                 5.5005                 1.0131
 IR Inten    --     31.4454                17.9662                16.8954

                     28                     29                     30
                      A                      A                      A
 Frequencies --   1258.4296              1299.4461              1356.5474
 Red. masses --      2.8387                 2.1299                 1.3466
 Frc consts  --      2.6487                 2.1189                 1.4601
 IR Inten    --      4.4548                 6.2186                 5.6964

                     31                     32                     33
                      A                      A                      A
 Frequencies --   1405.4540              1418.9289              1427.6268
 Red. masses --      1.3819                 1.2487                 1.2574
 Frc consts  --      1.6083                 1.4813                 1.5100
 IR Inten    --      1.2653                34.4322                30.3582

                     34                     35                     36
                      A                      A                      A
 Frequencies --   1433.9751              1472.5819              1481.1425
 Red. masses --      3.3972                 1.0437                 1.0468
 Frc consts  --      4.1158                 1.3335                 1.3531
 IR Inten    --      0.4646                 3.1922                 4.8712

                     37                     38                     39
                      A                      A                      A
 Frequencies --   1490.0784              1501.2332              1507.7278
 Red. masses --      1.0830                 1.0793                 1.0835
 Frc consts  --      1.4168                 1.4331                 1.4512
 IR Inten    --      5.0182                 5.5950                 1.0407

                     40                     41                     42
                      A                      A                      A
 Frequencies --   1604.1376              1679.2051              2988.0620
 Red. masses --      5.9401                 7.3261                 1.0694
 Frc consts  --      9.0059                12.1712                 5.6254
 IR Inten    --     29.4876                 4.3043                66.0892

                     43                     44                     45
                      A                      A                      A
 Frequencies --   3026.4639              3029.4188              3060.9525
 Red. masses --      1.0426                 1.0392                 1.0927
 Frc consts  --      5.6264                 5.6191                 6.0323
 IR Inten    --     30.4317                31.4007                26.9987

                     46                     47                     48
                      A                      A                      A
 Frequencies --   3077.7353              3085.1195              3118.8302
 Red. masses --      1.1001                 1.0911                 1.1016
 Frc consts  --      6.1396                 6.1189                 6.3133
 IR Inten    --     15.8114                16.5879                13.6717

                     49                     50                     51
                      A                      A                      A
 Frequencies --   3130.3058              3264.1742              3808.9844
 Red. masses --      1.0970                 1.0977                 1.0661
 Frc consts  --      6.3335                 6.8908                 9.1133
 IR Inten    --     12.0565                 0.7712                15.3527

 - Thermochemistry -
 -------------------
 Temperature   298.150 Kelvin.  Pressure   1.00000 Atm.
 Atom     1 has atomic number  6 and mass  12.00000

 Molecular mass:   126.06808 amu.
 Principal axes and moments of inertia in atomic units:
                           1         2         3
     Eigenvalues --   624.965541475.957731963.73708
           X            0.99932  -0.03584  -0.00895
           Y            0.03579   0.99934  -0.00592
           Z            0.00916   0.00559   0.99994
 This molecule is an asymmetric top.
 Rotational symmetry number  1.
 Warning -- assumption of classical behavior for rotation
           may cause significant error
 Rotational temperatures (Kelvin)      0.13859     0.05868     0.04411
 Rotational constants (GHZ):           2.88775     1.22276     0.91903
 Zero-point vibrational energy     415488.3 (Joules/Mol)
                                   99.30409 (Kcal/Mol)
 Warning -- explicit consideration of  12 degrees of freedom as
           vibrations may cause significant error
 Vibrational temperatures:    129.18   150.44   173.16   195.99   291.09
          (Kelvin)            356.94   390.14   410.68   514.93   602.11
                              661.66   845.29   909.81   985.68   997.66
                             1074.73  1126.32  1331.86  1396.61  1399.94
                             1494.27  1523.45  1538.32  1618.39  1686.90
                             1704.45  1722.73  1810.60  1869.61  1951.77
                             2022.13  2041.52  2054.03  2063.17  2118.71
                             2131.03  2143.89  2159.94  2169.28  2307.99
                             2416.00  4299.15  4354.40  4358.65  4404.02
                             4428.17  4438.79  4487.30  4503.81  4696.41
                             5480.27

 Zero-point correction=                           0.158251 (Hartree/Particle)
 Thermal correction to Energy=                    0.167881
 Thermal correction to Enthalpy=                  0.168825
 Thermal correction to Gibbs Free Energy=         0.123654
 Sum of electronic and zero-point Energies=           -423.064586
 Sum of electronic and thermal Energies=              -423.054956
 Sum of electronic and thermal Enthalpies=            -423.054012
 Sum of electronic and thermal Free Energies=         -423.099183

                     E (Thermal)             CV                S
                      KCal/Mol        Cal/Mol-Kelvin    Cal/Mol-Kelvin
 Total                  105.347             34.679             95.070
 Electronic               0.000              0.000              0.000
 Translational            0.889              2.981             40.409
 Rotational               0.889              2.981             28.984
 Vibrational            103.570             28.718             25.678
 Vibration     1          0.602              1.956              3.665
 Vibration     2          0.605              1.946              3.367
 Vibration     3          0.609              1.932              3.095
 Vibration     4          0.614              1.917              2.856
 Vibration     5          0.639              1.837              2.112
 Vibration     6          0.662              1.766              1.744
 Vibration     7          0.675              1.726              1.589
 Vibration     8          0.683              1.701              1.501
 Vibration     9          0.733              1.559              1.131
 Vibration    10          0.781              1.430              0.897
 Vibration    11          0.818              1.339              0.766
 Vibration    12          0.945              1.058              0.472

 Optimization completed.
    -- Stationary point found.
 Normal termination of Gaussian 09 at Mon Jan 27 11:07:17 2020.
