 Gaussian 09, Revision D.01,
 Gaussian 09:  ES64L-G09RevD.01 24-Apr-2013

 -----------------------------
 # b3lyp 6-31G(2df,p) opt Freq
 -----------------------------

 -----
 titel
 -----
 Symbolic Z-matrix:
 Charge =  0 Multiplicity = 1

 SCF Done:  E(RB3LYP) =  -423.151167552     A.U. after   13 cycles

 The electronic state is 1-A.
 Alpha  occ. eigenvalues --  -19.15338 -19.14172 -10.23659 -10.23163 -10.23140
 Alpha  occ. eigenvalues --  -10.23095 -10.18992 -10.18678 -10.18359  -1.06056
 Alpha  occ. eigenvalues --   -1.02290  -0.88882  -0.74950  -0.72776  -0.63792
 Alpha  occ. eigenvalues --   -0.63152  -0.58535  -0.53511  -0.52060  -0.49784
 Alpha  occ. eigenvalues --   -0.47873  -0.45415  -0.44056  -0.41716  -0.41428
 Alpha  occ. eigenvalues --   -0.38417  -0.37637  -0.35912  -0.34097  -0.33053
 Alpha  occ. eigenvalues --   -0.30262  -0.27983  -0.25425  -0.22510
 Alpha virt. eigenvalues --    0.09233   0.10816   0.11563   0.11874   0.12608
 Alpha virt. eigenvalues --    0.13512   0.14458   0.15650   0.15875   0.16396
 Alpha virt. eigenvalues --    0.17633   0.17911   0.18923   0.20494   0.21541

 Mulliken charges:
               1
     1  C   -0.352565
     2  C   -0.148071
     3  C   -0.247268
     4  C    0.034510
     5  O   -0.269335
     6  C   -0.083519
     7  C   -0.094730
     8  O   -0.285976
     9  C    0.439163
    10  H    0.103905
    11  H    0.121940
    12  H    0.091054
    13  H    0.117760
    14  H    0.095304
    15  H    0.061195
    16  H    0.110719
    17  H    0.095775
    18  H    0.101680
    19  H    0.108459
 Sum of Mulliken charges =   0.00000

 Dipole moment (field-independent basis, Debye):
    X=             -0.3176    Y=             -0.1759    Z=              0.1708  Tot=              0.4012
 Quadrupole moment (field-independent basis, Debye-Ang):
   XX=            -48.5472   YY=            -57.1363   ZZ=            -51.9698
   XY=              1.2072   XZ=             -0.6834   YZ=             -1.3156

 Optimization completed.
    -- Stationary point found.
 Normal termination of Gaussian 09 at Mon Jan 27 11:16:00 2020.

 ----------------------------------------------------------------------
 #N Geom=AllCheck Guess=TCheck SCRF=Check GenChk RB3LYP/6-31G(2df,p) Fr
 eq
 ----------------------------------------------------------------------

 Structure from the checkpoint file:  "/scratch/puck/g09_4c0b162a-f633-476d-9bd6-ca436122f248/Gau-149628.chk"
 -----
 titel
 -----
 Charge =  0 Multiplicity = 1

                         Standard orientation:
 ---------------------------------------------------------------------
 Center     Atomic      Atomic             Coordinates (Angstroms)
 Number     Number       Type             X           Y           Z
 ---------------------------------------------------------------------
      1          6           0        1.883975   -0.978201   -0.487457
      2          6           0        1.610723   -0.150904    0.755903
      3          6           0        1.426872    1.316141    0.341655
      4          6           0        0.230643    0.904835   -0.565910
      5          8           0       -0.983310    1.361987    0.014247
      6          6           0       -2.038645    0.433218   -0.184348
      7          6           0       -1.702437   -0.906313    0.461106
      8          8           0       -0.538268   -1.478612   -0.137308
      9          6           0        0.486695   -0.559972   -0.213778
     10          1           0        2.450724   -0.567368   -1.321905
     11          1           0        2.062488   -2.032415   -0.297940
     12          1           0        1.866762   -0.512584    1.743716
     13          1           0        1.077159    1.969496    1.142119
     14          1           0        2.279452    1.778525   -0.166203
     15          1           0        0.264373    1.177884   -1.632219
     16          1           0       -2.930447    0.868062    0.277147
     17          1           0       -2.236453    0.286887   -1.258907
     18          1           0       -1.537130   -0.760258    1.538824
     19          1           0       -2.511258   -1.628055    0.316830
 ---------------------------------------------------------------------

 SCF Done:  E(RB3LYP) =  -423.151167552     A.U. after    1 cycles
