 Gaussian 09, Revision D.01,
 Gaussian 09:  ES64L-G09RevD.01 24-Apr-2013

 -----------------------------
 # b3lyp 6-31G(2df,p) opt Freq
 -----------------------------

 -----
 titel
 -----
 Symbolic Z-matrix:
 Charge =  0 Multiplicity = 1

 SCF Done:  E(RB3LYP) =  -423.154883389     A.U. after   13 cycles

 The electronic state is 1-A.
 Alpha  occ. eigenvalues --  -19.14145 -19.13459 -10.23431 -10.23340 -10.22960
 Alpha  occ. eigenvalues --  -10.22528 -10.20228 -10.19664 -10.18310  -1.04844
 Alpha  occ. eigenvalues --   -1.02450  -0.82869  -0.77052  -0.71522  -0.67419
 Alpha  occ. eigenvalues --   -0.61721  -0.57078  -0.54959  -0.50499  -0.49689
 Alpha  occ. eigenvalues --   -0.47226  -0.46815  -0.42523  -0.41615  -0.40054
 Alpha  occ. eigenvalues --   -0.39325  -0.36958  -0.36243  -0.34573  -0.32435
 Alpha  occ. eigenvalues --   -0.30366  -0.28434  -0.26510  -0.23423
 Alpha virt. eigenvalues --    0.08022   0.09571   0.10176   0.11153   0.12086
 Alpha virt. eigenvalues --    0.13973   0.14465   0.14596   0.15853   0.16487
 Alpha virt. eigenvalues --    0.17858   0.19833   0.20791   0.21156   0.21601

 Mulliken charges:
               1
     1  C   -0.281351
     2  C    0.055492
     3  O   -0.289498
     4  C   -0.162720
     5  C    0.288936
     6  C   -0.382738
     7  C   -0.069483
     8  O   -0.288803
     9  C    0.120973
    10  H    0.117767
    11  H    0.097757
    12  H    0.080868
    13  H    0.101690
    14  H    0.103115
    15  H    0.111888
    16  H    0.110190
    17  H    0.110172
    18  H    0.106325
    19  H    0.069420
 Sum of Mulliken charges =   0.00000

 Dipole moment (field-independent basis, Debye):
    X=             -1.3420    Y=              1.7515    Z=              0.6601  Tot=              2.3032
 Quadrupole moment (field-independent basis, Debye-Ang):
   XX=            -56.7385   YY=            -52.7388   ZZ=            -51.7844
   XY=             -2.0822   XZ=              0.4746   YZ=             -1.1814

 Optimization completed.
    -- Stationary point found.
 Normal termination of Gaussian 09 at Mon Jan 27 11:15:44 2020.

 ----------------------------------------------------------------------
 #N Geom=AllCheck Guess=TCheck SCRF=Check GenChk RB3LYP/6-31G(2df,p) Fr
 eq
 ----------------------------------------------------------------------

 Structure from the checkpoint file:  "/scratch/puck/g09_fd2f580e-bdc5-478f-94f8-0a7a0d7d2b22/Gau-68544.chk"
 -----
 titel
 -----
 Charge =  0 Multiplicity = 1

                         Standard orientation:
 ---------------------------------------------------------------------
 Center     Atomic      Atomic             Coordinates (Angstroms)
 Number     Number       Type             X           Y           Z
 ---------------------------------------------------------------------
      1          6           0        0.514123   -0.267151    1.333938
      2          6           0        1.144075   -1.053208    0.176112
      3          8           0        2.120685   -0.125823   -0.356508
      4          6           0        1.399017    1.143295   -0.366714
      5          6           0        0.053852    0.646436    0.132530
      6          6           0       -1.322500    1.263610    0.108192
      7          6           0       -2.216145   -0.011740   -0.009861
      8          8           0       -1.374929   -1.129701   -0.366800
      9          6           0       -0.086224   -0.667147   -0.687310
     10          1           0       -0.314187   -0.783376    1.815370
     11          1           0        1.196303    0.166163    2.068337
     12          1           0        1.591344   -2.042738    0.247805
     13          1           0        1.903119    1.861909    0.289613
     14          1           0        1.369242    1.545610   -1.385825
     15          1           0       -1.571528    1.850654    0.996098
     16          1           0       -1.445613    1.908867   -0.768596
     17          1           0       -2.703775   -0.253361    0.940875
     18          1           0       -2.998725    0.110288   -0.768257
     19          1           0        0.090579   -0.644392   -1.770266
 ---------------------------------------------------------------------

 SCF Done:  E(RB3LYP) =  -423.154883389     A.U. after    1 cycles
