 Gaussian 09, Revision D.01,
 Gaussian 09:  ES64L-G09RevD.01 24-Apr-2013

 -----------------------------
 # b3lyp 6-31G(2df,p) opt Freq
 -----------------------------

 -----
 titel
 -----
 Symbolic Z-matrix:
 Charge =  0 Multiplicity = 1

 SCF Done:  E(RB3LYP) =  -423.173894712     A.U. after   13 cycles

 The electronic state is 1-A.
 Alpha  occ. eigenvalues --  -19.13564 -19.13084 -10.23961 -10.23415 -10.22747
 Alpha  occ. eigenvalues --  -10.21624 -10.19197 -10.19018 -10.18246  -1.05588
 Alpha  occ. eigenvalues --   -1.02092  -0.79883  -0.76397  -0.70989  -0.68540
 Alpha  occ. eigenvalues --   -0.60368  -0.56069  -0.54961  -0.51744  -0.49631
 Alpha  occ. eigenvalues --   -0.47458  -0.45006  -0.43064  -0.40686  -0.40042
 Alpha  occ. eigenvalues --   -0.38947  -0.35285  -0.34003  -0.33063  -0.32560
 Alpha  occ. eigenvalues --   -0.32296  -0.30380  -0.26942  -0.22807
 Alpha virt. eigenvalues --    0.08138   0.10133   0.11515   0.12135   0.12270
 Alpha virt. eigenvalues --    0.14223   0.14463   0.15157   0.16474   0.16929
 Alpha virt. eigenvalues --    0.17406   0.18561   0.19708   0.20523   0.21686

 Mulliken charges:
               1
     1  C   -0.242455
     2  C    0.065550
     3  O   -0.297745
     4  C    0.040547
     5  C    0.131542
     6  O   -0.275290
     7  C   -0.071047
     8  C   -0.243297
     9  C   -0.056995
    10  H    0.096599
    11  H    0.114438
    12  H    0.079948
    13  H    0.085860
    14  H    0.078624
    15  H    0.096394
    16  H    0.112772
    17  H    0.104429
    18  H    0.104350
    19  H    0.075776
 Sum of Mulliken charges =   0.00000

 Dipole moment (field-independent basis, Debye):
    X=              0.9057    Y=              1.3763    Z=             -1.3773  Tot=              2.1474
 Quadrupole moment (field-independent basis, Debye-Ang):
   XX=            -51.1359   YY=            -52.6745   ZZ=            -54.4593
   XY=             -2.8099   XZ=             -2.0877   YZ=             -0.1458

 Optimization completed.
    -- Stationary point found.
 Normal termination of Gaussian 09 at Mon Jan 27 11:18:41 2020.

 ----------------------------------------------------------------------
 #N Geom=AllCheck Guess=TCheck SCRF=Check GenChk RB3LYP/6-31G(2df,p) Fr
 eq
 ----------------------------------------------------------------------

 Structure from the checkpoint file:  "/scratch/puck/g09_a6e51cde-f38b-4f1f-893b-f3bd6a226557/Gau-42034.chk"
 -----
 titel
 -----
 Charge =  0 Multiplicity = 1

                         Standard orientation:
 ---------------------------------------------------------------------
 Center     Atomic      Atomic             Coordinates (Angstroms)
 Number     Number       Type             X           Y           Z
 ---------------------------------------------------------------------
      1          6           0        2.151324    0.005440   -0.392498
      2          6           0        1.108402    0.988242    0.189730
      3          8           0        0.853098    0.018513    1.255983
      4          6           0        1.103112   -0.964987    0.199297
      5          6           0       -0.113989   -0.766326   -0.733391
      6          8           0       -1.346579   -1.206128   -0.209957
      7          6           0       -1.966005   -0.146772    0.521882
      8          6           0       -1.484269    1.163762   -0.130019
      9          6           0       -0.115889    0.802835   -0.731891
     10          1           0        2.339064    0.002051   -1.469741
     11          1           0        3.080622    0.001980    0.177774
     12          1           0        1.351922    1.987874    0.550854
     13          1           0        1.325177   -1.966517    0.565522
     14          1           0        0.029058   -1.239912   -1.709413
     15          1           0       -3.048688   -0.290347    0.447808
     16          1           0       -1.672350   -0.187444    1.575630
     17          1           0       -2.169958    1.471729   -0.924605
     18          1           0       -1.425182    1.980179    0.595455
     19          1           0        0.042062    1.248169   -1.716146
 ---------------------------------------------------------------------

 SCF Done:  E(RB3LYP) =  -423.173894712     A.U. after    1 cycles
