 Gaussian 09, Revision D.01,
 Gaussian 09:  ES64L-G09RevD.01 24-Apr-2013

 -----------------------------
 # b3lyp 6-31G(2df,p) opt Freq
 -----------------------------

 -----
 titel
 -----
 Symbolic Z-matrix:
 Charge =  0 Multiplicity = 1

 SCF Done:  E(RB3LYP) =  -423.139384597     A.U. after   13 cycles

 The electronic state is 1-A.
 Alpha  occ. eigenvalues --  -19.14647 -19.14569 -10.23541 -10.23288 -10.23161
 Alpha  occ. eigenvalues --  -10.23126 -10.19281 -10.18375 -10.18101  -1.05660
 Alpha  occ. eigenvalues --   -1.02879  -0.86548  -0.82372  -0.71151  -0.61739
 Alpha  occ. eigenvalues --   -0.60799  -0.57687  -0.57009  -0.52433  -0.49726
 Alpha  occ. eigenvalues --   -0.47909  -0.46696  -0.44694  -0.42825  -0.40419
 Alpha  occ. eigenvalues --   -0.38766  -0.38227  -0.34815  -0.33361  -0.30878
 Alpha  occ. eigenvalues --   -0.28057  -0.27359  -0.25532  -0.23705
 Alpha virt. eigenvalues --    0.07614   0.10002   0.11126   0.12616   0.12977
 Alpha virt. eigenvalues --    0.13641   0.14433   0.15621   0.16546   0.16835
 Alpha virt. eigenvalues --    0.17450   0.19394   0.20030   0.21562   0.23271

 Mulliken charges:
               1
     1  C   -0.308710
     2  C   -0.054323
     3  C   -0.103479
     4  O   -0.241917
     5  C    0.087486
     6  C   -0.347401
     7  C    0.074672
     8  O   -0.245848
     9  C    0.103895
    10  H    0.109467
    11  H    0.131730
    12  H    0.087906
    13  H    0.110607
    14  H    0.089446
    15  H    0.082923
    16  H    0.137629
    17  H    0.115052
    18  H    0.083817
    19  H    0.087047
 Sum of Mulliken charges =   0.00000

 Dipole moment (field-independent basis, Debye):
    X=              0.4843    Y=              0.4451    Z=             -1.7605  Tot=              1.8793
 Quadrupole moment (field-independent basis, Debye-Ang):
   XX=            -48.2707   YY=            -55.6178   ZZ=            -51.9506
   XY=              0.8695   XZ=              0.7040   YZ=             -0.2844

 Optimization completed.
    -- Stationary point found.
 Normal termination of Gaussian 09 at Mon Jan 27 11:15:09 2020.

 ----------------------------------------------------------------------
 #N Geom=AllCheck Guess=TCheck SCRF=Check GenChk RB3LYP/6-31G(2df,p) Fr
 eq
 ----------------------------------------------------------------------

 Structure from the checkpoint file:  "/scratch/puck/g09_78644621-b641-46cf-a3ee-6c41c462e0c5/Gau-68805.chk"
 -----
 titel
 -----
 Charge =  0 Multiplicity = 1

                         Standard orientation:
 ---------------------------------------------------------------------
 Center     Atomic      Atomic             Coordinates (Angstroms)
 Number     Number       Type             X           Y           Z
 ---------------------------------------------------------------------
      1          6           0        2.113943   -0.493757    0.658004
      2          6           0        1.582044    0.394718   -0.447243
      3          6           0        0.694220    1.600879   -0.173501
      4          8           0       -0.507036    1.315202    0.527824
      5          6           0       -1.427438    0.645510   -0.274818
      6          6           0       -2.314024   -0.354922    0.409425
      7          6           0       -1.205805   -0.833813   -0.490241
      8          8           0       -0.119745   -1.390596    0.181944
      9          6           0        1.135726   -1.047691   -0.333666
     10          1           0        3.149566   -0.813861    0.633279
     11          1           0        1.701597   -0.328357    1.647803
     12          1           0        2.275303    0.577769   -1.265799
     13          1           0        1.230046    2.330706    0.443399
     14          1           0        0.455503    2.092767   -1.130271
     15          1           0       -1.834986    1.240781   -1.093613
     16          1           0       -2.141617   -0.492841    1.470410
     17          1           0       -3.342449   -0.452034    0.081689
     18          1           0       -1.446287   -1.280968   -1.454679
     19          1           0        1.495584   -1.736358   -1.098113
 ---------------------------------------------------------------------

 SCF Done:  E(RB3LYP) =  -423.139384597     A.U. after    1 cycles
