 Gaussian 09, Revision D.01,
 Gaussian 09:  ES64L-G09RevD.01 24-Apr-2013

 -----------------------------
 # b3lyp 6-31G(2df,p) opt Freq
 -----------------------------

 -----
 titel
 -----
 Symbolic Z-matrix:
 Charge =  0 Multiplicity = 1

 SCF Done:  E(RB3LYP) =  -423.149414511     A.U. after   13 cycles

 The electronic state is 1-A.
 Alpha  occ. eigenvalues --  -19.14615 -19.14326 -10.23582 -10.23466 -10.23113
 Alpha  occ. eigenvalues --  -10.22904 -10.19160 -10.19031 -10.18647  -1.07278
 Alpha  occ. eigenvalues --   -1.03560  -0.80944  -0.77473  -0.71384  -0.64314
 Alpha  occ. eigenvalues --   -0.62488  -0.59596  -0.52469  -0.50079  -0.49657
 Alpha  occ. eigenvalues --   -0.48253  -0.45323  -0.43197  -0.42660  -0.41229
 Alpha  occ. eigenvalues --   -0.38848  -0.37683  -0.35904  -0.33959  -0.32268
 Alpha  occ. eigenvalues --   -0.31337  -0.27714  -0.25816  -0.24390
 Alpha virt. eigenvalues --    0.07881   0.08447   0.11056   0.11156   0.11801
 Alpha virt. eigenvalues --    0.13181   0.13966   0.14459   0.15734   0.16112
 Alpha virt. eigenvalues --    0.17319   0.18613   0.19020   0.20771   0.22992

 Mulliken charges:
               1
     1  C   -0.264230
     2  C   -0.037829
     3  O   -0.317260
     4  C    0.486954
     5  C   -0.377927
     6  C   -0.073409
     7  O   -0.239517
     8  C   -0.108691
     9  C   -0.100049
    10  H    0.106776
    11  H    0.110512
    12  H    0.099753
    13  H    0.116835
    14  H    0.113590
    15  H    0.115172
    16  H    0.092745
    17  H    0.110751
    18  H    0.088631
    19  H    0.077194
 Sum of Mulliken charges =   0.00000

 Dipole moment (field-independent basis, Debye):
    X=              1.0551    Y=              0.3632    Z=             -0.0204  Tot=              1.1161
 Quadrupole moment (field-independent basis, Debye-Ang):
   XX=            -56.5987   YY=            -51.6533   ZZ=            -52.2502
   XY=             -4.8088   XZ=             -4.2833   YZ=             -2.2778

 Optimization completed.
    -- Stationary point found.
 Normal termination of Gaussian 09 at Mon Jan 27 11:24:44 2020.

 ----------------------------------------------------------------------
 #N Geom=AllCheck Guess=TCheck SCRF=Check GenChk RB3LYP/6-31G(2df,p) Fr
 eq
 ----------------------------------------------------------------------

 Structure from the checkpoint file:  "/scratch/puck/g09_9c6bd536-19d4-4703-a8c6-3ce282e0c640/Gau-22768.chk"
 -----
 titel
 -----
 Charge =  0 Multiplicity = 1

                         Standard orientation:
 ---------------------------------------------------------------------
 Center     Atomic      Atomic             Coordinates (Angstroms)
 Number     Number       Type             X           Y           Z
 ---------------------------------------------------------------------
      1          6           0       -1.493510    1.234880    0.349635
      2          6           0       -1.556558   -0.244747    0.745787
      3          8           0       -1.840311   -1.028234   -0.431180
      4          6           0       -0.499595   -0.603497   -0.210230
      5          6           0        0.651942   -1.552669   -0.123837
      6          6           0        1.945262   -0.724567    0.142463
      7          8           0        1.680320    0.588493    0.610257
      8          6           0        1.038323    1.382110   -0.380115
      9          6           0       -0.374508    0.864131   -0.684715
     10          1           0       -2.415656    1.667381   -0.046375
     11          1           0       -1.110263    1.861527    1.160208
     12          1           0       -1.823085   -0.688486    1.698581
     13          1           0        0.470772   -2.280468    0.673037
     14          1           0        0.757081   -2.118627   -1.057090
     15          1           0        2.559464   -1.200159    0.910488
     16          1           0        2.545580   -0.666880   -0.779473
     17          1           0        1.023749    2.405578    0.007136
     18          1           0        1.645343    1.377134   -1.300762
     19          1           0       -0.641200    1.027084   -1.732280
 ---------------------------------------------------------------------

 SCF Done:  E(RB3LYP) =  -423.149414511     A.U. after    1 cycles
