 Gaussian 09, Revision D.01,
 Gaussian 09:  ES64L-G09RevD.01 24-Apr-2013

 -----------------------------
 # b3lyp 6-31G(2df,p) opt Freq
 -----------------------------

 -----
 titel
 -----
 Symbolic Z-matrix:
 Charge =  0 Multiplicity = 1

 SCF Done:  E(RB3LYP) =  -423.142602934     A.U. after   14 cycles

 The electronic state is 1-A.
 Alpha  occ. eigenvalues --  -19.14909 -19.14850 -10.30018 -10.23097 -10.22680
 Alpha  occ. eigenvalues --  -10.18475 -10.18242 -10.18196 -10.18111  -1.07582
 Alpha  occ. eigenvalues --   -1.00777  -0.80356  -0.75672  -0.71711  -0.69900
 Alpha  occ. eigenvalues --   -0.60718  -0.58994  -0.54224  -0.51232  -0.50168
 Alpha  occ. eigenvalues --   -0.48622  -0.45918  -0.44471  -0.42396  -0.40557
 Alpha  occ. eigenvalues --   -0.39120  -0.34873  -0.34061  -0.31831  -0.30845
 Alpha  occ. eigenvalues --   -0.29010  -0.27780  -0.27610  -0.26273
 Alpha virt. eigenvalues --    0.03704   0.03950   0.09572   0.11542   0.12191
 Alpha virt. eigenvalues --    0.12459   0.13061   0.13549   0.14957   0.16849
 Alpha virt. eigenvalues --    0.18249   0.18581   0.20003   0.21120   0.23616

 Mulliken charges:
               1
     1  C   -0.429361
     2  C    0.319837
     3  C   -0.001862
     4  O   -0.235171
     5  C   -0.077297
     6  C   -0.207845
     7  C   -0.207015
     8  C   -0.063554
     9  O   -0.243009
    10  H    0.199910
    11  H    0.101224
    12  H    0.109516
    13  H    0.110112
    14  H    0.093721
    15  H    0.114727
    16  H    0.110695
    17  H    0.094873
    18  H    0.098612
    19  H    0.111887
 Sum of Mulliken charges =   0.00000

 Dipole moment (field-independent basis, Debye):
    X=             -0.8111    Y=              0.2964    Z=             -0.2704  Tot=              0.9049
 Quadrupole moment (field-independent basis, Debye-Ang):
   XX=            -46.7329   YY=            -51.8957   ZZ=            -54.6340
   XY=              1.5763   XZ=             -1.2845   YZ=             -2.7597

 Optimization completed.
    -- Stationary point found.
 Normal termination of Gaussian 09 at Mon Jan 27 11:14:01 2020.

 ----------------------------------------------------------------------
 #N Geom=AllCheck Guess=TCheck SCRF=Check GenChk RB3LYP/6-31G(2df,p) Fr
 eq
 ----------------------------------------------------------------------

 Structure from the checkpoint file:  "/scratch/puck/g09_925e1a86-fc33-4d42-8884-8c2172a9142a/Gau-94827.chk"
 -----
 titel
 -----
 Charge =  0 Multiplicity = 1

                         Standard orientation:
 ---------------------------------------------------------------------
 Center     Atomic      Atomic             Coordinates (Angstroms)
 Number     Number       Type             X           Y           Z
 ---------------------------------------------------------------------
      1          6           0        3.201585    0.082849   -0.506974
      2          6           0        2.122396   -0.185093   -0.053846
      3          6           0        0.818585   -0.488597    0.556645
      4          8           0        0.174984    0.655311    1.061489
      5          6           0       -0.314753    1.570717    0.078110
      6          6           0       -1.512946    1.010857   -0.726026
      7          6           0       -2.181288   -0.160437    0.006454
      8          6           0       -1.289767   -1.429254   -0.018101
      9          8           0        0.056901   -1.165441   -0.410351
     10          1           0        4.155609    0.314397   -0.912835
     11          1           0        0.961548   -1.119406    1.448186
     12          1           0       -0.621535    2.440244    0.665301
     13          1           0        0.499881    1.881781   -0.587595
     14          1           0       -2.240703    1.814185   -0.883959
     15          1           0       -1.181197    0.680214   -1.714184
     16          1           0       -2.393073    0.129494    1.039795
     17          1           0       -3.142733   -0.391379   -0.464366
     18          1           0       -1.307331   -1.940098    0.955069
     19          1           0       -1.648422   -2.134640   -0.772093
 ---------------------------------------------------------------------

 SCF Done:  E(RB3LYP) =  -423.142602934     A.U. after    1 cycles
