 Gaussian 09, Revision D.01,
 Gaussian 09:  ES64L-G09RevD.01 24-Apr-2013

 -----------------------------
 # b3lyp 6-31G(2df,p) opt Freq
 -----------------------------

 -----
 titel
 -----
 Symbolic Z-matrix:
 Charge =  0 Multiplicity = 1

 SCF Done:  E(RB3LYP) =  -423.165189517     A.U. after   13 cycles
 SCF Done:  E(RB3LYP) =  -423.165189835     A.U. after    6 cycles
 Optimization completed.
    -- Stationary point found.

 The electronic state is 1-A.
 Alpha  occ. eigenvalues --  -19.13504 -19.13040 -10.24287 -10.24026 -10.22677
 Alpha  occ. eigenvalues --  -10.22158 -10.19548 -10.18969 -10.18776  -1.05655
 Alpha  occ. eigenvalues --   -1.01819  -0.80308  -0.74561  -0.73270  -0.69700
 Alpha  occ. eigenvalues --   -0.60296  -0.57189  -0.54703  -0.51024  -0.49435
 Alpha  occ. eigenvalues --   -0.46569  -0.45950  -0.42578  -0.41347  -0.40352
 Alpha  occ. eigenvalues --   -0.39260  -0.37230  -0.34535  -0.33616  -0.32732
 Alpha  occ. eigenvalues --   -0.31478  -0.29913  -0.25082  -0.24613
 Alpha virt. eigenvalues --    0.08252   0.09465   0.10497   0.12274   0.13101
 Alpha virt. eigenvalues --    0.13768   0.14235   0.14658   0.15532   0.16365
 Alpha virt. eigenvalues --    0.17162   0.18439   0.18619   0.19633   0.21248

 Mulliken charges:
               1
     1  C   -0.320562
     2  C    0.074571
     3  C   -0.262289
     4  C   -0.024406
     5  C   -0.098984
     6  O   -0.275853
     7  C   -0.183239
     8  C    0.400747
     9  O   -0.324860
    10  H    0.097850
    11  H    0.115269
    12  H    0.081785
    13  H    0.113316
    14  H    0.099839
    15  H    0.079118
    16  H    0.102397
    17  H    0.103937
    18  H    0.114647
    19  H    0.106719
 Sum of Mulliken charges =   0.00000

 Dipole moment (field-independent basis, Debye):
    X=              1.9214    Y=              0.3340    Z=             -1.5974  Tot=              2.5209
 Quadrupole moment (field-independent basis, Debye-Ang):
   XX=            -55.7854   YY=            -50.0213   ZZ=            -54.2841
   XY=              0.1965   XZ=             -0.4207   YZ=              1.1527

 Normal termination of Gaussian 09 at Mon Jan 27 11:23:15 2020.

 ----------------------------------------------------------------------
 #N Geom=AllCheck Guess=TCheck SCRF=Check GenChk RB3LYP/6-31G(2df,p) Fr
 eq
 ----------------------------------------------------------------------

 Structure from the checkpoint file:  "/scratch/puck/g09_86bda734-4b70-4a4c-b65d-20180c71d8fb/Gau-41911.chk"
 -----
 titel
 -----
 Charge =  0 Multiplicity = 1

                         Standard orientation:
 ---------------------------------------------------------------------
 Center     Atomic      Atomic             Coordinates (Angstroms)
 Number     Number       Type             X           Y           Z
 ---------------------------------------------------------------------
      1          6           0        1.414162   -1.029481   -0.730049
      2          6           0        1.818327    0.017901    0.347235
      3          6           0        1.242189    1.371756   -0.146927
      4          6           0       -0.147363    0.832847   -0.581502
      5          6           0       -1.448075    1.129045    0.157938
      6          8           0       -2.214824   -0.079976    0.025894
      7          6           0       -1.338847   -1.214507   -0.068270
      8          6           0        0.051389   -0.639249   -0.137967
      9          8           0        0.711673   -0.470602    1.162206
     10          1           0        1.607882   -0.825081   -1.786491
     11          1           0        1.735321   -2.031974   -0.445206
     12          1           0        2.784039    0.002094    0.852568
     13          1           0        1.195370    2.089852    0.675457
     14          1           0        1.807001    1.818197   -0.969378
     15          1           0       -0.307956    0.904587   -1.661368
     16          1           0       -1.252476    1.351317    1.216079
     17          1           0       -2.045527    1.936623   -0.272714
     18          1           0       -1.453580   -1.861253    0.809838
     19          1           0       -1.595551   -1.789608   -0.966332
 ---------------------------------------------------------------------

 SCF Done:  E(RB3LYP) =  -423.165189835     A.U. after    1 cycles
