 Gaussian 09, Revision D.01,
 Gaussian 09:  ES64L-G09RevD.01 24-Apr-2013

 -----------------------------
 # b3lyp 6-31G(2df,p) opt Freq
 -----------------------------

 -----
 titel
 -----
 Symbolic Z-matrix:
 Charge =  0 Multiplicity = 1

 SCF Done:  E(RB3LYP) =  -423.140926720     A.U. after   13 cycles

 The electronic state is 1-A.
 Alpha  occ. eigenvalues --  -19.15152 -19.13676 -10.23585 -10.23344 -10.23328
 Alpha  occ. eigenvalues --  -10.23290 -10.19470 -10.19438 -10.18927  -1.06123
 Alpha  occ. eigenvalues --   -1.02989  -0.83085  -0.79530  -0.70188  -0.68891
 Alpha  occ. eigenvalues --   -0.61869  -0.59408  -0.52282  -0.51239  -0.48473
 Alpha  occ. eigenvalues --   -0.47117  -0.45352  -0.43917  -0.43225  -0.40282
 Alpha  occ. eigenvalues --   -0.39263  -0.37827  -0.36235  -0.34810  -0.33471
 Alpha  occ. eigenvalues --   -0.33274  -0.26948  -0.24697  -0.22772
 Alpha virt. eigenvalues --    0.07245   0.08657   0.10416   0.11176   0.12316
 Alpha virt. eigenvalues --    0.13122   0.13625   0.15391   0.15623   0.17109
 Alpha virt. eigenvalues --    0.17677   0.18978   0.19414   0.20488   0.21071

 Mulliken charges:
               1
     1  C   -0.381277
     2  C    0.376345
     3  C   -0.307667
     4  C   -0.222668
     5  C   -0.080859
     6  O   -0.296146
     7  C    0.297625
     8  C   -0.154492
     9  O   -0.333882
    10  H    0.112638
    11  H    0.121217
    12  H    0.106517
    13  H    0.117659
    14  H    0.112893
    15  H    0.106864
    16  H    0.112924
    17  H    0.096512
    18  H    0.106567
    19  H    0.109229
 Sum of Mulliken charges =   0.00000

 Dipole moment (field-independent basis, Debye):
    X=             -1.6191    Y=              0.1850    Z=             -0.1082  Tot=              1.6332
 Quadrupole moment (field-independent basis, Debye-Ang):
   XX=            -51.5664   YY=            -56.1939   ZZ=            -52.0087
   XY=             -3.9609   XZ=              2.0065   YZ=              2.6398

 Optimization completed.
    -- Stationary point found.
 Normal termination of Gaussian 09 at Mon Jan 27 11:18:12 2020.

 ----------------------------------------------------------------------
 #N Geom=AllCheck Guess=TCheck SCRF=Check GenChk RB3LYP/6-31G(2df,p) Fr
 eq
 ----------------------------------------------------------------------

 Structure from the checkpoint file:  "/scratch/puck/g09_de8859f8-5bd2-4942-96dd-bfcf3e51d1a8/Gau-150211.chk"
 -----
 titel
 -----
 Charge =  0 Multiplicity = 1

                         Standard orientation:
 ---------------------------------------------------------------------
 Center     Atomic      Atomic             Coordinates (Angstroms)
 Number     Number       Type             X           Y           Z
 ---------------------------------------------------------------------
      1          6           0        0.854675    0.170333    1.497115
      2          6           0        0.531937    0.767060    0.152652
      3          6           0       -0.706692    1.514666   -0.246817
      4          6           0       -1.926206    0.591178    0.007690
      5          6           0       -1.665352   -0.849560   -0.457433
      6          8           0       -0.617329   -1.493203    0.285849
      7          6           0        0.526716   -0.720164    0.314670
      8          6           0        1.679995   -0.727570   -0.685671
      9          8           0        1.700583    0.733556   -0.689750
     10          1           0        1.869057    0.243592    1.877868
     11          1           0        0.067367    0.208953    2.242243
     12          1           0       -0.826286    2.475531    0.265256
     13          1           0       -0.627169    1.724005   -1.319709
     14          1           0       -2.177916    0.573653    1.074869
     15          1           0       -2.803615    0.981381   -0.518633
     16          1           0       -2.550577   -1.472340   -0.306145
     17          1           0       -1.423323   -0.857685   -1.532038
     18          1           0        2.638363   -1.158674   -0.374778
     19          1           0        1.397622   -1.116895   -1.670958
 ---------------------------------------------------------------------

 SCF Done:  E(RB3LYP) =  -423.140926720     A.U. after    1 cycles
