 Gaussian 09, Revision D.01,
 Gaussian 09:  ES64L-G09RevD.01 24-Apr-2013

 -----------------------------
 # b3lyp 6-31G(2df,p) opt Freq
 -----------------------------

 -----
 titel
 -----
 Symbolic Z-matrix:
 Charge =  0 Multiplicity = 1

 SCF Done:  E(RB3LYP) =  -423.157932630     A.U. after   14 cycles

 The electronic state is 1-A.
 Alpha  occ. eigenvalues --  -19.14947 -19.13595 -10.23916 -10.23194 -10.22568
 Alpha  occ. eigenvalues --  -10.22396 -10.19445 -10.19042 -10.18457  -1.07024
 Alpha  occ. eigenvalues --   -1.03381  -0.84075  -0.73979  -0.69197  -0.66299
 Alpha  occ. eigenvalues --   -0.61990  -0.58284  -0.53577  -0.50840  -0.49851
 Alpha  occ. eigenvalues --   -0.47918  -0.46297  -0.44196  -0.41777  -0.41373
 Alpha  occ. eigenvalues --   -0.38306  -0.36360  -0.35240  -0.32667  -0.31727
 Alpha  occ. eigenvalues --   -0.30794  -0.28846  -0.26394  -0.25065
 Alpha virt. eigenvalues --    0.06365   0.09598   0.10877   0.11568   0.13081
 Alpha virt. eigenvalues --    0.13910   0.14298   0.14750   0.15177   0.15447
 Alpha virt. eigenvalues --    0.16334   0.17879   0.19604   0.20402   0.21944

 Mulliken charges:
               1
     1  C   -0.269735
     2  O   -0.266746
     3  C    0.480092
     4  C   -0.336198
     5  C   -0.028073
     6  C   -0.093704
     7  O   -0.248062
     8  C   -0.091309
     9  C   -0.161715
    10  H    0.112811
    11  H    0.114826
    12  H    0.103815
    13  H    0.124282
    14  H    0.074214
    15  H    0.085740
    16  H    0.110017
    17  H    0.086394
    18  H    0.127579
    19  H    0.075773
 Sum of Mulliken charges =   0.00000

 Dipole moment (field-independent basis, Debye):
    X=              0.2533    Y=              1.6374    Z=              2.4308  Tot=              2.9418
 Quadrupole moment (field-independent basis, Debye-Ang):
   XX=            -53.0127   YY=            -51.8298   ZZ=            -54.1773
   XY=             -0.0554   XZ=              0.7909   YZ=             -2.7857

 Optimization completed.
    -- Stationary point found.
 Normal termination of Gaussian 09 at Mon Jan 27 11:21:56 2020.

 ----------------------------------------------------------------------
 #N Geom=AllCheck Guess=TCheck SCRF=Check GenChk RB3LYP/6-31G(2df,p) Fr
 eq
 ----------------------------------------------------------------------

 Structure from the checkpoint file:  "/scratch/puck/g09_628caf93-c5ec-4da0-925e-c3067c9849b4/Gau-131284.chk"
 -----
 titel
 -----
 Charge =  0 Multiplicity = 1

                         Standard orientation:
 ---------------------------------------------------------------------
 Center     Atomic      Atomic             Coordinates (Angstroms)
 Number     Number       Type             X           Y           Z
 ---------------------------------------------------------------------
      1          6           0        2.541208   -0.015189    0.293720
      2          8           0        1.874818   -0.683780   -0.787733
      3          6           0        1.109890    0.164427    0.050282
      4          6           0        0.346040    1.399433   -0.430081
      5          6           0       -0.808567    1.022215    0.551624
      6          6           0       -2.101483    0.554705   -0.113939
      7          8           0       -1.782848   -0.699451   -0.702104
      8          6           0       -0.953784   -1.389405    0.228163
      9          6           0       -0.070587   -0.323204    0.895755
     10          1           0        2.878223   -0.660642    1.104744
     11          1           0        3.244295    0.762756   -0.002864
     12          1           0        0.832001    2.362674   -0.257222
     13          1           0        0.054464    1.326576   -1.481692
     14          1           0       -0.963608    1.721346    1.373395
     15          1           0       -2.903396    0.445301    0.635917
     16          1           0       -2.457188    1.215079   -0.910366
     17          1           0       -1.566984   -1.899604    0.987788
     18          1           0       -0.377884   -2.135387   -0.325047
     19          1           0        0.148015   -0.550149    1.940898
 ---------------------------------------------------------------------

 SCF Done:  E(RB3LYP) =  -423.157932630     A.U. after    1 cycles
