 Gaussian 09, Revision D.01,
 Gaussian 09:  ES64L-G09RevD.01 24-Apr-2013

 -----------------------------
 # b3lyp 6-31G(2df,p) opt Freq
 -----------------------------

 -----
 titel
 -----
 Symbolic Z-matrix:
 Charge =  0 Multiplicity = 1

 SCF Done:  E(RB3LYP) =  -423.172743840     A.U. after   14 cycles

 The electronic state is 1-A.
 Alpha  occ. eigenvalues --  -19.14329 -19.12865 -10.26727 -10.24221 -10.23994
 Alpha  occ. eigenvalues --  -10.20428 -10.19180 -10.18466 -10.18416  -1.05288
 Alpha  occ. eigenvalues --   -1.03548  -0.83036  -0.75255  -0.72105  -0.66707
 Alpha  occ. eigenvalues --   -0.62778  -0.57653  -0.51869  -0.49000  -0.48399
 Alpha  occ. eigenvalues --   -0.47428  -0.43943  -0.43173  -0.42470  -0.41988
 Alpha  occ. eigenvalues --   -0.39494  -0.37520  -0.36768  -0.34045  -0.33756
 Alpha  occ. eigenvalues --   -0.31707  -0.29446  -0.26569  -0.23471
 Alpha virt. eigenvalues --   -0.02318   0.07103   0.08710   0.09402   0.11675
 Alpha virt. eigenvalues --    0.12671   0.13819   0.15370   0.16174   0.16662
 Alpha virt. eigenvalues --    0.17023   0.18023   0.19837   0.21114   0.22000

 Mulliken charges:
               1
     1  C   -0.479902
     2  C    0.302818
     3  O   -0.312119
     4  C    0.348106
     5  C   -0.271080
     6  C   -0.227925
     7  C   -0.124714
     8  C   -0.090960
     9  O   -0.332137
    10  H    0.138738
    11  H    0.154546
    12  H    0.135099
    13  H    0.131811
    14  H    0.110653
    15  H    0.114099
    16  H    0.103322
    17  H    0.089438
    18  H    0.104858
    19  H    0.105350
 Sum of Mulliken charges =   0.00000

 Dipole moment (field-independent basis, Debye):
    X=             -1.6647    Y=              1.5070    Z=             -0.7273  Tot=              2.3604
 Quadrupole moment (field-independent basis, Debye-Ang):
   XX=            -52.1669   YY=            -56.0099   ZZ=            -52.7273
   XY=              4.1169   XZ=              1.6359   YZ=             -3.1907

 Optimization completed.
    -- Stationary point found.
 Normal termination of Gaussian 09 at Mon Jan 27 11:18:51 2020.

 ----------------------------------------------------------------------
 #N Geom=AllCheck Guess=TCheck SCRF=Check GenChk RB3LYP/6-31G(2df,p) Fr
 eq
 ----------------------------------------------------------------------

 Structure from the checkpoint file:  "/scratch/puck/g09_39ef7936-891f-4a2b-a41b-e1a80bca9498/Gau-70224.chk"
 -----
 titel
 -----
 Charge =  0 Multiplicity = 1

                         Standard orientation:
 ---------------------------------------------------------------------
 Center     Atomic      Atomic             Coordinates (Angstroms)
 Number     Number       Type             X           Y           Z
 ---------------------------------------------------------------------
      1          6           0        2.377053    0.840030   -0.014429
      2          6           0        1.428983   -0.337394   -0.067489
      3          8           0        1.785600   -1.460159   -0.353392
      4          6           0       -0.029470   -0.063895    0.225420
      5          6           0       -0.888551   -1.194562    0.842698
      6          6           0       -1.979481   -0.969220   -0.248685
      7          6           0       -1.115033    0.143395   -0.894248
      8          6           0       -1.272574    1.536059   -0.263827
      9          8           0       -0.305956    1.241711    0.774132
     10          1           0        2.056440    1.620812   -0.712712
     11          1           0        2.351911    1.296200    0.980299
     12          1           0        3.386395    0.508374   -0.259973
     13          1           0       -0.391672   -2.163030    0.770093
     14          1           0       -1.180165   -0.999237    1.876292
     15          1           0       -2.126181   -1.834720   -0.897594
     16          1           0       -2.958066   -0.636688    0.108063
     17          1           0       -0.903715    0.084733   -1.960895
     18          1           0       -0.935683    2.370313   -0.891982
     19          1           0       -2.261977    1.774345    0.145853
 ---------------------------------------------------------------------

 SCF Done:  E(RB3LYP) =  -423.172743840     A.U. after    1 cycles
