 Gaussian 09, Revision D.01,
 Gaussian 09:  ES64L-G09RevD.01 24-Apr-2013

 -----------------------------
 # b3lyp 6-31G(2df,p) opt Freq
 -----------------------------

 -----
 titel
 -----
 Symbolic Z-matrix:
 Charge =  0 Multiplicity = 1

 SCF Done:  E(RB3LYP) =  -423.136881922     A.U. after   14 cycles

 The electronic state is 1-A.
 Alpha  occ. eigenvalues --  -19.14530 -19.14170 -10.25660 -10.23325 -10.23036
 Alpha  occ. eigenvalues --  -10.23026 -10.18562 -10.18375 -10.17889  -1.04740
 Alpha  occ. eigenvalues --   -1.02455  -0.80687  -0.75961  -0.71558  -0.70010
 Alpha  occ. eigenvalues --   -0.61217  -0.58856  -0.53729  -0.50841  -0.50079
 Alpha  occ. eigenvalues --   -0.48753  -0.47886  -0.44308  -0.41985  -0.41621
 Alpha  occ. eigenvalues --   -0.38504  -0.37722  -0.36310  -0.31403  -0.31193
 Alpha  occ. eigenvalues --   -0.28393  -0.27617  -0.26326  -0.24646
 Alpha virt. eigenvalues --    0.03472   0.04812   0.08948   0.10239   0.12421
 Alpha virt. eigenvalues --    0.12540   0.14071   0.14673   0.14856   0.16076
 Alpha virt. eigenvalues --    0.16409   0.17263   0.18161   0.20940   0.22732

 Mulliken charges:
               1
     1  C   -0.412557
     2  C    0.319855
     3  C   -0.115709
     4  C   -0.077323
     5  O   -0.248676
     6  C   -0.066872
     7  C   -0.228521
     8  C   -0.075831
     9  O   -0.252086
    10  H    0.198740
    11  H    0.103494
    12  H    0.105463
    13  H    0.116239
    14  H    0.101815
    15  H    0.106267
    16  H    0.100669
    17  H    0.113183
    18  H    0.114426
    19  H    0.097424
 Sum of Mulliken charges =   0.00000

 Dipole moment (field-independent basis, Debye):
    X=             -0.6753    Y=              0.5683    Z=              0.3160  Tot=              0.9375
 Quadrupole moment (field-independent basis, Debye-Ang):
   XX=            -46.0722   YY=            -55.3001   ZZ=            -53.6851
   XY=             -3.7887   XZ=              1.0695   YZ=              1.8761

 Optimization completed.
    -- Stationary point found.
 Normal termination of Gaussian 09 at Mon Jan 27 11:13:24 2020.

 ----------------------------------------------------------------------
 #N Geom=AllCheck Guess=TCheck SCRF=Check GenChk RB3LYP/6-31G(2df,p) Fr
 eq
 ----------------------------------------------------------------------

 Structure from the checkpoint file:  "/scratch/puck/g09_22544d0d-715d-43a7-8415-dfb42dca64de/Gau-94719.chk"
 -----
 titel
 -----
 Charge =  0 Multiplicity = 1

                         Standard orientation:
 ---------------------------------------------------------------------
 Center     Atomic      Atomic             Coordinates (Angstroms)
 Number     Number       Type             X           Y           Z
 ---------------------------------------------------------------------
      1          6           0        3.485197    0.086437   -0.026526
      2          6           0        2.293700    0.090446    0.126316
      3          6           0        0.843764    0.036925    0.303710
      4          6           0        0.305664   -1.354054   -0.096376
      5          8           0       -1.044099   -1.552001    0.246397
      6          6           0       -1.978664   -0.680986   -0.377751
      7          6           0       -2.078583    0.668002    0.342960
      8          6           0       -0.925141    1.646437    0.021640
      9          8           0        0.240353    1.037304   -0.511804
     10          1           0        4.539166    0.099955   -0.157085
     11          1           0        0.603717    0.213337    1.363690
     12          1           0        0.466942   -1.468902   -1.179243
     13          1           0        0.871457   -2.130788    0.426483
     14          1           0       -1.733071   -0.546968   -1.441068
     15          1           0       -2.941519   -1.197243   -0.313048
     16          1           0       -3.030145    1.148159    0.084856
     17          1           0       -2.118615    0.453332    1.416212
     18          1           0       -1.232443    2.350779   -0.756816
     19          1           0       -0.671147    2.236687    0.915431
 ---------------------------------------------------------------------

 SCF Done:  E(RB3LYP) =  -423.136881922     A.U. after    1 cycles
