 Gaussian 09, Revision D.01,
 Gaussian 09:  ES64L-G09RevD.01 24-Apr-2013

 -----------------------------
 # b3lyp 6-31G(2df,p) opt Freq
 -----------------------------

 -----
 titel
 -----
 Symbolic Z-matrix:
 Charge =  0 Multiplicity = 1

 SCF Done:  E(RB3LYP) =  -423.210730088     A.U. after   14 cycles

 The electronic state is 1-A.
 Alpha  occ. eigenvalues --  -19.16276 -19.13006 -10.27225 -10.24890 -10.24448
 Alpha  occ. eigenvalues --  -10.19509 -10.18863 -10.18819 -10.18682  -1.08568
 Alpha  occ. eigenvalues --   -1.03961  -0.81460  -0.75433  -0.72811  -0.68307
 Alpha  occ. eigenvalues --   -0.60914  -0.58228  -0.54922  -0.49296  -0.47496
 Alpha  occ. eigenvalues --   -0.45950  -0.44733  -0.43361  -0.42838  -0.40503
 Alpha  occ. eigenvalues --   -0.38344  -0.37314  -0.36957  -0.36134  -0.34778
 Alpha  occ. eigenvalues --   -0.34294  -0.30066  -0.27842  -0.24487
 Alpha virt. eigenvalues --   -0.02201   0.08683   0.10252   0.11102   0.11334
 Alpha virt. eigenvalues --    0.12770   0.14388   0.15202   0.15895   0.17272
 Alpha virt. eigenvalues --    0.17827   0.18279   0.18869   0.19887   0.22241

 Mulliken charges:
               1
     1  C   -0.483208
     2  C    0.293522
     3  O   -0.305583
     4  C    0.314245
     5  C   -0.281557
     6  C   -0.225001
     7  C   -0.240793
     8  C   -0.002561
     9  O   -0.292027
    10  H    0.138431
    11  H    0.139635
    12  H    0.155687
    13  H    0.128473
    14  H    0.113041
    15  H    0.104287
    16  H    0.121144
    17  H    0.110963
    18  H    0.114262
    19  H    0.097041
 Sum of Mulliken charges =   0.00000

 Dipole moment (field-independent basis, Debye):
    X=              1.4608    Y=             -1.4340    Z=             -0.6278  Tot=              2.1411
 Quadrupole moment (field-independent basis, Debye-Ang):
   XX=            -52.2949   YY=            -55.8555   ZZ=            -52.8768
   XY=              5.2592   XZ=             -2.4826   YZ=              3.7560

 Optimization completed.
    -- Stationary point found.
 Normal termination of Gaussian 09 at Mon Jan 27 11:18:42 2020.

 ----------------------------------------------------------------------
 #N Geom=AllCheck Guess=TCheck SCRF=Check GenChk RB3LYP/6-31G(2df,p) Fr
 eq
 ----------------------------------------------------------------------

 Structure from the checkpoint file:  "/scratch/puck/g09_c293defd-0e37-4815-8709-bd9fe7b0f59b/Gau-70221.chk"
 -----
 titel
 -----
 Charge =  0 Multiplicity = 1

                         Standard orientation:
 ---------------------------------------------------------------------
 Center     Atomic      Atomic             Coordinates (Angstroms)
 Number     Number       Type             X           Y           Z
 ---------------------------------------------------------------------
      1          6           0       -2.510631   -0.846930    0.113701
      2          6           0       -1.569322    0.317253   -0.113026
      3          8           0       -1.950858    1.409710   -0.473604
      4          6           0       -0.108786    0.084879    0.145119
      5          6           0        0.833259    1.251138    0.380046
      6          6           0        2.244201    0.628069    0.265774
      7          6           0        2.087356   -0.573752   -0.696375
      8          6           0        0.652289   -1.016640   -0.495515
      9          8           0        0.247436   -1.111126    0.868283
     10          1           0       -3.517152   -0.558551   -0.190652
     11          1           0       -2.189625   -1.734861   -0.439710
     12          1           0       -2.502884   -1.125496    1.172495
     13          1           0        0.643188    1.997877   -0.396847
     14          1           0        0.662638    1.736154    1.345434
     15          1           0        2.991054    1.345646   -0.080873
     16          1           0        2.564331    0.267224    1.245541
     17          1           0        2.213105   -0.273287   -1.743780
     18          1           0        2.804933   -1.375586   -0.496720
     19          1           0        0.187592   -1.731896   -1.170664
 ---------------------------------------------------------------------

 SCF Done:  E(RB3LYP) =  -423.210730088     A.U. after    1 cycles
