 Gaussian 09, Revision D.01,
 Gaussian 09:  ES64L-G09RevD.01 24-Apr-2013

 -----------------------------
 # b3lyp 6-31G(2df,p) opt Freq
 -----------------------------

 -----
 titel
 -----
 Symbolic Z-matrix:
 Charge =  0 Multiplicity = 1

 SCF Done:  E(RB3LYP) =  -423.108033787     A.U. after   14 cycles

 The electronic state is 1-A.
 Alpha  occ. eigenvalues --  -19.15151 -19.13180 -10.25891 -10.23451 -10.23126
 Alpha  occ. eigenvalues --  -10.23101 -10.18788 -10.18624 -10.17987  -1.04808
 Alpha  occ. eigenvalues --   -1.03472  -0.78782  -0.74726  -0.72922  -0.68614
 Alpha  occ. eigenvalues --   -0.63335  -0.55693  -0.53468  -0.50906  -0.49942
 Alpha  occ. eigenvalues --   -0.49106  -0.47815  -0.46186  -0.43124  -0.41880
 Alpha  occ. eigenvalues --   -0.38821  -0.37394  -0.33956  -0.32038  -0.30554
 Alpha  occ. eigenvalues --   -0.27981  -0.27914  -0.26015  -0.24852
 Alpha virt. eigenvalues --    0.02748   0.05299   0.08279   0.09364   0.10805
 Alpha virt. eigenvalues --    0.11487   0.12398   0.13078   0.15262   0.16164
 Alpha virt. eigenvalues --    0.17454   0.18237   0.18983   0.19806   0.20981

 Mulliken charges:
               1
     1  C   -0.412110
     2  C    0.279221
     3  C   -0.201695
     4  O   -0.250189
     5  C   -0.063004
     6  C    0.132759
     7  C   -0.279838
     8  C   -0.061835
     9  O   -0.296161
    10  H    0.201274
    11  H    0.119304
    12  H    0.121084
    13  H    0.088411
    14  H    0.098299
    15  H    0.086248
    16  H    0.115582
    17  H    0.114383
    18  H    0.103965
    19  H    0.104302
 Sum of Mulliken charges =   0.00000

 Dipole moment (field-independent basis, Debye):
    X=             -0.3335    Y=              0.5418    Z=              0.9243  Tot=              1.1221
 Quadrupole moment (field-independent basis, Debye-Ang):
   XX=            -50.4714   YY=            -52.3464   ZZ=            -52.5625
   XY=              3.8531   XZ=              1.3793   YZ=             -1.1175

 Optimization completed.
    -- Stationary point found.
 Normal termination of Gaussian 09 at Mon Jan 27 11:12:49 2020.

 ----------------------------------------------------------------------
 #N Geom=AllCheck Guess=TCheck SCRF=Check GenChk RB3LYP/6-31G(2df,p) Fr
 eq
 ----------------------------------------------------------------------

 Structure from the checkpoint file:  "/scratch/puck/g09_45536c24-5595-4324-8fc2-762d97e575f3/Gau-15751.chk"
 -----
 titel
 -----
 Charge =  0 Multiplicity = 1

                         Standard orientation:
 ---------------------------------------------------------------------
 Center     Atomic      Atomic             Coordinates (Angstroms)
 Number     Number       Type             X           Y           Z
 ---------------------------------------------------------------------
      1          6           0       -4.254336    0.766243   -0.172691
      2          6           0       -3.269116    0.119956    0.058140
      3          6           0       -2.093501   -0.687246    0.356022
      4          8           0       -0.935947   -0.073979   -0.176831
      5          6           0        0.240159   -0.807817    0.092866
      6          6           0        1.401467   -0.064248   -0.541109
      7          6           0        1.903255    1.214307    0.161668
      8          6           0        3.218756    0.427898    0.333548
      9          8           0        2.649337   -0.747039   -0.288293
     10          1           0       -5.122189    1.341864   -0.380685
     11          1           0       -1.996050   -0.811161    1.448366
     12          1           0       -2.220995   -1.699457   -0.064629
     13          1           0        0.406689   -0.907691    1.178723
     14          1           0        0.182505   -1.825868   -0.327530
     15          1           0        1.213009    0.051463   -1.616261
     16          1           0        1.959073    2.106250   -0.462616
     17          1           0        1.376975    1.457028    1.086607
     18          1           0        4.074732    0.811879   -0.234739
     19          1           0        3.539021    0.229270    1.363088
 ---------------------------------------------------------------------

 SCF Done:  E(RB3LYP) =  -423.108033787     A.U. after    1 cycles
