 Gaussian 09, Revision D.01,
 Gaussian 09:  ES64L-G09RevD.01 24-Apr-2013

 -----------------------------
 # b3lyp 6-31G(2df,p) opt Freq
 -----------------------------

 -----
 titel
 -----
 Symbolic Z-matrix:
 Charge =  0 Multiplicity = 1

 SCF Done:  E(RB3LYP) =  -423.160511532     A.U. after   13 cycles

 The electronic state is 1-A.
 Alpha  occ. eigenvalues --  -19.14294 -19.13625 -10.23503 -10.23474 -10.23395
 Alpha  occ. eigenvalues --  -10.22774 -10.18674 -10.18458 -10.18352  -1.05964
 Alpha  occ. eigenvalues --   -1.02122  -0.84789  -0.76906  -0.73312  -0.63410
 Alpha  occ. eigenvalues --   -0.60605  -0.59045  -0.53363  -0.51891  -0.50489
 Alpha  occ. eigenvalues --   -0.48261  -0.45985  -0.42756  -0.41521  -0.39684
 Alpha  occ. eigenvalues --   -0.38599  -0.36752  -0.35574  -0.34810  -0.32838
 Alpha  occ. eigenvalues --   -0.30062  -0.29369  -0.25148  -0.23273
 Alpha virt. eigenvalues --    0.07945   0.09298   0.10861   0.11026   0.12363
 Alpha virt. eigenvalues --    0.13854   0.14923   0.15534   0.15636   0.16754
 Alpha virt. eigenvalues --    0.17842   0.18751   0.19989   0.20784   0.22549

 Mulliken charges:
               1
     1  C   -0.327853
     2  C   -0.356248
     3  C    0.444865
     4  O   -0.329410
     5  C    0.094314
     6  C   -0.243381
     7  C   -0.088520
     8  O   -0.258253
     9  C   -0.042407
    10  H    0.123253
    11  H    0.126099
    12  H    0.115566
    13  H    0.124325
    14  H    0.082138
    15  H    0.108130
    16  H    0.116803
    17  H    0.109498
    18  H    0.110106
    19  H    0.090975
 Sum of Mulliken charges =   0.00000

 Dipole moment (field-independent basis, Debye):
    X=             -0.5681    Y=              0.1428    Z=              0.2969  Tot=              0.6568
 Quadrupole moment (field-independent basis, Debye-Ang):
   XX=            -49.6649   YY=            -56.1892   ZZ=            -51.4911
   XY=             -2.0162   XZ=              1.6653   YZ=              2.7379

 Optimization completed.
    -- Stationary point found.
 Normal termination of Gaussian 09 at Mon Jan 27 11:21:52 2020.

 ----------------------------------------------------------------------
 #N Geom=AllCheck Guess=TCheck SCRF=Check GenChk RB3LYP/6-31G(2df,p) Fr
 eq
 ----------------------------------------------------------------------

 Structure from the checkpoint file:  "/scratch/puck/g09_d3d9de5c-df2e-4c18-8558-0ae0594fdcf6/Gau-131204.chk"
 -----
 titel
 -----
 Charge =  0 Multiplicity = 1

                         Standard orientation:
 ---------------------------------------------------------------------
 Center     Atomic      Atomic             Coordinates (Angstroms)
 Number     Number       Type             X           Y           Z
 ---------------------------------------------------------------------
      1          6           0        1.871274   -0.772856   -0.781979
      2          6           0        2.497482    0.090647    0.306166
      3          6           0        1.029114    0.135129    0.045742
      4          8           0        0.375946    1.292677   -0.486893
      5          6           0       -0.761237    1.098910    0.393716
      6          6           0       -2.015883    0.620648   -0.328563
      7          6           0       -1.717890   -0.871872   -0.552692
      8          8           0       -0.961781   -1.281780    0.590573
      9          6           0       -0.139849   -0.200882    0.970374
     10          1           0        2.048861   -0.478621   -1.810959
     11          1           0        1.779010   -1.841517   -0.618611
     12          1           0        2.850124   -0.385776    1.215675
     13          1           0        3.079472    0.947660   -0.015512
     14          1           0       -0.909875    1.959273    1.050797
     15          1           0       -2.883925    0.746872    0.327206
     16          1           0       -2.191627    1.170444   -1.255904
     17          1           0       -2.608730   -1.501910   -0.602470
     18          1           0       -1.133612   -1.014187   -1.471684
     19          1           0        0.078914   -0.287756    2.035433
 ---------------------------------------------------------------------

 SCF Done:  E(RB3LYP) =  -423.160511532     A.U. after    1 cycles
