 Gaussian 09, Revision D.01,
 Gaussian 09:  ES64L-G09RevD.01 24-Apr-2013

 -----------------------------
 # b3lyp 6-31G(2df,p) opt Freq
 -----------------------------

 -----
 titel
 -----
 Symbolic Z-matrix:
 Charge =  0 Multiplicity = 1

 SCF Done:  E(RB3LYP) =  -423.114224023     A.U. after   13 cycles

 The electronic state is 1-A.
 Alpha  occ. eigenvalues --  -19.14083 -19.12547 -10.24738 -10.23878 -10.22640
 Alpha  occ. eigenvalues --  -10.22505 -10.20123 -10.19953 -10.19413  -1.05469
 Alpha  occ. eigenvalues --   -1.03094  -0.83818  -0.76436  -0.69357  -0.68559
 Alpha  occ. eigenvalues --   -0.60663  -0.57686  -0.53331  -0.52141  -0.50336
 Alpha  occ. eigenvalues --   -0.47147  -0.46377  -0.44076  -0.43170  -0.39871
 Alpha  occ. eigenvalues --   -0.39575  -0.37767  -0.35756  -0.33747  -0.32073
 Alpha  occ. eigenvalues --   -0.30509  -0.27112  -0.24172  -0.23719
 Alpha virt. eigenvalues --    0.06970   0.08523   0.09396   0.10837   0.11615
 Alpha virt. eigenvalues --    0.12421   0.13232   0.14234   0.15186   0.16505
 Alpha virt. eigenvalues --    0.17551   0.18641   0.19674   0.20334   0.21062

 Mulliken charges:
               1
     1  C   -0.339898
     2  C   -0.191689
     3  C   -0.087580
     4  O   -0.320487
     5  C    0.477814
     6  C   -0.154211
     7  C   -0.085219
     8  O   -0.271135
     9  C   -0.084538
    10  H    0.115640
    11  H    0.116494
    12  H    0.102423
    13  H    0.106949
    14  H    0.111002
    15  H    0.083466
    16  H    0.108368
    17  H    0.097321
    18  H    0.115152
    19  H    0.100128
 Sum of Mulliken charges =   0.00000

 Dipole moment (field-independent basis, Debye):
    X=              2.2285    Y=              1.1735    Z=              1.7739  Tot=              3.0805
 Quadrupole moment (field-independent basis, Debye-Ang):
   XX=            -57.6645   YY=            -50.8901   ZZ=            -52.3922
   XY=             -3.2781   XZ=             -0.6025   YZ=             -1.5634

 Optimization completed.
    -- Stationary point found.
 Normal termination of Gaussian 09 at Mon Jan 27 11:14:31 2020.

 ----------------------------------------------------------------------
 #N Geom=AllCheck Guess=TCheck SCRF=Check GenChk RB3LYP/6-31G(2df,p) Fr
 eq
 ----------------------------------------------------------------------

 Structure from the checkpoint file:  "/scratch/puck/g09_71e7a99e-0ded-435b-ac1a-223e2506fec9/Gau-68667.chk"
 -----
 titel
 -----
 Charge =  0 Multiplicity = 1

                         Standard orientation:
 ---------------------------------------------------------------------
 Center     Atomic      Atomic             Coordinates (Angstroms)
 Number     Number       Type             X           Y           Z
 ---------------------------------------------------------------------
      1          6           0        1.673171    1.362219   -0.026060
      2          6           0        1.906337    0.089083    0.765391
      3          6           0        2.098302   -1.063319   -0.210060
      4          8           0        0.877325   -0.718823   -0.922164
      5          6           0        0.596592    0.319345    0.032351
      6          6           0       -0.818287    0.508532    0.446335
      7          6           0       -1.660851   -0.743675    0.789334
      8          8           0       -2.672918   -0.378533   -0.169789
      9          6           0       -1.870745    0.704878   -0.677196
     10          1           0        1.505533    2.246233    0.581605
     11          1           0        2.200750    1.535715   -0.960360
     12          1           0        2.134046    0.080469    1.822683
     13          1           0        2.978552   -1.037668   -0.863313
     14          1           0        2.006610   -2.053473    0.249853
     15          1           0       -0.871196    1.283991    1.214179
     16          1           0       -1.171373   -1.689513    0.527552
     17          1           0       -2.060762   -0.804306    1.807963
     18          1           0       -1.490963    0.498177   -1.685475
     19          1           0       -2.413569    1.656838   -0.679634
 ---------------------------------------------------------------------

 SCF Done:  E(RB3LYP) =  -423.114224023     A.U. after    1 cycles
