 Gaussian 09, Revision D.01,
 Gaussian 09:  ES64L-G09RevD.01 24-Apr-2013

 -----------------------------
 # b3lyp 6-31G(2df,p) opt Freq
 -----------------------------

 -----
 titel
 -----
 Symbolic Z-matrix:
 Charge =  0 Multiplicity = 1

 SCF Done:  E(RB3LYP) =  -423.164257065     A.U. after   14 cycles

 The electronic state is 1-A.
 Alpha  occ. eigenvalues --  -19.13424 -19.13041 -10.24192 -10.24100 -10.22759
 Alpha  occ. eigenvalues --  -10.22423 -10.19220 -10.19112 -10.18988  -1.05781
 Alpha  occ. eigenvalues --   -1.01557  -0.80022  -0.75312  -0.73723  -0.68209
 Alpha  occ. eigenvalues --   -0.61401  -0.57430  -0.53741  -0.50727  -0.49790
 Alpha  occ. eigenvalues --   -0.46997  -0.46026  -0.42598  -0.42227  -0.39885
 Alpha  occ. eigenvalues --   -0.38518  -0.36483  -0.35293  -0.35037  -0.31909
 Alpha  occ. eigenvalues --   -0.30615  -0.29957  -0.25451  -0.24538
 Alpha virt. eigenvalues --    0.08272   0.09938   0.10553   0.10751   0.12237
 Alpha virt. eigenvalues --    0.13662   0.14294   0.14580   0.15681   0.16257
 Alpha virt. eigenvalues --    0.17300   0.18645   0.19183   0.20395   0.22225

 Mulliken charges:
               1
     1  C   -0.215161
     2  C   -0.306376
     3  C    0.423672
     4  C   -0.178395
     5  O   -0.274003
     6  C   -0.100976
     7  C   -0.065607
     8  C    0.046276
     9  O   -0.340302
    10  H    0.111393
    11  H    0.101416
    12  H    0.105007
    13  H    0.113353
    14  H    0.103441
    15  H    0.111544
    16  H    0.103788
    17  H    0.106531
    18  H    0.073976
    19  H    0.080422
 Sum of Mulliken charges =   0.00000

 Dipole moment (field-independent basis, Debye):
    X=             -1.7613    Y=             -0.1998    Z=             -1.4841  Tot=              2.3119
 Quadrupole moment (field-independent basis, Debye-Ang):
   XX=            -56.9507   YY=            -48.9304   ZZ=            -54.6452
   XY=             -0.0340   XZ=              0.8962   YZ=              0.4759

 Optimization completed.
    -- Stationary point found.
 Normal termination of Gaussian 09 at Mon Jan 27 11:15:58 2020.

 ----------------------------------------------------------------------
 #N Geom=AllCheck Guess=TCheck SCRF=Check GenChk RB3LYP/6-31G(2df,p) Fr
 eq
 ----------------------------------------------------------------------

 Structure from the checkpoint file:  "/scratch/puck/g09_042e4ab9-528d-40d8-b4e2-21985677e4ec/Gau-68615.chk"
 -----
 titel
 -----
 Charge =  0 Multiplicity = 1

                         Standard orientation:
 ---------------------------------------------------------------------
 Center     Atomic      Atomic             Coordinates (Angstroms)
 Number     Number       Type             X           Y           Z
 ---------------------------------------------------------------------
      1          6           0       -2.205891   -0.177195   -0.286518
      2          6           0       -1.395447    1.162900   -0.425454
      3          6           0       -0.058445    0.599928    0.062956
      4          6           0        1.307143    1.222082    0.185828
      5          8           0        2.228878    0.176418   -0.138660
      6          6           0        1.546206   -1.087268   -0.227720
      7          6           0        0.117286   -0.756968   -0.658687
      8          6           0       -1.064290   -1.056650    0.287656
      9          8           0       -0.473072   -0.150743    1.265194
     10          1           0       -3.033619   -0.097784    0.420745
     11          1           0       -2.594758   -0.543812   -1.240645
     12          1           0       -1.350474    1.539027   -1.450761
     13          1           0       -1.775294    1.952923    0.225447
     14          1           0        1.450585    2.049632   -0.520117
     15          1           0        1.480119    1.593266    1.204486
     16          1           0        2.088451   -1.690176   -0.960782
     17          1           0        1.565773   -1.600017    0.741544
     18          1           0       -0.048964   -0.803761   -1.737900
     19          1           0       -1.307651   -2.045676    0.677339
 ---------------------------------------------------------------------

 SCF Done:  E(RB3LYP) =  -423.164257065     A.U. after    1 cycles
