 Gaussian 09, Revision D.01,
 Gaussian 09:  ES64L-G09RevD.01 24-Apr-2013

 -----------------------------
 # b3lyp 6-31G(2df,p) opt Freq
 -----------------------------

 -----
 titel
 -----
 Symbolic Z-matrix:
 Charge =  0 Multiplicity = 1

 SCF Done:  E(RB3LYP) =  -423.205350317     A.U. after   14 cycles

 The electronic state is 1-A.
 Alpha  occ. eigenvalues --  -19.19452 -19.13650 -10.23399 -10.22374 -10.22175
 Alpha  occ. eigenvalues --  -10.22009 -10.18411 -10.18373 -10.17351  -1.09867
 Alpha  occ. eigenvalues --   -1.02862  -0.80637  -0.76987  -0.71396  -0.68452
 Alpha  occ. eigenvalues --   -0.63954  -0.58341  -0.53719  -0.50777  -0.48504
 Alpha  occ. eigenvalues --   -0.47218  -0.45136  -0.43685  -0.42796  -0.40564
 Alpha  occ. eigenvalues --   -0.39684  -0.38691  -0.38081  -0.37121  -0.34468
 Alpha  occ. eigenvalues --   -0.31755  -0.26187  -0.25276  -0.21679
 Alpha virt. eigenvalues --    0.01591   0.06713   0.09237   0.11902   0.13533
 Alpha virt. eigenvalues --    0.13759   0.14757   0.15757   0.16346   0.16639
 Alpha virt. eigenvalues --    0.17136   0.18248   0.19296   0.21226   0.23520

 Mulliken charges:
               1
     1  C   -0.220716
     2  O   -0.232381
     3  C   -0.186194
     4  C    0.271379
     5  C    0.171378
     6  C   -0.506812
     7  C   -0.262979
     8  C   -0.013831
     9  O   -0.176593
    10  H    0.099534
    11  H    0.128058
    12  H    0.103226
    13  H    0.096485
    14  H    0.100944
    15  H    0.128274
    16  H    0.134267
    17  H    0.126783
    18  H    0.107122
    19  H    0.132055
 Sum of Mulliken charges =   0.00000

 Dipole moment (field-independent basis, Debye):
    X=              0.0402    Y=              0.8487    Z=              0.8303  Tot=              1.1880
 Quadrupole moment (field-independent basis, Debye-Ang):
   XX=            -45.4564   YY=            -51.2497   ZZ=            -54.8141
   XY=             -1.0270   XZ=             -2.5095   YZ=              0.2014

 Optimization completed.
    -- Stationary point found.
 Normal termination of Gaussian 09 at Mon Jan 27 11:12:34 2020.

 ----------------------------------------------------------------------
 #N Geom=AllCheck Guess=TCheck SCRF=Check GenChk RB3LYP/6-31G(2df,p) Fr
 eq
 ----------------------------------------------------------------------

 Structure from the checkpoint file:  "/scratch/puck/g09_01ff72d8-0f3c-4b32-8ad6-298051f1f16b/Gau-69576.chk"
 -----
 titel
 -----
 Charge =  0 Multiplicity = 1

                         Standard orientation:
 ---------------------------------------------------------------------
 Center     Atomic      Atomic             Coordinates (Angstroms)
 Number     Number       Type             X           Y           Z
 ---------------------------------------------------------------------
      1          6           0       -3.374159   -0.012341   -0.227007
      2          8           0       -2.002386   -0.117999   -0.523112
      3          6           0       -1.190697    0.005307    0.635209
      4          6           0        0.238244   -0.177342    0.282498
      5          6           0        1.257225    0.689271    0.008619
      6          6           0        1.210749    2.185755   -0.007771
      7          6           0        2.401125   -0.133105   -0.276291
      8          6           0        1.987669   -1.419992   -0.155978
      9          8           0        0.678177   -1.470113    0.184963
     10          1           0       -3.625945    0.964877    0.216997
     11          1           0       -3.920072   -0.122601   -1.166990
     12          1           0       -3.705582   -0.797953    0.471263
     13          1           0       -1.331704    0.995966    1.096352
     14          1           0       -1.485529   -0.748531    1.383478
     15          1           0        1.958111    2.616146    0.668354
     16          1           0        1.419436    2.578482   -1.009464
     17          1           0        0.230062    2.562539    0.293546
     18          1           0        3.393925    0.202700   -0.534431
     19          1           0        2.480032   -2.372059   -0.269594
 ---------------------------------------------------------------------

 SCF Done:  E(RB3LYP) =  -423.205350317     A.U. after    1 cycles
