 Gaussian 09, Revision D.01,
 Gaussian 09:  ES64L-G09RevD.01 24-Apr-2013

 -----------------------------
 # b3lyp 6-31G(2df,p) opt Freq
 -----------------------------

 -----
 titel
 -----
 Symbolic Z-matrix:
 Charge =  0 Multiplicity = 1

 SCF Done:  E(RB3LYP) =  -423.085241578     A.U. after   14 cycles

 The electronic state is 1-A.
 Alpha  occ. eigenvalues --  -19.14756 -19.13206 -10.24947 -10.24920 -10.23737
 Alpha  occ. eigenvalues --  -10.23208 -10.19944 -10.19411 -10.18517  -1.06706
 Alpha  occ. eigenvalues --   -1.05546  -0.80301  -0.75830  -0.67344  -0.65242
 Alpha  occ. eigenvalues --   -0.64389  -0.59138  -0.53252  -0.52123  -0.50443
 Alpha  occ. eigenvalues --   -0.47414  -0.45824  -0.43618  -0.40797  -0.39931
 Alpha  occ. eigenvalues --   -0.38048  -0.36511  -0.35488  -0.33130  -0.32318
 Alpha  occ. eigenvalues --   -0.31352  -0.29609  -0.26506  -0.23972
 Alpha virt. eigenvalues --    0.09202   0.09368   0.10989   0.11510   0.11737
 Alpha virt. eigenvalues --    0.12464   0.13009   0.13368   0.13751   0.14745
 Alpha virt. eigenvalues --    0.15623   0.16736   0.17893   0.18779   0.20273

 Mulliken charges:
               1
     1  C   -0.275236
     2  C    0.099558
     3  C   -0.179561
     4  O   -0.240154
     5  C    0.037508
     6  C    0.044190
     7  C   -0.222462
     8  C    0.029075
     9  O   -0.314823
    10  H    0.122328
    11  H    0.099280
    12  H    0.090699
    13  H    0.112147
    14  H    0.113402
    15  H    0.087958
    16  H    0.093809
    17  H    0.099015
    18  H    0.109537
    19  H    0.093730
 Sum of Mulliken charges =   0.00000

 Dipole moment (field-independent basis, Debye):
    X=             -0.1139    Y=             -0.0093    Z=             -0.2210  Tot=              0.2488
 Quadrupole moment (field-independent basis, Debye-Ang):
   XX=            -53.2611   YY=            -56.6221   ZZ=            -50.3539
   XY=              7.9996   XZ=             -3.0929   YZ=              2.3457

 Optimization completed.
    -- Stationary point found.
 Normal termination of Gaussian 09 at Mon Jan 27 11:14:03 2020.

 ----------------------------------------------------------------------
 #N Geom=AllCheck Guess=TCheck SCRF=Check GenChk RB3LYP/6-31G(2df,p) Fr
 eq
 ----------------------------------------------------------------------

 Structure from the checkpoint file:  "/scratch/puck/g09_a6c9d0b6-6e59-4213-b856-63487571cfa2/Gau-15865.chk"
 -----
 titel
 -----
 Charge =  0 Multiplicity = 1

                         Standard orientation:
 ---------------------------------------------------------------------
 Center     Atomic      Atomic             Coordinates (Angstroms)
 Number     Number       Type             X           Y           Z
 ---------------------------------------------------------------------
      1          6           0       -0.661656   -0.670907   -0.359016
      2          6           0       -1.816218   -0.113242    0.438396
      3          6           0       -3.215193   -0.296452    0.036508
      4          8           0       -2.555907    0.954757   -0.167262
      5          6           0        0.528923    0.275431   -0.378130
      6          6           0        1.501354    0.303888    0.839725
      7          6           0        2.601604    0.904668   -0.064384
      8          6           0        1.921357   -0.274509   -0.796785
      9          8           0        1.979870   -1.050518    0.467498
     10          1           0       -0.346775   -1.629391    0.066169
     11          1           0       -1.000155   -0.852271   -1.386230
     12          1           0       -1.617437    0.045398    1.500469
     13          1           0       -3.441219   -0.858603   -0.869048
     14          1           0       -4.003573   -0.294158    0.788080
     15          1           0        0.266422    1.255165   -0.788800
     16          1           0        1.295279    0.489138    1.894667
     17          1           0        2.455873    1.913473   -0.458284
     18          1           0        3.622386    0.712084    0.266016
     19          1           0        2.216463   -0.788013   -1.712812
 ---------------------------------------------------------------------

 SCF Done:  E(RB3LYP) =  -423.085241578     A.U. after    1 cycles
