 Gaussian 09, Revision D.01,
 Gaussian 09:  ES64L-G09RevD.01 24-Apr-2013

 -----------------------------
 # b3lyp 6-31G(2df,p) opt Freq
 -----------------------------

 -----
 titel
 -----
 Symbolic Z-matrix:
 Charge =  0 Multiplicity = 1

 SCF Done:  E(RB3LYP) =  -423.163169077     A.U. after   12 cycles

 The electronic state is 1-A.
 Alpha  occ. eigenvalues --  -19.13817 -19.13635 -10.26405 -10.24152 -10.23340
 Alpha  occ. eigenvalues --  -10.20144 -10.19435 -10.19413 -10.18456  -1.06726
 Alpha  occ. eigenvalues --   -1.01156  -0.84834  -0.75868  -0.71744  -0.67187
 Alpha  occ. eigenvalues --   -0.60987  -0.57656  -0.55913  -0.50764  -0.49191
 Alpha  occ. eigenvalues --   -0.47179  -0.45947  -0.43289  -0.42242  -0.39747
 Alpha  occ. eigenvalues --   -0.38710  -0.36486  -0.35885  -0.34421  -0.32202
 Alpha  occ. eigenvalues --   -0.31036  -0.29471  -0.25721  -0.24932
 Alpha virt. eigenvalues --    0.08222   0.09136   0.10660   0.11478   0.12678
 Alpha virt. eigenvalues --    0.13448   0.15209   0.15999   0.16285   0.17204
 Alpha virt. eigenvalues --    0.17915   0.19049   0.19851   0.20237   0.22220

 Mulliken charges:
               1
     1  C   -0.262615
     2  C    0.099651
     3  C   -0.337083
     4  C    0.293628
     5  C   -0.400785
     6  C   -0.071711
     7  O   -0.290355
     8  C    0.247447
     9  O   -0.294403
    10  H    0.117775
    11  H    0.096281
    12  H    0.085647
    13  H    0.106603
    14  H    0.105348
    15  H    0.109573
    16  H    0.111714
    17  H    0.112593
    18  H    0.107255
    19  H    0.063438
 Sum of Mulliken charges =   0.00000

 Dipole moment (field-independent basis, Debye):
    X=             -0.1189    Y=              3.0170    Z=             -0.1206  Tot=              3.0217
 Quadrupole moment (field-independent basis, Debye-Ang):
   XX=            -50.2272   YY=            -57.6892   ZZ=            -51.3220
   XY=             -0.1908   XZ=              0.9576   YZ=              0.7004

 Optimization completed.
    -- Stationary point found.
 Normal termination of Gaussian 09 at Mon Jan 27 11:17:44 2020.

 ----------------------------------------------------------------------
 #N Geom=AllCheck Guess=TCheck SCRF=Check GenChk RB3LYP/6-31G(2df,p) Fr
 eq
 ----------------------------------------------------------------------

 Structure from the checkpoint file:  "/scratch/puck/g09_4e2315f0-b204-4045-84f7-1e995474cd1b/Gau-46405.chk"
 -----
 titel
 -----
 Charge =  0 Multiplicity = 1

                         Standard orientation:
 ---------------------------------------------------------------------
 Center     Atomic      Atomic             Coordinates (Angstroms)
 Number     Number       Type             X           Y           Z
 ---------------------------------------------------------------------
      1          6           0        0.755555    0.474285    1.229790
      2          6           0        1.802470   -0.181825    0.316053
      3          6           0        1.480149    0.941254   -0.730955
      4          6           0        0.056788    0.692267   -0.155759
      5          6           0       -1.346698    1.236564   -0.264299
      6          6           0       -2.151581   -0.019272    0.216794
      7          8           0       -1.297322   -1.179079    0.099405
      8          6           0       -0.129865   -0.764846   -0.573368
      9          8           0        1.093586   -1.352652   -0.165542
     10          1           0        0.270718   -0.170832    1.963239
     11          1           0        1.080820    1.418762    1.671226
     12          1           0        2.810565   -0.457593    0.619288
     13          1           0        1.917720    1.903265   -0.458584
     14          1           0        1.655717    0.715903   -1.785948
     15          1           0       -1.544857    2.111053    0.359491
     16          1           0       -1.603985    1.490140   -1.298081
     17          1           0       -2.450375    0.073345    1.266333
     18          1           0       -3.056471   -0.172377   -0.381760
     19          1           0       -0.250875   -0.928378   -1.655653
 ---------------------------------------------------------------------

 SCF Done:  E(RB3LYP) =  -423.163169077     A.U. after    1 cycles
