 Gaussian 09, Revision D.01,
 Gaussian 09:  ES64L-G09RevD.01 24-Apr-2013

 -----------------------------
 # b3lyp 6-31G(2df,p) opt Freq
 -----------------------------

 -----
 titel
 -----
 Symbolic Z-matrix:
 Charge =  0 Multiplicity = 1

 SCF Done:  E(RB3LYP) =  -423.114423732     A.U. after   13 cycles

 The electronic state is 1-A.
 Alpha  occ. eigenvalues --  -19.13614 -19.13576 -10.24205 -10.23749 -10.23606
 Alpha  occ. eigenvalues --  -10.23415 -10.19883 -10.19177 -10.18599  -1.05070
 Alpha  occ. eigenvalues --   -1.03891  -0.83602  -0.74882  -0.71685  -0.68251
 Alpha  occ. eigenvalues --   -0.60483  -0.57008  -0.54156  -0.52060  -0.49078
 Alpha  occ. eigenvalues --   -0.48294  -0.45981  -0.44431  -0.42977  -0.40312
 Alpha  occ. eigenvalues --   -0.38668  -0.37687  -0.35613  -0.33911  -0.32251
 Alpha  occ. eigenvalues --   -0.30927  -0.26766  -0.25137  -0.23284
 Alpha virt. eigenvalues --    0.06235   0.08578   0.09567   0.10387   0.11868
 Alpha virt. eigenvalues --    0.12252   0.13615   0.14720   0.15440   0.16273
 Alpha virt. eigenvalues --    0.16957   0.18296   0.18869   0.20721   0.21902

 Mulliken charges:
               1
     1  C   -0.352837
     2  C    0.064527
     3  O   -0.286349
     4  C   -0.143722
     5  C    0.275810
     6  C    0.018814
     7  C   -0.291545
     8  C   -0.061049
     9  O   -0.293653
    10  H    0.109573
    11  H    0.127922
    12  H    0.114851
    13  H    0.106411
    14  H    0.104141
    15  H    0.071898
    16  H    0.110089
    17  H    0.114368
    18  H    0.103368
    19  H    0.107382
 Sum of Mulliken charges =   0.00000

 Dipole moment (field-independent basis, Debye):
    X=              2.0243    Y=              1.3831    Z=              0.9884  Tot=              2.6434
 Quadrupole moment (field-independent basis, Debye-Ang):
   XX=            -57.3730   YY=            -51.1304   ZZ=            -52.7840
   XY=              0.8221   XZ=              0.7250   YZ=             -1.1341

 Optimization completed.
    -- Stationary point found.
 Normal termination of Gaussian 09 at Mon Jan 27 11:14:33 2020.

 ----------------------------------------------------------------------
 #N Geom=AllCheck Guess=TCheck SCRF=Check GenChk RB3LYP/6-31G(2df,p) Fr
 eq
 ----------------------------------------------------------------------

 Structure from the checkpoint file:  "/scratch/puck/g09_5b968168-816e-42da-b1b8-5f5446e4e0c2/Gau-68664.chk"
 -----
 titel
 -----
 Charge =  0 Multiplicity = 1

                         Standard orientation:
 ---------------------------------------------------------------------
 Center     Atomic      Atomic             Coordinates (Angstroms)
 Number     Number       Type             X           Y           Z
 ---------------------------------------------------------------------
      1          6           0       -0.877627   -0.949263    1.020051
      2          6           0       -1.551669   -0.879696   -0.314991
      3          8           0       -2.655835    0.029291   -0.285884
      4          6           0       -1.750420    1.128719   -0.005178
      5          6           0       -0.548393    0.186337    0.070195
      6          6           0        0.822969    0.464258   -0.451800
      7          6           0        1.925942    0.949142    0.525651
      8          6           0        2.695087   -0.295304    0.046730
      9          8           0        1.559732   -0.754604   -0.721947
     10          1           0       -1.458684   -0.778063    1.922413
     11          1           0       -0.091316   -1.693792    1.090270
     12          1           0       -1.543598   -1.654925   -1.071833
     13          1           0       -1.706694    1.816697   -0.858616
     14          1           0       -2.028856    1.680087    0.900894
     15          1           0        0.753924    1.082580   -1.359758
     16          1           0        2.376352    1.917596    0.304792
     17          1           0        1.623845    0.915537    1.573758
     18          1           0        3.559585   -0.087416   -0.596339
     19          1           0        2.988930   -1.020961    0.813117
 ---------------------------------------------------------------------

 SCF Done:  E(RB3LYP) =  -423.114423733     A.U. after    1 cycles
