 Gaussian 09, Revision D.01,
 Gaussian 09:  ES64L-G09RevD.01 24-Apr-2013

 -----------------------------
 # b3lyp 6-31G(2df,p) opt Freq
 -----------------------------

 -----
 titel
 -----
 Symbolic Z-matrix:
 Charge =  0 Multiplicity = 1

 SCF Done:  E(RB3LYP) =  -423.147515794     A.U. after   13 cycles

 The electronic state is 1-A.
 Alpha  occ. eigenvalues --  -19.14288 -19.13830 -10.23986 -10.23433 -10.23091
 Alpha  occ. eigenvalues --  -10.22621 -10.20176 -10.19215 -10.18930  -1.05401
 Alpha  occ. eigenvalues --   -1.03294  -0.84105  -0.76248  -0.74643  -0.64080
 Alpha  occ. eigenvalues --   -0.61560  -0.60224  -0.53427  -0.50936  -0.49588
 Alpha  occ. eigenvalues --   -0.47749  -0.45443  -0.44174  -0.43233  -0.40786
 Alpha  occ. eigenvalues --   -0.40021  -0.38110  -0.36151  -0.33608  -0.31861
 Alpha  occ. eigenvalues --   -0.30757  -0.28481  -0.25119  -0.23093
 Alpha virt. eigenvalues --    0.07248   0.09249   0.10505   0.11196   0.12523
 Alpha virt. eigenvalues --    0.13121   0.14177   0.14648   0.16530   0.16806
 Alpha virt. eigenvalues --    0.17931   0.18468   0.19312   0.20486   0.22818

 Mulliken charges:
               1
     1  C   -0.370892
     2  C    0.047069
     3  O   -0.303525
     4  C    0.056988
     5  C   -0.102203
     6  O   -0.243943
     7  C   -0.072372
     8  C   -0.330054
     9  C    0.292003
    10  H    0.113783
    11  H    0.112228
    12  H    0.102848
    13  H    0.081816
    14  H    0.098939
    15  H    0.109795
    16  H    0.089511
    17  H    0.107394
    18  H    0.099466
    19  H    0.111152
 Sum of Mulliken charges =   0.00000

 Dipole moment (field-independent basis, Debye):
    X=             -0.0391    Y=              1.8440    Z=              0.4045  Tot=              1.8882
 Quadrupole moment (field-independent basis, Debye-Ang):
   XX=            -57.5146   YY=            -52.2644   ZZ=            -51.4332
   XY=             -1.7273   XZ=              1.3518   YZ=              1.8247

 Optimization completed.
    -- Stationary point found.
 Normal termination of Gaussian 09 at Mon Jan 27 11:24:13 2020.

 ----------------------------------------------------------------------
 #N Geom=AllCheck Guess=TCheck SCRF=Check GenChk RB3LYP/6-31G(2df,p) Fr
 eq
 ----------------------------------------------------------------------

 Structure from the checkpoint file:  "/scratch/puck/g09_05e1e7ac-a578-400a-b3e1-1c6c9f74bd61/Gau-22771.chk"
 -----
 titel
 -----
 Charge =  0 Multiplicity = 1

                         Standard orientation:
 ---------------------------------------------------------------------
 Center     Atomic      Atomic             Coordinates (Angstroms)
 Number     Number       Type             X           Y           Z
 ---------------------------------------------------------------------
      1          6           0       -2.008631    0.910587   -0.416079
      2          6           0       -1.601776    0.039048    0.734194
      3          8           0       -1.416668   -1.311813    0.301663
      4          6           0       -0.313529   -0.890050   -0.553698
      5          6           0        1.036616   -1.356962    0.004880
      6          8           0        2.057444   -0.413482   -0.274940
      7          6           0        1.845807    0.809364    0.413891
      8          6           0        0.601581    1.542608   -0.110216
      9          6           0       -0.547605    0.581469   -0.213895
     10          1           0       -2.575762    0.481193   -1.238338
     11          1           0       -2.277018    1.930430   -0.153348
     12          1           0       -1.836501    0.213324    1.778340
     13          1           0       -0.462843   -1.201146   -1.594150
     14          1           0        0.924980   -1.501754    1.090803
     15          1           0        1.353282   -2.303680   -0.440353
     16          1           0        1.742132    0.614173    1.494229
     17          1           0        2.746945    1.409333    0.260424
     18          1           0        0.359276    2.392721    0.538646
     19          1           0        0.824524    1.951385   -1.104506
 ---------------------------------------------------------------------

 SCF Done:  E(RB3LYP) =  -423.147515794     A.U. after    1 cycles
