 Gaussian 09, Revision D.01,
 Gaussian 09:  ES64L-G09RevD.01 24-Apr-2013

 -----------------------------
 # b3lyp 6-31G(2df,p) opt Freq
 -----------------------------

 -----
 titel
 -----
 Symbolic Z-matrix:
 Charge =  0 Multiplicity = 1

 SCF Done:  E(RB3LYP) =  -423.180639018     A.U. after   13 cycles
 SCF Done:  E(RB3LYP) =  -423.180638908     A.U. after    6 cycles
 Optimization completed.
    -- Stationary point found.

 The electronic state is 1-A.
 Alpha  occ. eigenvalues --  -19.14386 -19.14386 -10.27213 -10.23227 -10.23209
 Alpha  occ. eigenvalues --  -10.19314 -10.19314 -10.19111 -10.18064  -1.08593
 Alpha  occ. eigenvalues --   -0.99246  -0.88924  -0.73639  -0.68916  -0.66621
 Alpha  occ. eigenvalues --   -0.62992  -0.56779  -0.55238  -0.52649  -0.49457
 Alpha  occ. eigenvalues --   -0.47143  -0.46217  -0.45649  -0.43212  -0.38407
 Alpha  occ. eigenvalues --   -0.37640  -0.34848  -0.34679  -0.33273  -0.31455
 Alpha  occ. eigenvalues --   -0.31129  -0.30850  -0.26527  -0.25776
 Alpha virt. eigenvalues --    0.09338   0.10873   0.11392   0.12625   0.13304
 Alpha virt. eigenvalues --    0.14057   0.14480   0.16278   0.16750   0.17283
 Alpha virt. eigenvalues --    0.17632   0.18659   0.19905   0.20392   0.21805

 Mulliken charges:
               1
     1  C   -0.237457
     2  C   -0.054586
     3  C   -0.223686
     4  C   -0.054586
     5  C    0.103141
     6  O   -0.268417
     7  C    0.011946
     8  O   -0.268417
     9  C    0.103140
    10  H    0.092027
    11  H    0.104530
    12  H    0.068769
    13  H    0.096397
    14  H    0.111503
    15  H    0.068769
    16  H    0.072482
    17  H    0.083160
    18  H    0.118802
    19  H    0.072482
 Sum of Mulliken charges =   0.00000

 Dipole moment (field-independent basis, Debye):
    X=             -0.9700    Y=              0.0000    Z=             -0.8560  Tot=              1.2937
 Quadrupole moment (field-independent basis, Debye-Ang):
   XX=            -50.3238   YY=            -56.6502   ZZ=            -51.7388
   XY=              0.0000   XZ=             -0.5008   YZ=              0.0000

 Normal termination of Gaussian 09 at Mon Jan 27 11:23:35 2020.

 ----------------------------------------------------------------------
 #N Geom=AllCheck Guess=TCheck SCRF=Check GenChk RB3LYP/6-31G(2df,p) Fr
 eq
 ----------------------------------------------------------------------

 Structure from the checkpoint file:  "/scratch/puck/g09_4c3b7c8d-6372-4688-a832-b5fece339d7d/Gau-42032.chk"
 -----
 titel
 -----
 Charge =  0 Multiplicity = 1

                         Standard orientation:
 ---------------------------------------------------------------------
 Center     Atomic      Atomic             Coordinates (Angstroms)
 Number     Number       Type             X           Y           Z
 ---------------------------------------------------------------------
      1          6           0       -2.053865    0.000000   -0.623623
      2          6           0       -1.142453   -1.032348    0.113227
      3          6           0       -1.087966   -0.000001    1.273068
      4          6           0       -1.142453    1.032348    0.113228
      5          6           0        0.185236    0.783243   -0.615548
      6          8           0        1.340552    1.134242    0.135116
      7          6           0        2.177499   -0.000001    0.108625
      8          8           0        1.340551   -1.134242    0.135116
      9          6           0        0.185236   -0.783242   -0.615550
     10          1           0       -2.056970    0.000001   -1.719160
     11          1           0       -3.079276    0.000000   -0.249086
     12          1           0       -1.440338   -2.069107    0.266150
     13          1           0       -2.006458   -0.000001    1.863528
     14          1           0       -0.211854   -0.000001    1.921854
     15          1           0       -1.440339    2.069106    0.266153
     16          1           0        0.222381    1.237388   -1.612898
     17          1           0        2.800921    0.000000   -0.804645
     18          1           0        2.813322   -0.000001    0.998594
     19          1           0        0.222383   -1.237385   -1.612900
 ---------------------------------------------------------------------

 SCF Done:  E(RB3LYP) =  -423.180638908     A.U. after    1 cycles
