 Gaussian 09, Revision D.01,
 Gaussian 09:  ES64L-G09RevD.01 24-Apr-2013

 -----------------------------
 # b3lyp 6-31G(2df,p) opt Freq
 -----------------------------

 -----
 titel
 -----
 Symbolic Z-matrix:
 Charge =  0 Multiplicity = 1

 SCF Done:  E(RB3LYP) =  -423.158338140     A.U. after   13 cycles

 The electronic state is 1-A.
 Alpha  occ. eigenvalues --  -19.14837 -19.14220 -10.23425 -10.23390 -10.23173
 Alpha  occ. eigenvalues --  -10.23168 -10.19435 -10.19086 -10.18569  -1.07665
 Alpha  occ. eigenvalues --   -1.03391  -0.79911  -0.79500  -0.70976  -0.63667
 Alpha  occ. eigenvalues --   -0.62847  -0.59753  -0.54259  -0.50002  -0.49037
 Alpha  occ. eigenvalues --   -0.47868  -0.45186  -0.44005  -0.41867  -0.39763
 Alpha  occ. eigenvalues --   -0.38876  -0.36967  -0.36331  -0.34458  -0.34156
 Alpha  occ. eigenvalues --   -0.31597  -0.27804  -0.26247  -0.24017
 Alpha virt. eigenvalues --    0.08441   0.09001   0.10638   0.12752   0.13115
 Alpha virt. eigenvalues --    0.13602   0.14289   0.14904   0.15557   0.16809
 Alpha virt. eigenvalues --    0.17349   0.18167   0.19129   0.19242   0.20818

 Mulliken charges:
               1
     1  C   -0.270307
     2  C   -0.069962
     3  O   -0.309136
     4  C    0.453657
     5  C   -0.344412
     6  C   -0.207359
     7  C   -0.069581
     8  O   -0.260218
     9  C    0.044471
    10  H    0.109830
    11  H    0.119899
    12  H    0.102571
    13  H    0.111403
    14  H    0.111504
    15  H    0.110653
    16  H    0.099844
    17  H    0.110335
    18  H    0.088209
    19  H    0.068597
 Sum of Mulliken charges =   0.00000

 Dipole moment (field-independent basis, Debye):
    X=             -1.4268    Y=              0.4155    Z=              0.7946  Tot=              1.6852
 Quadrupole moment (field-independent basis, Debye-Ang):
   XX=            -52.2014   YY=            -55.6205   ZZ=            -51.9227
   XY=             -3.9736   XZ=              3.1809   YZ=              1.7677

 Optimization completed.
    -- Stationary point found.
 Normal termination of Gaussian 09 at Mon Jan 27 11:24:35 2020.

 ----------------------------------------------------------------------
 #N Geom=AllCheck Guess=TCheck SCRF=Check GenChk RB3LYP/6-31G(2df,p) Fr
 eq
 ----------------------------------------------------------------------

 Structure from the checkpoint file:  "/scratch/puck/g09_20a59469-b40f-4cba-99be-8766fbad739b/Gau-22703.chk"
 -----
 titel
 -----
 Charge =  0 Multiplicity = 1

                         Standard orientation:
 ---------------------------------------------------------------------
 Center     Atomic      Atomic             Coordinates (Angstroms)
 Number     Number       Type             X           Y           Z
 ---------------------------------------------------------------------
      1          6           0        1.584503   -1.209041    0.325156
      2          6           0        1.662929    0.284605    0.672754
      3          8           0        1.792212    1.003218   -0.572797
      4          6           0        0.489775    0.602553   -0.158587
      5          6           0       -0.673125    1.535351   -0.082395
      6          6           0       -1.881077    0.749151    0.469781
      7          6           0       -1.990303   -0.629174   -0.193520
      8          8           0       -0.839871   -1.428972    0.056338
      9          6           0        0.323300   -0.884352   -0.535609
     10          1           0        2.454309   -1.614676   -0.195452
     11          1           0        1.310300   -1.845165    1.168735
     12          1           0        2.058683    0.771249    1.556983
     13          1           0       -0.443531    2.415294    0.526931
     14          1           0       -0.901780    1.894824   -1.095321
     15          1           0       -1.767645    0.601947    1.549865
     16          1           0       -2.808324    1.310012    0.309965
     17          1           0       -2.836890   -1.189305    0.213235
     18          1           0       -2.151513   -0.517527   -1.279498
     19          1           0        0.371650   -1.115184   -1.609239
 ---------------------------------------------------------------------

 SCF Done:  E(RB3LYP) =  -423.158338140     A.U. after    1 cycles
