 Gaussian 09, Revision D.01,
 Gaussian 09:  ES64L-G09RevD.01 24-Apr-2013

 -----------------------------
 # b3lyp 6-31G(2df,p) opt Freq
 -----------------------------

 -----
 titel
 -----
 Symbolic Z-matrix:
 Charge =  0 Multiplicity = 1

 SCF Done:  E(RB3LYP) =  -423.110390787     A.U. after   13 cycles
 SCF Done:  E(RB3LYP) =  -423.110391160     A.U. after    7 cycles
 Optimization completed.
    -- Stationary point found.

 The electronic state is 1-A.
 Alpha  occ. eigenvalues --  -19.14338 -19.13609 -10.24600 -10.24112 -10.23836
 Alpha  occ. eigenvalues --  -10.23321 -10.19670 -10.18766 -10.18744  -1.06595
 Alpha  occ. eigenvalues --   -1.03101  -0.80403  -0.77661  -0.68314  -0.67305
 Alpha  occ. eigenvalues --   -0.65271  -0.57785  -0.53793  -0.52115  -0.48850
 Alpha  occ. eigenvalues --   -0.47385  -0.45358  -0.42887  -0.40454  -0.40028
 Alpha  occ. eigenvalues --   -0.38894  -0.37634  -0.34367  -0.33668  -0.32111
 Alpha  occ. eigenvalues --   -0.30769  -0.29800  -0.26140  -0.23558
 Alpha virt. eigenvalues --    0.06249   0.08847   0.10615   0.11494   0.11906
 Alpha virt. eigenvalues --    0.13355   0.14129   0.14869   0.15770   0.16437
 Alpha virt. eigenvalues --    0.17344   0.17936   0.19129   0.20916   0.21666

 Mulliken charges:
               1
     1  C   -0.224490
     2  C   -0.070518
     3  O   -0.260717
     4  C    0.122011
     5  C   -0.024887
     6  O   -0.306125
     7  C    0.006487
     8  C    0.016036
     9  C   -0.240635
    10  H    0.103192
    11  H    0.100525
    12  H    0.113305
    13  H    0.095618
    14  H    0.088799
    15  H    0.093665
    16  H    0.092603
    17  H    0.082687
    18  H    0.113808
    19  H    0.098637
 Sum of Mulliken charges =   0.00000

 Dipole moment (field-independent basis, Debye):
    X=              1.9648    Y=              0.8577    Z=              0.3830  Tot=              2.1777
 Quadrupole moment (field-independent basis, Debye-Ang):
   XX=            -56.8534   YY=            -53.4671   ZZ=            -51.3338
   XY=              0.6173   XZ=              2.9450   YZ=             -1.5174

 Normal termination of Gaussian 09 at Mon Jan 27 11:22:54 2020.

 ----------------------------------------------------------------------
 #N Geom=AllCheck Guess=TCheck SCRF=Check GenChk RB3LYP/6-31G(2df,p) Fr
 eq
 ----------------------------------------------------------------------

 Structure from the checkpoint file:  "/scratch/puck/g09_391fd80e-51ff-4773-9955-2a4ce6e97015/Gau-46350.chk"
 -----
 titel
 -----
 Charge =  0 Multiplicity = 1

                         Standard orientation:
 ---------------------------------------------------------------------
 Center     Atomic      Atomic             Coordinates (Angstroms)
 Number     Number       Type             X           Y           Z
 ---------------------------------------------------------------------
      1          6           0        1.887641    0.656741    0.408279
      2          6           0        1.805628   -0.883057    0.230121
      3          8           0        0.725673   -1.301180   -0.591168
      4          6           0       -0.570112   -1.080129   -0.112720
      5          6           0       -0.930807    0.019225    0.936098
      6          8           0       -2.302196   -0.018559    0.400126
      7          6           0       -1.427829    0.018375   -0.792233
      8          6           0       -0.579129    1.125136   -0.102021
      9          6           0        0.883972    1.409676   -0.480425
     10          1           0        1.701562    0.926581    1.454305
     11          1           0        2.904978    0.994051    0.183232
     12          1           0        2.695929   -1.255320   -0.283820
     13          1           0        1.759274   -1.385196    1.207196
     14          1           0       -1.100810   -2.023760    0.046375
     15          1           0       -0.820715    0.013566    2.021298
     16          1           0       -1.906546    0.018492   -1.771934
     17          1           0       -1.169241    2.029934    0.060878
     18          1           0        1.058866    1.160577   -1.532100
     19          1           0        1.072706    2.483190   -0.379689
 ---------------------------------------------------------------------

 SCF Done:  E(RB3LYP) =  -423.110391160     A.U. after    1 cycles
