 Gaussian 09, Revision D.01,
 Gaussian 09:  ES64L-G09RevD.01 24-Apr-2013

 -----------------------------
 # b3lyp 6-31G(2df,p) opt Freq
 -----------------------------

 -----
 titel
 -----
 Symbolic Z-matrix:
 Charge =  0 Multiplicity = 1

 SCF Done:  E(RB3LYP) =  -423.214761670     A.U. after   14 cycles
 SCF Done:  E(RB3LYP) =  -423.214761736     A.U. after    6 cycles
 SCF Done:  E(RB3LYP) =  -423.214761752     A.U. after    6 cycles
 SCF Done:  E(RB3LYP) =  -423.214761761     A.U. after    6 cycles
 SCF Done:  E(RB3LYP) =  -423.214761767     A.U. after    6 cycles
 Optimization completed.
    -- Stationary point found.

 The electronic state is 1-A.
 Alpha  occ. eigenvalues --  -19.19338 -19.16641 -10.26423 -10.23862 -10.21751
 Alpha  occ. eigenvalues --  -10.18234 -10.17692 -10.17426 -10.17183  -1.11136
 Alpha  occ. eigenvalues --   -1.04766  -0.80354  -0.77233  -0.72370  -0.68474
 Alpha  occ. eigenvalues --   -0.63155  -0.58418  -0.55510  -0.51345  -0.48019
 Alpha  occ. eigenvalues --   -0.47197  -0.45293  -0.42923  -0.40627  -0.39840
 Alpha  occ. eigenvalues --   -0.39306  -0.38787  -0.37364  -0.37007  -0.35072
 Alpha  occ. eigenvalues --   -0.34739  -0.29688  -0.25889  -0.19675
 Alpha virt. eigenvalues --    0.03271   0.08219   0.09772   0.11562   0.13156
 Alpha virt. eigenvalues --    0.13736   0.14871   0.15560   0.15934   0.16828
 Alpha virt. eigenvalues --    0.17505   0.18802   0.19444   0.20592   0.22475

 Mulliken charges:
               1
     1  C   -0.386098
     2  C   -0.060506
     3  O   -0.277534
     4  C    0.346998
     5  C    0.127121
     6  C   -0.507307
     7  C   -0.265013
     8  C   -0.016363
     9  O   -0.188177
    10  H    0.133158
    11  H    0.129529
    12  H    0.120733
    13  H    0.121368
    14  H    0.104476
    15  H    0.126812
    16  H    0.123448
    17  H    0.130441
    18  H    0.106020
    19  H    0.130895
 Sum of Mulliken charges =   0.00000

 Dipole moment (field-independent basis, Debye):
    X=              0.4926    Y=             -0.0730    Z=              0.9587  Tot=              1.0804
 Quadrupole moment (field-independent basis, Debye-Ang):
   XX=            -46.4457   YY=            -51.3418   ZZ=            -54.7921
   XY=             -0.2740   XZ=              0.8681   YZ=             -0.0213

 Normal termination of Gaussian 09 at Mon Jan 27 11:26:19 2020.

 ----------------------------------------------------------------------
 #N Geom=AllCheck Guess=TCheck SCRF=Check GenChk RB3LYP/6-31G(2df,p) Fr
 eq
 ----------------------------------------------------------------------

 Structure from the checkpoint file:  "/scratch/puck/g09_aa50ff5f-acb0-48d0-8316-e3751208a47e/Gau-69574.chk"
 -----
 titel
 -----
 Charge =  0 Multiplicity = 1

                         Standard orientation:
 ---------------------------------------------------------------------
 Center     Atomic      Atomic             Coordinates (Angstroms)
 Number     Number       Type             X           Y           Z
 ---------------------------------------------------------------------
      1          6           0        3.416732    0.186568   -0.009658
      2          6           0        2.067445   -0.364176    0.408446
      3          8           0        1.067783    0.245378   -0.430592
      4          6           0       -0.201862   -0.094793   -0.176458
      5          6           0       -1.307805    0.677005    0.007555
      6          6           0       -1.359113    2.171430    0.052591
      7          6           0       -2.392741   -0.263136    0.140242
      8          6           0       -1.858421   -1.503779    0.038932
      9          8           0       -0.507843   -1.423148   -0.163892
     10          1           0        3.618580   -0.047439   -1.058594
     11          1           0        3.447321    1.272756    0.113086
     12          1           0        4.207900   -0.255260    0.603202
     13          1           0        2.027146   -1.452261    0.288249
     14          1           0        1.843526   -0.128192    1.457391
     15          1           0       -1.959401    2.583315   -0.767245
     16          1           0       -1.801293    2.533087    0.988111
     17          1           0       -0.352489    2.589204   -0.029927
     18          1           0       -3.434160   -0.027097    0.299319
     19          1           0       -2.262057   -2.500668    0.092379
 ---------------------------------------------------------------------

 SCF Done:  E(RB3LYP) =  -423.214761767     A.U. after    1 cycles
