 Gaussian 09, Revision D.01,
 Gaussian 09:  ES64L-G09RevD.01 24-Apr-2013

 -----------------------------
 # b3lyp 6-31G(2df,p) opt Freq
 -----------------------------

 -----
 titel
 -----
 Symbolic Z-matrix:
 Charge =  0 Multiplicity = 1

 SCF Done:  E(RB3LYP) =  -423.127337535     A.U. after   12 cycles

 The electronic state is 1-A.
 Alpha  occ. eigenvalues --  -19.14294 -19.13258 -10.24688 -10.24584 -10.22709
 Alpha  occ. eigenvalues --  -10.22709 -10.19634 -10.18769 -10.18747  -1.05830
 Alpha  occ. eigenvalues --   -1.03076  -0.85111  -0.75648  -0.69719  -0.69365
 Alpha  occ. eigenvalues --   -0.60962  -0.56385  -0.53026  -0.51090  -0.50334
 Alpha  occ. eigenvalues --   -0.47810  -0.46859  -0.45484  -0.42450  -0.40277
 Alpha  occ. eigenvalues --   -0.38281  -0.37730  -0.35629  -0.33404  -0.32441
 Alpha  occ. eigenvalues --   -0.31294  -0.28338  -0.24894  -0.23411
 Alpha virt. eigenvalues --    0.06389   0.08290   0.09221   0.10350   0.10717
 Alpha virt. eigenvalues --    0.12387   0.14569   0.14887   0.14956   0.17316
 Alpha virt. eigenvalues --    0.17782   0.18235   0.20102   0.21210   0.22192

 Mulliken charges:
               1
     1  C   -0.333261
     2  C   -0.333259
     3  C    0.451410
     4  C   -0.439671
     5  C    0.364676
     6  C   -0.127958
     7  O   -0.274894
     8  C   -0.127961
     9  O   -0.322748
    10  H    0.127214
    11  H    0.115671
    12  H    0.115670
    13  H    0.127214
    14  H    0.116331
    15  H    0.116332
    16  H    0.101529
    17  H    0.111087
    18  H    0.101529
    19  H    0.111087
 Sum of Mulliken charges =   0.00000

 Dipole moment (field-independent basis, Debye):
    X=              1.8343    Y=              0.0000    Z=              1.4268  Tot=              2.3239
 Quadrupole moment (field-independent basis, Debye-Ang):
   XX=            -59.7233   YY=            -50.0616   ZZ=            -52.5033
   XY=              0.0002   XZ=              0.7699   YZ=              0.0000

 Optimization completed.
    -- Stationary point found.
 Normal termination of Gaussian 09 at Mon Jan 27 11:24:42 2020.

 ----------------------------------------------------------------------
 #N Geom=AllCheck Guess=TCheck SCRF=Check GenChk RB3LYP/6-31G(2df,p) Fr
 eq
 ----------------------------------------------------------------------

 Structure from the checkpoint file:  "/scratch/puck/g09_878b4324-b355-43b4-9ba1-63b2da46cef7/Gau-61604.chk"
 -----
 titel
 -----
 Charge =  0 Multiplicity = 1

                         Standard orientation:
 ---------------------------------------------------------------------
 Center     Atomic      Atomic             Coordinates (Angstroms)
 Number     Number       Type             X           Y           Z
 ---------------------------------------------------------------------
      1          6           0        2.620322   -0.762918   -0.107399
      2          6           0        2.620282    0.762964   -0.107380
      3          6           0        1.350724   -0.000014    0.058240
      4          6           0        0.329197   -0.000047    1.187106
      5          6           0       -0.703151   -0.000017    0.043315
      6          6           0       -1.833867    1.035977   -0.083153
      7          8           0       -2.836616    0.000030   -0.028380
      8          6           0       -1.833910   -1.035958   -0.083180
      9          8           0        0.333656   -0.000025   -0.951197
     10          1           0        2.776960   -1.258859   -1.059359
     11          1           0        3.030190   -1.285151    0.751306
     12          1           0        3.030120    1.285195    0.751341
     13          1           0        2.776897    1.258938   -1.059326
     14          1           0        0.319801   -0.892383    1.817262
     15          1           0        0.319797    0.892240    1.817333
     16          1           0       -1.939513    1.760962    0.733047
     17          1           0       -1.824251    1.561900   -1.046626
     18          1           0       -1.939587   -1.760960    0.733001
     19          1           0       -1.824317   -1.561856   -1.046666
 ---------------------------------------------------------------------

 SCF Done:  E(RB3LYP) =  -423.127337535     A.U. after    1 cycles
