 Gaussian 09, Revision D.01,
 Gaussian 09:  ES64L-G09RevD.01 24-Apr-2013

 -----------------------------
 # b3lyp 6-31G(2df,p) opt Freq
 -----------------------------

 -----
 titel
 -----
 Symbolic Z-matrix:
 Charge =  0 Multiplicity = 1

 SCF Done:  E(RB3LYP) =  -423.121436248     A.U. after   13 cycles

 The electronic state is 1-A.
 Alpha  occ. eigenvalues --  -19.14990 -19.13232 -10.24254 -10.23667 -10.23490
 Alpha  occ. eigenvalues --  -10.23126 -10.20241 -10.19270 -10.19235  -1.07676
 Alpha  occ. eigenvalues --   -1.03801  -0.80427  -0.76758  -0.69329  -0.66576
 Alpha  occ. eigenvalues --   -0.62476  -0.57840  -0.54221  -0.52272  -0.49923
 Alpha  occ. eigenvalues --   -0.46343  -0.45889  -0.43808  -0.42525  -0.40703
 Alpha  occ. eigenvalues --   -0.39672  -0.36624  -0.35201  -0.34720  -0.32185
 Alpha  occ. eigenvalues --   -0.30569  -0.29166  -0.25193  -0.24922
 Alpha virt. eigenvalues --    0.07506   0.08479   0.09850   0.10188   0.10631
 Alpha virt. eigenvalues --    0.12457   0.12846   0.14042   0.14713   0.16313
 Alpha virt. eigenvalues --    0.17279   0.18428   0.18862   0.19512   0.20726

 Mulliken charges:
               1
     1  C   -0.235072
     2  C   -0.300305
     3  C    0.434385
     4  O   -0.293488
     5  C   -0.044583
     6  C   -0.180833
     7  C   -0.080144
     8  O   -0.271298
     9  C   -0.078752
    10  H    0.107802
    11  H    0.113799
    12  H    0.110088
    13  H    0.107758
    14  H    0.106602
    15  H    0.088724
    16  H    0.114339
    17  H    0.101866
    18  H    0.099307
    19  H    0.099805
 Sum of Mulliken charges =   0.00000

 Dipole moment (field-independent basis, Debye):
    X=             -0.8556    Y=              1.4713    Z=             -0.2188  Tot=              1.7160
 Quadrupole moment (field-independent basis, Debye-Ang):
   XX=            -57.5085   YY=            -52.8172   ZZ=            -52.4882
   XY=             -2.0000   XZ=             -5.4089   YZ=             -1.8913

 Optimization completed.
    -- Stationary point found.
 Normal termination of Gaussian 09 at Mon Jan 27 11:14:35 2020.

 ----------------------------------------------------------------------
 #N Geom=AllCheck Guess=TCheck SCRF=Check GenChk RB3LYP/6-31G(2df,p) Fr
 eq
 ----------------------------------------------------------------------

 Structure from the checkpoint file:  "/scratch/puck/g09_cb859cbf-a330-45e9-95a4-9d4ef74bbcfd/Gau-68670.chk"
 -----
 titel
 -----
 Charge =  0 Multiplicity = 1

                         Standard orientation:
 ---------------------------------------------------------------------
 Center     Atomic      Atomic             Coordinates (Angstroms)
 Number     Number       Type             X           Y           Z
 ---------------------------------------------------------------------
      1          6           0       -2.420486    0.337480    0.663343
      2          6           0       -1.680569    1.029183   -0.535270
      3          6           0       -0.549370   -0.006105   -0.375999
      4          8           0       -1.160432   -1.296163   -0.537251
      5          6           0       -1.255609   -0.657249    0.745720
      6          6           0        0.893166    0.137005   -0.727690
      7          6           0        1.848180   -0.917283   -0.128119
      8          8           0        2.490617    0.070440    0.705632
      9          6           0        1.713074    1.135294    0.128180
     10          1           0       -2.498174    0.986195    1.538866
     11          1           0       -3.393854   -0.110245    0.450960
     12          1           0       -2.182911    1.011810   -1.505222
     13          1           0       -1.371783    2.051298   -0.302043
     14          1           0       -0.884819   -1.212510    1.600141
     15          1           0        0.997587    0.280765   -1.807192
     16          1           0        1.371595   -1.712588    0.454720
     17          1           0        2.546967   -1.368861   -0.842492
     18          1           0        1.148744    1.692838    0.886146
     19          1           0        2.334855    1.837132   -0.441921
 ---------------------------------------------------------------------

 SCF Done:  E(RB3LYP) =  -423.121436248     A.U. after    1 cycles
