 Gaussian 09, Revision D.01,
 Gaussian 09:  ES64L-G09RevD.01 24-Apr-2013

 -----------------------------
 # b3lyp 6-31G(2df,p) opt Freq
 -----------------------------

 -----
 titel
 -----
 Symbolic Z-matrix:
 Charge =  0 Multiplicity = 1

 SCF Done:  E(RB3LYP) =  -423.171581628     A.U. after   13 cycles

 The electronic state is 1-A.
 Alpha  occ. eigenvalues --  -19.13927 -19.13877 -10.27296 -10.23441 -10.23254
 Alpha  occ. eigenvalues --  -10.19699 -10.19112 -10.19007 -10.18685  -1.07757
 Alpha  occ. eigenvalues --   -1.00016  -0.85215  -0.78102  -0.72902  -0.66161
 Alpha  occ. eigenvalues --   -0.61705  -0.58263  -0.54068  -0.50252  -0.49343
 Alpha  occ. eigenvalues --   -0.48213  -0.45745  -0.43359  -0.42349  -0.39923
 Alpha  occ. eigenvalues --   -0.39475  -0.37947  -0.35452  -0.33768  -0.32994
 Alpha  occ. eigenvalues --   -0.31847  -0.26632  -0.25426  -0.24810
 Alpha virt. eigenvalues --    0.07985   0.09898   0.11854   0.12430   0.12858
 Alpha virt. eigenvalues --    0.13552   0.14098   0.15141   0.16493   0.16758
 Alpha virt. eigenvalues --    0.17018   0.18516   0.20962   0.21130   0.23132

 Mulliken charges:
               1
     1  C   -0.389608
     2  C   -0.081605
     3  C   -0.270307
     4  C    0.191328
     5  O   -0.280226
     6  C    0.410979
     7  C   -0.309149
     8  C   -0.056544
     9  O   -0.272400
    10  H    0.115845
    11  H    0.125137
    12  H    0.092412
    13  H    0.108271
    14  H    0.108815
    15  H    0.086507
    16  H    0.101677
    17  H    0.115146
    18  H    0.094914
    19  H    0.108809
 Sum of Mulliken charges =   0.00000

 Dipole moment (field-independent basis, Debye):
    X=              0.7986    Y=              0.8178    Z=              1.5450  Tot=              1.9219
 Quadrupole moment (field-independent basis, Debye-Ang):
   XX=            -54.5761   YY=            -49.4848   ZZ=            -54.5715
   XY=             -1.3414   XZ=             -0.2679   YZ=              1.2278

 Optimization completed.
    -- Stationary point found.
 Normal termination of Gaussian 09 at Mon Jan 27 11:19:13 2020.

 ----------------------------------------------------------------------
 #N Geom=AllCheck Guess=TCheck SCRF=Check GenChk RB3LYP/6-31G(2df,p) Fr
 eq
 ----------------------------------------------------------------------

 Structure from the checkpoint file:  "/scratch/puck/g09_ac102d38-bdfc-4e13-9bbd-51eeae368d02/Gau-164693.chk"
 -----
 titel
 -----
 Charge =  0 Multiplicity = 1

                         Standard orientation:
 ---------------------------------------------------------------------
 Center     Atomic      Atomic             Coordinates (Angstroms)
 Number     Number       Type             X           Y           Z
 ---------------------------------------------------------------------
      1          6           0        2.098693    0.586781   -0.074433
      2          6           0        1.130908   -0.128903    0.863898
      3          6           0        0.508878   -1.510739    0.659475
      4          6           0       -0.522478   -1.189707   -0.458343
      5          8           0        0.207085   -0.293020   -1.272524
      6          6           0        0.630626    0.677708   -0.319201
      7          6           0       -0.503976    1.639948   -0.102799
      8          6           0       -1.606002    0.746490    0.537260
      9          8           0       -1.716066   -0.565698   -0.030696
     10          1           0        2.628993    1.430305    0.357001
     11          1           0        2.658806    0.023040   -0.813154
     12          1           0        1.046006    0.312009    1.851026
     13          1           0        1.205580   -2.276411    0.302432
     14          1           0        0.036068   -1.879281    1.573432
     15          1           0       -0.839725   -2.048847   -1.054129
     16          1           0       -0.258870    2.455479    0.584955
     17          1           0       -0.833807    2.071270   -1.052603
     18          1           0       -1.391821    0.661142    1.612497
     19          1           0       -2.599278    1.191572    0.429169
 ---------------------------------------------------------------------

 SCF Done:  E(RB3LYP) =  -423.171581628     A.U. after    1 cycles
