 Gaussian 09, Revision D.01,
 Gaussian 09:  ES64L-G09RevD.01 24-Apr-2013

 -----------------------------
 # b3lyp 6-31G(2df,p) opt Freq
 -----------------------------

 -----
 titel
 -----
 Symbolic Z-matrix:
 Charge =  0 Multiplicity = 1

 SCF Done:  E(RB3LYP) =  -423.175557146     A.U. after   13 cycles

 The electronic state is 1-A.
 Alpha  occ. eigenvalues --  -19.14680 -19.12949 -10.27160 -10.23850 -10.22781
 Alpha  occ. eigenvalues --  -10.19811 -10.19047 -10.18746 -10.18273  -1.07878
 Alpha  occ. eigenvalues --   -0.99315  -0.86010  -0.77909  -0.70688  -0.67543
 Alpha  occ. eigenvalues --   -0.60520  -0.58707  -0.52665  -0.51313  -0.50069
 Alpha  occ. eigenvalues --   -0.49226  -0.45579  -0.43072  -0.40606  -0.40293
 Alpha  occ. eigenvalues --   -0.37449  -0.36892  -0.36057  -0.34714  -0.33848
 Alpha  occ. eigenvalues --   -0.30166  -0.29080  -0.25229  -0.24022
 Alpha virt. eigenvalues --    0.08019   0.09634   0.11276   0.11426   0.13090
 Alpha virt. eigenvalues --    0.14214   0.14711   0.16053   0.16141   0.16917
 Alpha virt. eigenvalues --    0.17703   0.18398   0.20950   0.21607   0.23076

 Mulliken charges:
               1
     1  C   -0.410845
     2  C   -0.093355
     3  C   -0.087643
     4  O   -0.292148
     5  C    0.205651
     6  C   -0.244105
     7  C   -0.306100
     8  C    0.427939
     9  O   -0.273724
    10  H    0.122567
    11  H    0.129208
    12  H    0.091506
    13  H    0.104341
    14  H    0.108241
    15  H    0.084710
    16  H    0.105334
    17  H    0.115313
    18  H    0.107867
    19  H    0.105241
 Sum of Mulliken charges =   0.00000

 Dipole moment (field-independent basis, Debye):
    X=              0.4433    Y=             -1.2685    Z=             -0.9588  Tot=              1.6508
 Quadrupole moment (field-independent basis, Debye-Ang):
   XX=            -49.9383   YY=            -54.2433   ZZ=            -53.7815
   XY=              0.9953   XZ=             -0.8851   YZ=              1.4894

 Optimization completed.
    -- Stationary point found.
 Normal termination of Gaussian 09 at Mon Jan 27 11:15:52 2020.

 ----------------------------------------------------------------------
 #N Geom=AllCheck Guess=TCheck SCRF=Check GenChk RB3LYP/6-31G(2df,p) Fr
 eq
 ----------------------------------------------------------------------

 Structure from the checkpoint file:  "/scratch/puck/g09_c01a4ba1-93f2-45ff-97ce-222edd15a7e8/Gau-68812.chk"
 -----
 titel
 -----
 Charge =  0 Multiplicity = 1

                         Standard orientation:
 ---------------------------------------------------------------------
 Center     Atomic      Atomic             Coordinates (Angstroms)
 Number     Number       Type             X           Y           Z
 ---------------------------------------------------------------------
      1          6           0        1.881061   -0.970211    0.274728
      2          6           0        1.258166    0.057561   -0.664534
      3          6           0        0.945402    1.498143   -0.309664
      4          8           0       -0.483219    1.674808   -0.231150
      5          6           0       -1.139321    0.637519    0.497478
      6          6           0       -1.792785   -0.427286   -0.438638
      7          6           0       -0.751175   -1.593467   -0.441445
      8          6           0        0.405356   -0.855865    0.189255
      9          8           0       -0.190189   -0.099722    1.239850
     10          1           0        2.369238   -1.817258   -0.194337
     11          1           0        2.340004   -0.636005    1.199465
     12          1           0        1.313757   -0.176531   -1.723194
     13          1           0        1.414699    1.785658    0.638133
     14          1           0        1.275155    2.197107   -1.081192
     15          1           0       -1.839970    1.113731    1.187956
     16          1           0       -2.760491   -0.746768   -0.044500
     17          1           0       -1.948407   -0.001110   -1.431154
     18          1           0       -1.089989   -2.429319    0.178045
     19          1           0       -0.526959   -1.968559   -1.441906
 ---------------------------------------------------------------------

 SCF Done:  E(RB3LYP) =  -423.175557146     A.U. after    1 cycles
