 Gaussian 09, Revision D.01,
 Gaussian 09:  ES64L-G09RevD.01 24-Apr-2013

 -----------------------------
 # b3lyp 6-31G(2df,p) opt Freq
 -----------------------------

 -----
 titel
 -----
 Symbolic Z-matrix:
 Charge =  0 Multiplicity = 1

 SCF Done:  E(RB3LYP) =  -423.209752516     A.U. after   14 cycles

 The electronic state is 1-A.
 Alpha  occ. eigenvalues --  -19.19865 -19.17467 -10.27561 -10.23950 -10.21452
 Alpha  occ. eigenvalues --  -10.18840 -10.18277 -10.17481 -10.16340  -1.11867
 Alpha  occ. eigenvalues --   -1.05420  -0.80012  -0.78554  -0.72898  -0.68222
 Alpha  occ. eigenvalues --   -0.60929  -0.58632  -0.55883  -0.53504  -0.49575
 Alpha  occ. eigenvalues --   -0.47621  -0.45235  -0.43978  -0.41048  -0.40934
 Alpha  occ. eigenvalues --   -0.38994  -0.37876  -0.36864  -0.36031  -0.34904
 Alpha  occ. eigenvalues --   -0.33548  -0.32459  -0.26706  -0.19111
 Alpha virt. eigenvalues --    0.03862   0.08571   0.09205   0.10832   0.12875
 Alpha virt. eigenvalues --    0.13547   0.14584   0.15051   0.16252   0.16825
 Alpha virt. eigenvalues --    0.17636   0.18363   0.19843   0.19863   0.22008

 Mulliken charges:
               1
     1  C   -0.385304
     2  C   -0.186894
     3  C   -0.054769
     4  O   -0.279146
     5  C    0.454478
     6  C   -0.321686
     7  C   -0.159663
     8  C   -0.036480
     9  O   -0.187238
    10  H    0.121424
    11  H    0.119986
    12  H    0.119981
    13  H    0.112031
    14  H    0.112033
    15  H    0.113294
    16  H    0.113277
    17  H    0.107131
    18  H    0.108702
    19  H    0.128844
 Sum of Mulliken charges =   0.00000

 Dipole moment (field-independent basis, Debye):
    X=             -0.9835    Y=              0.6645    Z=              0.0008  Tot=              1.1869
 Quadrupole moment (field-independent basis, Debye-Ang):
   XX=            -47.1321   YY=            -52.1021   ZZ=            -54.7006
   XY=              0.2852   XZ=              0.0012   YZ=             -0.0013

 Optimization completed.
    -- Stationary point found.
 Normal termination of Gaussian 09 at Mon Jan 27 11:16:03 2020.

 ----------------------------------------------------------------------
 #N Geom=AllCheck Guess=TCheck SCRF=Check GenChk RB3LYP/6-31G(2df,p) Fr
 eq
 ----------------------------------------------------------------------

 Structure from the checkpoint file:  "/scratch/puck/g09_ff04fc6b-bf89-4fc5-bdd9-474b2be25312/Gau-22658.chk"
 -----
 titel
 -----
 Charge =  0 Multiplicity = 1

                         Standard orientation:
 ---------------------------------------------------------------------
 Center     Atomic      Atomic             Coordinates (Angstroms)
 Number     Number       Type             X           Y           Z
 ---------------------------------------------------------------------
      1          6           0       -3.878540    0.479253    0.000458
      2          6           0       -2.706240   -0.505586   -0.000199
      3          6           0       -1.364142    0.207979    0.000003
      4          8           0       -0.340610   -0.796620   -0.000548
      5          6           0        0.931414   -0.390616   -0.000154
      6          6           0        2.084730   -1.114178    0.000317
      7          6           0        3.139981   -0.139591    0.000381
      8          6           0        2.552949    1.080896   -0.000004
      9          8           0        1.182093    0.939526   -0.000378
     10          1           0       -4.833990   -0.052398   -0.000095
     11          1           0       -3.857976    1.125121    0.885034
     12          1           0       -3.857770    1.126554   -0.883071
     13          1           0       -2.756867   -1.158519    0.878387
     14          1           0       -2.757080   -1.157622   -0.879438
     15          1           0       -1.253146    0.847013   -0.884983
     16          1           0       -1.252964    0.846227    0.885537
     17          1           0        2.164774   -2.187824    0.000578
     18          1           0        4.200955   -0.336016    0.000708
     19          1           0        2.911286    2.095281   -0.000057
 ---------------------------------------------------------------------

 SCF Done:  E(RB3LYP) =  -423.209752516     A.U. after    1 cycles
