 Gaussian 09, Revision D.01,
 Gaussian 09:  ES64L-G09RevD.01 24-Apr-2013

 -----------------------------
 # b3lyp 6-31G(2df,p) opt Freq
 -----------------------------

 -----
 titel
 -----
 Symbolic Z-matrix:
 Charge =  0 Multiplicity = 1

 SCF Done:  E(RB3LYP) =  -423.159149003     A.U. after   12 cycles

 The electronic state is 1-A.
 Alpha  occ. eigenvalues --  -19.13499 -19.13468 -10.23576 -10.23576 -10.23234
 Alpha  occ. eigenvalues --  -10.23184 -10.20623 -10.19633 -10.18803  -1.04143
 Alpha  occ. eigenvalues --   -1.03354  -0.81452  -0.75055  -0.72073  -0.69539
 Alpha  occ. eigenvalues --   -0.61327  -0.57757  -0.54895  -0.51168  -0.50020
 Alpha  occ. eigenvalues --   -0.48076  -0.44706  -0.44267  -0.41623  -0.41597
 Alpha  occ. eigenvalues --   -0.40461  -0.40200  -0.35594  -0.34890  -0.32184
 Alpha  occ. eigenvalues --   -0.30529  -0.27001  -0.25095  -0.23195
 Alpha virt. eigenvalues --    0.00965   0.07592   0.08173   0.09509   0.10844
 Alpha virt. eigenvalues --    0.11915   0.13507   0.15106   0.16977   0.17279
 Alpha virt. eigenvalues --    0.18013   0.18445   0.18641   0.21460   0.21695

 Mulliken charges:
               1
     1  C   -0.086736
     2  O   -0.269426
     3  C   -0.086690
     4  C   -0.153638
     5  C    0.316128
     6  C   -0.226211
     7  C   -0.101806
     8  O   -0.264336
     9  C   -0.158207
    10  H    0.107968
    11  H    0.102877
    12  H    0.102874
    13  H    0.107976
    14  H    0.084969
    15  H    0.100463
    16  H    0.105674
    17  H    0.105674
    18  H    0.106233
    19  H    0.106214
 Sum of Mulliken charges =   0.00000

 Dipole moment (field-independent basis, Debye):
    X=             -0.4160    Y=              2.0221    Z=             -0.0037  Tot=              2.0645
 Quadrupole moment (field-independent basis, Debye-Ang):
   XX=            -62.2435   YY=            -52.3284   ZZ=            -51.2273
   XY=             -1.6479   XZ=             -0.0040   YZ=              0.0050

 Optimization completed.
    -- Stationary point found.
 Normal termination of Gaussian 09 at Mon Jan 27 11:23:18 2020.

 ----------------------------------------------------------------------
 #N Geom=AllCheck Guess=TCheck SCRF=Check GenChk RB3LYP/6-31G(2df,p) Fr
 eq
 ----------------------------------------------------------------------

 Structure from the checkpoint file:  "/scratch/puck/g09_656c2c86-90ba-42a7-9b31-6c8d2bfea2f1/Gau-61499.chk"
 -----
 titel
 -----
 Charge =  0 Multiplicity = 1

                         Standard orientation:
 ---------------------------------------------------------------------
 Center     Atomic      Atomic             Coordinates (Angstroms)
 Number     Number       Type             X           Y           Z
 ---------------------------------------------------------------------
      1          6           0        1.972198    0.023084   -1.033959
      2          8           0        2.873611   -0.408683    0.001343
      3          6           0        1.971589    0.027585    1.034222
      4          6           0        1.020652    0.691782   -0.001632
      5          6           0       -0.424668    0.335942   -0.000983
      6          6           0       -1.465968    1.166720   -0.001272
      7          6           0       -2.753156    0.397874    0.000092
      8          8           0       -2.366296   -0.974035    0.001222
      9          6           0       -0.947961   -1.083909    0.000594
     10          1           0        2.454780    0.697341   -1.750484
     11          1           0        1.537263   -0.823825   -1.580965
     12          1           0        1.536194   -0.816932    1.584544
     13          1           0        2.453726    0.704939    1.748117
     14          1           0        1.128844    1.778417   -0.003990
     15          1           0       -1.421405    2.249124   -0.002369
     16          1           0       -3.373002    0.612940    0.885525
     17          1           0       -3.373882    0.611234   -0.885134
     18          1           0       -0.618110   -1.652183    0.884947
     19          1           0       -0.619041   -1.653768   -0.883082
 ---------------------------------------------------------------------

 SCF Done:  E(RB3LYP) =  -423.159149004     A.U. after    1 cycles
