 Gaussian 09, Revision D.01,
 Gaussian 09:  ES64L-G09RevD.01 24-Apr-2013

 -----------------------------
 # b3lyp 6-31G(2df,p) opt Freq
 -----------------------------

 -----
 titel
 -----
 Symbolic Z-matrix:
 Charge =  0 Multiplicity = 1

 SCF Done:  E(RB3LYP) =  -423.092504058     A.U. after   14 cycles

 The electronic state is 1-A.
 Alpha  occ. eigenvalues --  -19.14936 -19.12556 -10.25083 -10.24517 -10.23879
 Alpha  occ. eigenvalues --  -10.23380 -10.19484 -10.18985 -10.18626  -1.06921
 Alpha  occ. eigenvalues --   -1.04964  -0.79244  -0.76938  -0.67724  -0.66782
 Alpha  occ. eigenvalues --   -0.62631  -0.59201  -0.53812  -0.51463  -0.47680
 Alpha  occ. eigenvalues --   -0.47392  -0.45133  -0.44238  -0.43495  -0.38954
 Alpha  occ. eigenvalues --   -0.38327  -0.36327  -0.34611  -0.33201  -0.32341
 Alpha  occ. eigenvalues --   -0.32231  -0.29133  -0.26700  -0.23426
 Alpha virt. eigenvalues --    0.08805   0.10202   0.10900   0.11535   0.11941
 Alpha virt. eigenvalues --    0.12429   0.13151   0.14030   0.15317   0.15584
 Alpha virt. eigenvalues --    0.16255   0.16743   0.18026   0.18821   0.19667

 Mulliken charges:
               1
     1  C   -0.379753
     2  C    0.101866
     3  C   -0.183443
     4  O   -0.236679
     5  C    0.439006
     6  C   -0.270793
     7  C    0.051031
     8  C   -0.244021
     9  O   -0.350731
    10  H    0.116021
    11  H    0.112885
    12  H    0.113514
    13  H    0.111123
    14  H    0.115822
    15  H    0.103811
    16  H    0.093731
    17  H    0.094905
    18  H    0.117859
    19  H    0.093847
 Sum of Mulliken charges =   0.00000

 Dipole moment (field-independent basis, Debye):
    X=             -0.0111    Y=             -1.3911    Z=             -1.1056  Tot=              1.7770
 Quadrupole moment (field-independent basis, Debye-Ang):
   XX=            -48.2908   YY=            -53.5967   ZZ=            -54.4676
   XY=              4.4939   XZ=             -3.3658   YZ=              1.3787

 Optimization completed.
    -- Stationary point found.
 Normal termination of Gaussian 09 at Mon Jan 27 11:16:50 2020.

 ----------------------------------------------------------------------
 #N Geom=AllCheck Guess=TCheck SCRF=Check GenChk RB3LYP/6-31G(2df,p) Fr
 eq
 ----------------------------------------------------------------------

 Structure from the checkpoint file:  "/scratch/puck/g09_9d518e49-7a76-4252-a685-071d64a729b4/Gau-18562.chk"
 -----
 titel
 -----
 Charge =  0 Multiplicity = 1

                         Standard orientation:
 ---------------------------------------------------------------------
 Center     Atomic      Atomic             Coordinates (Angstroms)
 Number     Number       Type             X           Y           Z
 ---------------------------------------------------------------------
      1          6           0       -0.572634   -0.987080   -0.227971
      2          6           0       -1.655279   -0.185485    0.457619
      3          6           0       -3.046052   -0.195834   -0.007390
      4          8           0       -2.191921    0.916327   -0.282551
      5          6           0        0.762747   -0.302115   -0.152279
      6          6           0        2.167226   -0.788675   -0.599230
      7          6           0        2.317307    0.498029    0.244455
      8          6           0        1.157740    1.149678   -0.539523
      9          8           0        1.330759   -0.049343    1.205562
     10          1           0       -0.490997   -1.974982    0.242914
     11          1           0       -0.839122   -1.138490   -1.280003
     12          1           0       -1.463187    0.039908    1.506325
     13          1           0       -3.318140   -0.801330   -0.871663
     14          1           0       -3.855652   -0.003313    0.695113
     15          1           0        2.515044   -1.703052   -0.116168
     16          1           0        2.413740   -0.742835   -1.663351
     17          1           0        3.217381    0.951240    0.658760
     18          1           0        0.614637    1.933082   -0.011416
     19          1           0        1.309267    1.372788   -1.598670
 ---------------------------------------------------------------------

 SCF Done:  E(RB3LYP) =  -423.092504058     A.U. after    1 cycles
