 Gaussian 09, Revision D.01,
 Gaussian 09:  ES64L-G09RevD.01 24-Apr-2013

 -----------------------------
 # b3lyp 6-31G(2df,p) opt Freq
 -----------------------------

 -----
 titel
 -----
 Symbolic Z-matrix:
 Charge =  0 Multiplicity = 1

 SCF Done:  E(RB3LYP) =  -423.221733646     A.U. after   13 cycles

 The electronic state is 1-A.
 Alpha  occ. eigenvalues --  -19.13418 -19.13418 -10.23210 -10.23209 -10.22977
 Alpha  occ. eigenvalues --  -10.22960 -10.18186 -10.17831 -10.17831  -1.05451
 Alpha  occ. eigenvalues --   -1.01753  -0.77836  -0.77799  -0.75623  -0.64751
 Alpha  occ. eigenvalues --   -0.61657  -0.57100  -0.55840  -0.53409  -0.46097
 Alpha  occ. eigenvalues --   -0.45278  -0.43539  -0.42661  -0.42364  -0.40657
 Alpha  occ. eigenvalues --   -0.39460  -0.38570  -0.35364  -0.33429  -0.33120
 Alpha  occ. eigenvalues --   -0.32184  -0.30201  -0.24938  -0.24231
 Alpha virt. eigenvalues --    0.08560   0.11177   0.12777   0.13310   0.13310
 Alpha virt. eigenvalues --    0.15337   0.15574   0.15582   0.16587   0.17312
 Alpha virt. eigenvalues --    0.17741   0.18572   0.19092   0.19363   0.22560

 Mulliken charges:
               1
     1  C   -0.215362
     2  C    0.078553
     3  C   -0.234579
     4  C    0.078553
     5  C   -0.215361
     6  C    0.067138
     7  O   -0.278205
     8  C    0.067139
     9  O   -0.278205
    10  H    0.100945
    11  H    0.105697
    12  H    0.076571
    13  H    0.102801
    14  H    0.102800
    15  H    0.076571
    16  H    0.100945
    17  H    0.105697
    18  H    0.079150
    19  H    0.079150
 Sum of Mulliken charges =   0.00000

 Dipole moment (field-independent basis, Debye):
    X=              0.0000    Y=              0.0000    Z=              0.2938  Tot=              0.2938
 Quadrupole moment (field-independent basis, Debye-Ang):
   XX=            -52.0992   YY=            -57.8771   ZZ=            -49.2283
   XY=             -3.9058   XZ=             -0.0002   YZ=             -0.0003

 Optimization completed.
    -- Stationary point found.
 Normal termination of Gaussian 09 at Mon Jan 27 11:19:17 2020.

 ----------------------------------------------------------------------
 #N Geom=AllCheck Guess=TCheck SCRF=Check GenChk RB3LYP/6-31G(2df,p) Fr
 eq
 ----------------------------------------------------------------------

 Structure from the checkpoint file:  "/scratch/puck/g09_a3b5c78f-03c7-4ed2-9739-dd4f092227c5/Gau-42121.chk"
 -----
 titel
 -----
 Charge =  0 Multiplicity = 1

                         Standard orientation:
 ---------------------------------------------------------------------
 Center     Atomic      Atomic             Coordinates (Angstroms)
 Number     Number       Type             X           Y           Z
 ---------------------------------------------------------------------
      1          6           0       -1.473756    0.856509   -0.273118
      2          6           0       -1.217254   -0.310309    0.691942
      3          6           0       -0.000001   -0.000062    1.597748
      4          6           0        1.217255    0.310255    0.691967
      5          6           0        1.473756   -0.856487   -0.273182
      6          6           0        0.151099   -0.773761   -1.046189
      7          8           0       -0.868467   -1.357716   -0.225631
      8          6           0       -0.151097    0.773841   -1.046130
      9          8           0        0.868465    1.357734   -0.225527
     10          1           0       -2.341958    0.636902   -0.900749
     11          1           0       -1.592227    1.834440    0.196866
     12          1           0       -2.086443   -0.644145    1.262092
     13          1           0       -0.216148    0.859841    2.240497
     14          1           0        0.216145   -0.860011    2.240436
     15          1           0        2.086442    0.644048    1.262143
     16          1           0        2.341960   -0.636832   -0.900794
     17          1           0        1.592228   -1.834454    0.196726
     18          1           0        0.134948   -1.257867   -2.023142
     19          1           0       -0.134944    1.258021   -2.023047
 ---------------------------------------------------------------------

 SCF Done:  E(RB3LYP) =  -423.221733646     A.U. after    1 cycles
