 Gaussian 09, Revision D.01,
 Gaussian 09:  ES64L-G09RevD.01 24-Apr-2013

 -----------------------------
 # b3lyp 6-31G(2df,p) opt Freq
 -----------------------------

 -----
 titel
 -----
 Symbolic Z-matrix:
 Charge =  0 Multiplicity = 1

 SCF Done:  E(RB3LYP) =  -423.116972649     A.U. after   13 cycles

 The electronic state is 1-A.
 Alpha  occ. eigenvalues --  -19.15356 -19.14353 -10.24218 -10.23708 -10.23204
 Alpha  occ. eigenvalues --  -10.22767 -10.19551 -10.19449 -10.18766  -1.07277
 Alpha  occ. eigenvalues --   -1.07035  -0.81813  -0.74410  -0.67288  -0.64750
 Alpha  occ. eigenvalues --   -0.62300  -0.59607  -0.54817  -0.52067  -0.49903
 Alpha  occ. eigenvalues --   -0.48077  -0.45928  -0.43182  -0.41972  -0.39375
 Alpha  occ. eigenvalues --   -0.38915  -0.37275  -0.35523  -0.34529  -0.32547
 Alpha  occ. eigenvalues --   -0.30085  -0.28668  -0.26931  -0.24828
 Alpha virt. eigenvalues --    0.08925   0.09529   0.10460   0.10873   0.11200
 Alpha virt. eigenvalues --    0.11790   0.12807   0.13704   0.15376   0.15827
 Alpha virt. eigenvalues --    0.16272   0.17679   0.18427   0.19093   0.19815

 Mulliken charges:
               1
     1  C   -0.252801
     2  C    0.095416
     3  C   -0.181834
     4  O   -0.231945
     5  C   -0.006079
     6  C   -0.286328
     7  C    0.036772
     8  O   -0.249546
     9  C    0.029690
    10  H    0.106303
    11  H    0.100447
    12  H    0.095071
    13  H    0.113689
    14  H    0.116198
    15  H    0.080558
    16  H    0.108854
    17  H    0.102342
    18  H    0.100532
    19  H    0.122662
 Sum of Mulliken charges =   0.00000

 Dipole moment (field-independent basis, Debye):
    X=             -1.6217    Y=              2.5467    Z=              0.9247  Tot=              3.1576
 Quadrupole moment (field-independent basis, Debye-Ang):
   XX=            -52.7784   YY=            -55.6349   ZZ=            -51.2114
   XY=              0.3365   XZ=              3.3569   YZ=             -1.0806

 Optimization completed.
    -- Stationary point found.
 Normal termination of Gaussian 09 at Mon Jan 27 11:13:49 2020.

 ----------------------------------------------------------------------
 #N Geom=AllCheck Guess=TCheck SCRF=Check GenChk RB3LYP/6-31G(2df,p) Fr
 eq
 ----------------------------------------------------------------------

 Structure from the checkpoint file:  "/scratch/puck/g09_309a52e5-bd42-4a1e-ab1f-3472ec338e20/Gau-15876.chk"
 -----
 titel
 -----
 Charge =  0 Multiplicity = 1

                         Standard orientation:
 ---------------------------------------------------------------------
 Center     Atomic      Atomic             Coordinates (Angstroms)
 Number     Number       Type             X           Y           Z
 ---------------------------------------------------------------------
      1          6           0       -0.726679    1.037257    0.033441
      2          6           0       -1.910952    0.250789   -0.476633
      3          6           0       -3.082040   -0.039466    0.359280
      4          8           0       -2.107100   -1.049868    0.092442
      5          6           0        0.602563    0.523923   -0.520041
      6          6           0        1.874409    1.183590    0.130586
      7          6           0        2.257659   -0.200165    0.672628
      8          8           0        2.380524   -1.076458   -0.452762
      9          6           0        1.070195   -0.824861    0.065280
     10          1           0       -0.854539    2.092530   -0.242640
     11          1           0       -0.716205    0.991507    1.129743
     12          1           0       -2.058444    0.277238   -1.558295
     13          1           0       -3.109125    0.323999    1.385915
     14          1           0       -4.055860   -0.196542   -0.102138
     15          1           0        0.593132    0.532334   -1.615010
     16          1           0        2.602752    1.638489   -0.544950
     17          1           0        1.608201    1.896710    0.916152
     18          1           0        2.821285   -0.457166    1.561949
     19          1           0        0.470486   -1.674894    0.364585
 ---------------------------------------------------------------------

 SCF Done:  E(RB3LYP) =  -423.116972649     A.U. after    1 cycles
