 Gaussian 09, Revision D.01,
 Gaussian 09:  ES64L-G09RevD.01 24-Apr-2013

 -----------------------------
 # b3lyp 6-31G(2df,p) opt Freq
 -----------------------------

 -----
 titel
 -----
 Symbolic Z-matrix:
 Charge =  0 Multiplicity = 1

 SCF Done:  E(RB3LYP) =  -423.214528157     A.U. after   14 cycles
 SCF Done:  E(RB3LYP) =  -423.214528836     A.U. after    7 cycles
 SCF Done:  E(RB3LYP) =  -423.214529810     A.U. after    8 cycles
 SCF Done:  E(RB3LYP) =  -423.214530387     A.U. after    7 cycles
 SCF Done:  E(RB3LYP) =  -423.214531216     A.U. after    8 cycles
 SCF Done:  E(RB3LYP) =  -423.214531924     A.U. after    8 cycles
 SCF Done:  E(RB3LYP) =  -423.214532302     A.U. after    8 cycles
 SCF Done:  E(RB3LYP) =  -423.214532333     A.U. after    6 cycles
 SCF Done:  E(RB3LYP) =  -423.214532307     A.U. after    6 cycles
 Optimization completed.
    -- Stationary point found.
 Normal termination of Gaussian 09 at Mon Jan 27 10:56:34 2020.

 ----------------------------------------------------------------------
 #N Geom=AllCheck Guess=TCheck SCRF=Check GenChk RB3LYP/6-31G(2df,p) Fr
 eq
 ----------------------------------------------------------------------

 Structure from the checkpoint file:  "/scratch/puck/g09_99db052f-823d-450f-a447-4afe15ce5949/Gau-148551.chk"
 -----
 titel
 -----
 Charge =  0 Multiplicity = 1

                         Standard orientation:
 ---------------------------------------------------------------------
 Center     Atomic      Atomic             Coordinates (Angstroms)
 Number     Number       Type             X           Y           Z
 ---------------------------------------------------------------------
      1          6           0        2.953448   -0.561102   -0.538801
      2          6           0        1.680818   -0.218418    0.218986
      3          6           0        1.826475    0.996265    1.129733
      4          8           0        0.674796    0.037721   -0.799470
      5          6           0       -0.598673    0.075916   -0.402052
      6          6           0       -1.594961    0.965362   -0.657247
      7          6           0       -2.775097    0.410050   -0.054463
      8          6           0       -2.401806   -0.756614    0.524975
      9          8           0       -1.066764   -0.983828    0.315219
     10          1           0        2.792661   -1.424082   -1.189832
     11          1           0        3.269821    0.284429   -1.157479
     12          1           0        3.758888   -0.797399    0.162528
     13          1           0        1.352706   -1.084872    0.803765
     14          1           0        0.874573    1.243645    1.608158
     15          1           0        2.559962    0.793639    1.916326
     16          1           0        2.161888    1.866824    0.557277
     17          1           0       -1.494818    1.888397   -1.203431
     18          1           0       -3.765959    0.836816   -0.051314
     19          1           0       -2.915207   -1.507302    1.101224
 ---------------------------------------------------------------------

 SCF Done:  E(RB3LYP) =  -423.214532307     A.U. after    1 cycles

 The electronic state is 1-A.
 Alpha  occ. eigenvalues --  -19.19605 -19.16522 -10.27099 -10.24378 -10.21855
 Alpha  occ. eigenvalues --  -10.17930 -10.17922 -10.17588 -10.16864  -1.11354
 Alpha  occ. eigenvalues --   -1.04774  -0.79822  -0.78548  -0.71725  -0.69434
 Alpha  occ. eigenvalues --   -0.61510  -0.59388  -0.54521  -0.53579  -0.48078
 Alpha  occ. eigenvalues --   -0.46536  -0.45966  -0.42224  -0.41602  -0.39563
 Alpha  occ. eigenvalues --   -0.39166  -0.38921  -0.37544  -0.36741  -0.36129
 Alpha  occ. eigenvalues --   -0.33752  -0.29791  -0.26931  -0.20024
 Alpha virt. eigenvalues --    0.02992   0.08650   0.09125   0.12003   0.12940
 Alpha virt. eigenvalues --    0.13942   0.14462   0.15539   0.16417   0.17076
 Alpha virt. eigenvalues --    0.17586   0.18544   0.18718   0.20562   0.22484

 Mulliken charges:
               1
     1  C   -0.392552
     2  C    0.126052
     3  C   -0.393872
     4  O   -0.288984
     5  C    0.432183
     6  C   -0.309251
     7  C   -0.166453
     8  C   -0.020218
     9  O   -0.185027
    10  H    0.128620
    11  H    0.126491
    12  H    0.118100
    13  H    0.102783
    14  H    0.131827
    15  H    0.118253
    16  H    0.124247
    17  H    0.108927
    18  H    0.108673
    19  H    0.130204
 Sum of Mulliken charges =   0.00000

 Dipole moment (field-independent basis, Debye):
    X=              0.6597    Y=              0.1951    Z=              1.0608  Tot=              1.2643
 Quadrupole moment (field-independent basis, Debye-Ang):
   XX=            -46.9957   YY=            -52.1775   ZZ=            -54.4700
   XY=             -0.4187   XZ=              0.0339   YZ=             -1.7409

  Exact polarizability: 104.390  -2.649  71.588  -3.088  -8.131  60.903
 Approx polarizability: 136.264  -6.340 115.785  -5.808 -19.670  94.344
