 Gaussian 09, Revision D.01,
 Gaussian 09:  ES64L-G09RevD.01 24-Apr-2013

 -----------------------------
 # b3lyp 6-31G(2df,p) opt Freq
 -----------------------------

 -----
 titel
 -----
 Symbolic Z-matrix:
 Charge =  0 Multiplicity = 1

 SCF Done:  E(RB3LYP) =  -423.202599794     A.U. after   14 cycles

 The electronic state is 1-A.
 Alpha  occ. eigenvalues --  -19.19750 -19.16285 -10.23623 -10.22928 -10.22583
 Alpha  occ. eigenvalues --  -10.21028 -10.18643 -10.18191 -10.17781  -1.10074
 Alpha  occ. eigenvalues --   -1.05743  -0.80198  -0.77572  -0.73680  -0.68534
 Alpha  occ. eigenvalues --   -0.60642  -0.57550  -0.56510  -0.54271  -0.48847
 Alpha  occ. eigenvalues --   -0.46761  -0.44534  -0.44455  -0.42635  -0.41717
 Alpha  occ. eigenvalues --   -0.41176  -0.37865  -0.36627  -0.35149  -0.34499
 Alpha  occ. eigenvalues --   -0.32521  -0.32399  -0.25027  -0.20119
 Alpha virt. eigenvalues --    0.02288   0.08551   0.09768   0.10767   0.11830
 Alpha virt. eigenvalues --    0.13505   0.13980   0.14845   0.15948   0.16697
 Alpha virt. eigenvalues --    0.18401   0.18617   0.19503   0.19730   0.22202

 Mulliken charges:
               1
     1  C   -0.384806
     2  C   -0.188465
     3  C   -0.052666
     4  O   -0.274332
     5  C    0.303310
     6  C   -0.119736
     7  O   -0.139826
     8  C    0.013075
     9  C   -0.319818
    10  H    0.118238
    11  H    0.118248
    12  H    0.120894
    13  H    0.111531
    14  H    0.111538
    15  H    0.100413
    16  H    0.100418
    17  H    0.134279
    18  H    0.134535
    19  H    0.113173
 Sum of Mulliken charges =   0.00000

 Dipole moment (field-independent basis, Debye):
    X=              1.4241    Y=              1.2625    Z=             -0.0003  Tot=              1.9032
 Quadrupole moment (field-independent basis, Debye-Ang):
   XX=            -51.7094   YY=            -50.2468   ZZ=            -54.8331
   XY=             -1.2819   XZ=             -0.0003   YZ=              0.0006

 Optimization completed.
    -- Stationary point found.
 Normal termination of Gaussian 09 at Mon Jan 27 11:16:05 2020.

 ----------------------------------------------------------------------
 #N Geom=AllCheck Guess=TCheck SCRF=Check GenChk RB3LYP/6-31G(2df,p) Fr
 eq
 ----------------------------------------------------------------------

 Structure from the checkpoint file:  "/scratch/puck/g09_7d557691-ebd3-4771-8047-353aca16e9b2/Gau-22666.chk"
 -----
 titel
 -----
 Charge =  0 Multiplicity = 1

                         Standard orientation:
 ---------------------------------------------------------------------
 Center     Atomic      Atomic             Coordinates (Angstroms)
 Number     Number       Type             X           Y           Z
 ---------------------------------------------------------------------
      1          6           0        3.949655    0.453964   -0.000038
      2          6           0        2.759066   -0.507802   -0.000057
      3          6           0        1.426479    0.225989   -0.000035
      4          8           0        0.388594   -0.746200    0.000250
      5          6           0       -0.882518   -0.280037    0.000080
      6          6           0       -1.990250   -1.076486   -0.000121
      7          8           0       -3.114667   -0.301360   -0.000055
      8          6           0       -2.713066    0.988481    0.000001
      9          6           0       -1.355591    1.077410    0.000018
     10          1           0        3.941426    1.101187   -0.883977
     11          1           0        3.941971    1.100489    0.884408
     12          1           0        4.895282   -0.095096   -0.000564
     13          1           0        2.796527   -1.161605   -0.878673
     14          1           0        2.796490   -1.161605    0.878562
     15          1           0        1.338887    0.870054    0.887978
     16          1           0        1.338664    0.869745   -0.888247
     17          1           0       -2.132910   -2.142316   -0.000188
     18          1           0       -3.497685    1.727057    0.000049
     19          1           0       -0.772718    1.983454    0.000002
 ---------------------------------------------------------------------

 SCF Done:  E(RB3LYP) =  -423.202599794     A.U. after    1 cycles
