 Gaussian 09, Revision D.01,
 Gaussian 09:  ES64L-G09RevD.01 24-Apr-2013

 -----------------------------
 # b3lyp 6-31G(2df,p) opt Freq
 -----------------------------

 -----
 titel
 -----
 Symbolic Z-matrix:
 Charge =  0 Multiplicity = 1

 SCF Done:  E(RB3LYP) =  -423.148142670     A.U. after   13 cycles

 The electronic state is 1-A.
 Alpha  occ. eigenvalues --  -19.14113 -19.13680 -10.23589 -10.23527 -10.22759
 Alpha  occ. eigenvalues --  -10.22454 -10.19522 -10.18924 -10.18276  -1.04410
 Alpha  occ. eigenvalues --   -1.02092  -0.88754  -0.74488  -0.72975  -0.66921
 Alpha  occ. eigenvalues --   -0.60127  -0.56654  -0.54074  -0.52807  -0.50940
 Alpha  occ. eigenvalues --   -0.47670  -0.45670  -0.43486  -0.41756  -0.39896
 Alpha  occ. eigenvalues --   -0.39291  -0.37026  -0.35774  -0.34284  -0.30887
 Alpha  occ. eigenvalues --   -0.29320  -0.27294  -0.25206  -0.23705
 Alpha virt. eigenvalues --    0.08491   0.09571   0.10768   0.12702   0.13170
 Alpha virt. eigenvalues --    0.13572   0.14491   0.15211   0.16950   0.17370
 Alpha virt. eigenvalues --    0.17686   0.18024   0.19234   0.21575   0.21752

 Mulliken charges:
               1
     1  C   -0.293397
     2  C   -0.088309
     3  C    0.104707
     4  O   -0.258864
     5  C   -0.092467
     6  C   -0.075353
     7  O   -0.261820
     8  C    0.132240
     9  C   -0.157411
    10  H    0.103858
    11  H    0.113855
    12  H    0.089607
    13  H    0.091780
    14  H    0.105717
    15  H    0.103241
    16  H    0.100065
    17  H    0.104829
    18  H    0.093013
    19  H    0.084709
 Sum of Mulliken charges =   0.00000

 Dipole moment (field-independent basis, Debye):
    X=             -0.4969    Y=              0.2306    Z=              0.4531  Tot=              0.7109
 Quadrupole moment (field-independent basis, Debye-Ang):
   XX=            -48.3476   YY=            -56.1331   ZZ=            -53.0517
   XY=              1.8335   XZ=             -1.2054   YZ=              2.8296

 Optimization completed.
    -- Stationary point found.
 Normal termination of Gaussian 09 at Mon Jan 27 11:18:19 2020.

 ----------------------------------------------------------------------
 #N Geom=AllCheck Guess=TCheck SCRF=Check GenChk RB3LYP/6-31G(2df,p) Fr
 eq
 ----------------------------------------------------------------------

 Structure from the checkpoint file:  "/scratch/puck/g09_b4c1acd3-d680-4d18-b6e9-6db2faf10057/Gau-150503.chk"
 -----
 titel
 -----
 Charge =  0 Multiplicity = 1

                         Standard orientation:
 ---------------------------------------------------------------------
 Center     Atomic      Atomic             Coordinates (Angstroms)
 Number     Number       Type             X           Y           Z
 ---------------------------------------------------------------------
      1          6           0       -1.159144   -0.845437   -1.001032
      2          6           0       -1.826012    0.314907   -0.259747
      3          6           0       -0.780615    1.250941    0.254138
      4          8           0        0.392740    1.494365   -0.468165
      5          6           0        1.582510    0.965424    0.102402
      6          6           0        1.807546   -0.497269   -0.275403
      7          8           0        0.976473   -1.431396    0.388920
      8          6           0       -0.415775   -1.223167    0.331061
      9          6           0       -1.022776   -0.003970    1.032003
     10          1           0       -1.846696   -1.628871   -1.322938
     11          1           0       -0.536782   -0.545388   -1.846259
     12          1           0       -2.864357    0.607087   -0.352767
     13          1           0       -1.171891    2.148539    0.731861
     14          1           0        2.407119    1.560515   -0.306971
     15          1           0        1.581829    1.080477    1.194488
     16          1           0        1.708784   -0.589788   -1.367606
     17          1           0        2.831565   -0.782750   -0.008499
     18          1           0       -0.843562   -2.140629    0.741802
     19          1           0       -1.334107    0.018487    2.070314
 ---------------------------------------------------------------------

 SCF Done:  E(RB3LYP) =  -423.148142670     A.U. after    1 cycles
