 Gaussian 09, Revision D.01,
 Gaussian 09:  ES64L-G09RevD.01 24-Apr-2013

 -----------------------------
 # b3lyp 6-31G(2df,p) opt Freq
 -----------------------------

 -----
 titel
 -----
 Symbolic Z-matrix:
 Charge =  0 Multiplicity = 1

 SCF Done:  E(RB3LYP) =  -423.141219790     A.U. after   13 cycles

 The electronic state is 1-A.
 Alpha  occ. eigenvalues --  -19.14513 -19.13802 -10.23706 -10.23409 -10.23336
 Alpha  occ. eigenvalues --  -10.23222 -10.19705 -10.19219 -10.18949  -1.05351
 Alpha  occ. eigenvalues --   -1.03132  -0.84311  -0.77275  -0.70616  -0.68922
 Alpha  occ. eigenvalues --   -0.61707  -0.59276  -0.52018  -0.50273  -0.49189
 Alpha  occ. eigenvalues --   -0.47689  -0.45812  -0.44254  -0.42951  -0.40744
 Alpha  occ. eigenvalues --   -0.40130  -0.38318  -0.37223  -0.34003  -0.32901
 Alpha  occ. eigenvalues --   -0.30085  -0.27713  -0.24529  -0.23195
 Alpha virt. eigenvalues --    0.06445   0.08524   0.10382   0.11807   0.12681
 Alpha virt. eigenvalues --    0.13103   0.13722   0.14437   0.15872   0.17023
 Alpha virt. eigenvalues --    0.17333   0.18150   0.18864   0.20259   0.22591

 Mulliken charges:
               1
     1  C   -0.376642
     2  C    0.197950
     3  C   -0.145502
     4  O   -0.328429
     5  C    0.390032
     6  C   -0.176406
     7  O   -0.250463
     8  C   -0.067410
     9  C   -0.322590
    10  H    0.126315
    11  H    0.112405
    12  H    0.105052
    13  H    0.104669
    14  H    0.113075
    15  H    0.102478
    16  H    0.110061
    17  H    0.091053
    18  H    0.111733
    19  H    0.102617
 Sum of Mulliken charges =   0.00000

 Dipole moment (field-independent basis, Debye):
    X=              0.3790    Y=              1.6929    Z=             -0.0830  Tot=              1.7368
 Quadrupole moment (field-independent basis, Debye-Ang):
   XX=            -56.7670   YY=            -51.8575   ZZ=            -52.1714
   XY=             -0.7268   XZ=             -2.1320   YZ=             -1.5693

 Optimization completed.
    -- Stationary point found.
 Normal termination of Gaussian 09 at Mon Jan 27 11:18:20 2020.

 ----------------------------------------------------------------------
 #N Geom=AllCheck Guess=TCheck SCRF=Check GenChk RB3LYP/6-31G(2df,p) Fr
 eq
 ----------------------------------------------------------------------

 Structure from the checkpoint file:  "/scratch/puck/g09_a8332bbf-a5d2-4040-ad3c-678377aa5de6/Gau-49384.chk"
 -----
 titel
 -----
 Charge =  0 Multiplicity = 1

                         Standard orientation:
 ---------------------------------------------------------------------
 Center     Atomic      Atomic             Coordinates (Angstroms)
 Number     Number       Type             X           Y           Z
 ---------------------------------------------------------------------
      1          6           0       -0.838227   -0.124296    1.493967
      2          6           0       -0.533311    0.770444    0.304171
      3          6           0       -1.720638    0.738198   -0.658216
      4          8           0       -1.730416   -0.719176   -0.673170
      5          6           0       -0.562777   -0.734780    0.159150
      6          6           0        0.682039   -1.483660   -0.225182
      7          8           0        1.821084   -0.696724    0.119681
      8          6           0        1.814084    0.594160   -0.479644
      9          6           0        0.765420    1.529822    0.160749
     10          1           0       -0.033133   -0.192239    2.218601
     11          1           0       -1.844080   -0.176442    1.900907
     12          1           0       -2.674595    1.156666   -0.314368
     13          1           0       -1.485391    1.131352   -1.655168
     14          1           0        0.808307   -2.436028    0.298420
     15          1           0        0.652942   -1.679132   -1.309104
     16          1           0        2.825384    0.989608   -0.349576
     17          1           0        1.621194    0.499018   -1.560843
     18          1           0        1.126780    1.875115    1.134971
     19          1           0        0.637699    2.419965   -0.465908
 ---------------------------------------------------------------------

 SCF Done:  E(RB3LYP) =  -423.141219790     A.U. after    1 cycles
