 Gaussian 09, Revision D.01,
 Gaussian 09:  ES64L-G09RevD.01 24-Apr-2013

 -----------------------------
 # b3lyp 6-31G(2df,p) opt Freq
 -----------------------------

 -----
 titel
 -----
 Symbolic Z-matrix:
 Charge =  0 Multiplicity = 1

 SCF Done:  E(RB3LYP) =  -423.189700109     A.U. after   13 cycles

 The electronic state is 1-A.
 Alpha  occ. eigenvalues --  -19.13955 -19.13906 -10.27147 -10.23410 -10.22676
 Alpha  occ. eigenvalues --  -10.19706 -10.19334 -10.18851 -10.18542  -1.06910
 Alpha  occ. eigenvalues --   -1.01353  -0.85213  -0.78012  -0.73555  -0.62776
 Alpha  occ. eigenvalues --   -0.61430  -0.57847  -0.56707  -0.51372  -0.50908
 Alpha  occ. eigenvalues --   -0.47783  -0.46220  -0.43446  -0.42367  -0.39819
 Alpha  occ. eigenvalues --   -0.39013  -0.36929  -0.34749  -0.33489  -0.33331
 Alpha  occ. eigenvalues --   -0.30814  -0.28116  -0.26962  -0.23711
 Alpha virt. eigenvalues --    0.08230   0.08523   0.10662   0.12792   0.14147
 Alpha virt. eigenvalues --    0.14409   0.14542   0.15023   0.16695   0.16771
 Alpha virt. eigenvalues --    0.17655   0.18439   0.19828   0.21112   0.21726

 Mulliken charges:
               1
     1  C   -0.331908
     2  C    0.106856
     3  O   -0.270538
     4  C    0.212643
     5  O   -0.236412
     6  C   -0.091122
     7  C   -0.239757
     8  C   -0.095664
     9  C   -0.070081
    10  H    0.115896
    11  H    0.113047
    12  H    0.100270
    13  H    0.086712
    14  H    0.103225
    15  H    0.110418
    16  H    0.102165
    17  H    0.108796
    18  H    0.084834
    19  H    0.090619
 Sum of Mulliken charges =   0.00000

 Dipole moment (field-independent basis, Debye):
    X=              0.4499    Y=              2.6003    Z=             -0.1935  Tot=              2.6460
 Quadrupole moment (field-independent basis, Debye-Ang):
   XX=            -51.7619   YY=            -57.0179   ZZ=            -50.0008
   XY=             -1.5841   XZ=              0.1226   YZ=             -1.1002

 Optimization completed.
    -- Stationary point found.
 Normal termination of Gaussian 09 at Mon Jan 27 11:15:59 2020.

 ----------------------------------------------------------------------
 #N Geom=AllCheck Guess=TCheck SCRF=Check GenChk RB3LYP/6-31G(2df,p) Fr
 eq
 ----------------------------------------------------------------------

 Structure from the checkpoint file:  "/scratch/puck/g09_b798ae94-71de-493c-bec7-233622d3fdb5/Gau-149625.chk"
 -----
 titel
 -----
 Charge =  0 Multiplicity = 1

                         Standard orientation:
 ---------------------------------------------------------------------
 Center     Atomic      Atomic             Coordinates (Angstroms)
 Number     Number       Type             X           Y           Z
 ---------------------------------------------------------------------
      1          6           0        2.421501    0.287163    0.252136
      2          6           0        1.502152   -0.407359   -0.714670
      3          8           0        0.626318   -1.366827   -0.188006
      4          6           0       -0.333560   -0.764313    0.680135
      5          8           0       -1.639467   -0.999225    0.237085
      6          6           0       -1.996156    0.060402   -0.648899
      7          6           0       -1.400235    1.314463    0.004670
      8          6           0       -0.097174    0.784366    0.647602
      9          6           0        1.140559    0.959705   -0.214007
     10          1           0        2.470775   -0.095384    1.266934
     11          1           0        3.355259    0.686738   -0.129236
     12          1           0        1.807291   -0.625250   -1.731882
     13          1           0       -0.246367   -1.237831    1.661505
     14          1           0       -1.573118   -0.112517   -1.648741
     15          1           0       -3.085365    0.073478   -0.730323
     16          1           0       -1.221407    2.122334   -0.709527
     17          1           0       -2.078286    1.688898    0.776603
     18          1           0        0.041159    1.183516    1.655285
     19          1           0        1.212735    1.837881   -0.845051
 ---------------------------------------------------------------------

 SCF Done:  E(RB3LYP) =  -423.189700109     A.U. after    1 cycles
