 Gaussian 09, Revision D.01,
 Gaussian 09:  ES64L-G09RevD.01 24-Apr-2013

 -----------------------------
 # b3lyp 6-31G(2df,p) opt Freq
 -----------------------------

 -----
 titel
 -----
 Symbolic Z-matrix:
 Charge =  0 Multiplicity = 1

 SCF Done:  E(RB3LYP) =  -423.206264748     A.U. after   14 cycles
 Optimization completed.
    -- Stationary point found.
 Normal termination of Gaussian 09 at Mon Jan 27 10:18:18 2020.

 ----------------------------------------------------------------------
 #N Geom=AllCheck Guess=TCheck SCRF=Check GenChk RB3LYP/6-31G(2df,p) Fr
 eq
 ----------------------------------------------------------------------

 Structure from the checkpoint file:  "/scratch/puck/g09_db5c6254-efbd-4896-9076-dc21efcf3c7d/Gau-91827.chk"
 -----
 titel
 -----
 Charge =  0 Multiplicity = 1

                         Standard orientation:
 ---------------------------------------------------------------------
 Center     Atomic      Atomic             Coordinates (Angstroms)
 Number     Number       Type             X           Y           Z
 ---------------------------------------------------------------------
      1          6           0        2.757819   -1.032666    0.579670
      2          6           0        1.712968   -0.910256   -0.543984
      3          6           0        0.647857    0.089117   -0.267369
      4          6           0       -0.699218   -0.015908   -0.061806
      5          8           0       -1.369329   -1.198368   -0.088081
      6          6           0       -2.764938   -1.128143    0.127421
      7          6           0       -1.201563    1.309357    0.170713
      8          6           0       -0.115790    2.123339    0.090307
      9          8           0        1.004037    1.410301   -0.171491
     10          1           0        2.288547   -1.348871    1.516218
     11          1           0        3.526844   -1.765608    0.316429
     12          1           0        3.249995   -0.072231    0.757794
     13          1           0        2.222679   -0.658910   -1.483985
     14          1           0        1.217478   -1.873035   -0.703879
     15          1           0       -3.139113   -2.151956    0.071960
     16          1           0       -3.000976   -0.712514    1.116295
     17          1           0       -3.263147   -0.521289   -0.640593
     18          1           0       -2.217235    1.611695    0.365988
     19          1           0        0.014454    3.188216    0.190637
 ---------------------------------------------------------------------

 SCF Done:  E(RB3LYP) =  -423.206264748     A.U. after    1 cycles

 The electronic state is 1-A.
 Alpha  occ. eigenvalues --  -19.19273 -19.16350 -10.23507 -10.22348 -10.22244
 Alpha  occ. eigenvalues --  -10.21165 -10.18487 -10.17569 -10.17022  -1.09645
 Alpha  occ. eigenvalues --   -1.05622  -0.79113  -0.78140  -0.72291  -0.68981
 Alpha  occ. eigenvalues --   -0.62392  -0.58294  -0.55258  -0.52024  -0.46793
 Alpha  occ. eigenvalues --   -0.45754  -0.45614  -0.44223  -0.43014  -0.42015
 Alpha  occ. eigenvalues --   -0.40481  -0.37237  -0.35867  -0.35197  -0.33886
 Alpha  occ. eigenvalues --   -0.33430  -0.32348  -0.24786  -0.19233
 Alpha virt. eigenvalues --    0.02357   0.09473   0.10328   0.10628   0.12019
 Alpha virt. eigenvalues --    0.14440   0.15337   0.15636   0.16088   0.17011
 Alpha virt. eigenvalues --    0.17222   0.18053   0.18338   0.20137   0.23205

 Mulliken charges:
               1
     1  C   -0.369390
     2  C   -0.296260
     3  C    0.252032
     4  C    0.229245
     5  O   -0.267669
     6  C   -0.247524
     7  C   -0.316204
     8  C   -0.008957
     9  O   -0.182881
    10  H    0.120045
    11  H    0.109260
    12  H    0.126828
    13  H    0.111331
    14  H    0.122656
    15  H    0.133406
    16  H    0.120242
    17  H    0.120379
    18  H    0.112408
    19  H    0.131053
 Sum of Mulliken charges =   0.00000

 Dipole moment (field-independent basis, Debye):
    X=             -1.4630    Y=              0.1101    Z=              0.2461  Tot=              1.4876
 Quadrupole moment (field-independent basis, Debye-Ang):
   XX=            -46.9493   YY=            -50.7437   ZZ=            -54.6947
   XY=             -0.6869   XZ=             -1.2360   YZ=              0.6032

  Exact polarizability:  99.866  -2.624  87.236  -3.945   2.730  53.795
 Approx polarizability: 140.387   0.384 131.362  -9.209   5.317  81.196

                      1                      2                      3
                      A                      A                      A
 Frequencies --     49.7534                54.1793               140.7347
 Red. masses --      2.7626                 2.8433                 3.4529
 Frc consts  --      0.0040                 0.0049                 0.0403
 IR Inten    --      3.1049                 0.8341                 1.1099

                      4                      5                      6
                      A                      A                      A
 Frequencies --    173.9943               209.6593               235.8490
 Red. masses --      1.7144                 1.1518                 1.5597
 Frc consts  --      0.0306                 0.0298                 0.0511
 IR Inten    --      1.0125                 0.1181                 0.4175

                      7                      8                      9
                      A                      A                      A
 Frequencies --    300.1586               316.2489               388.2446
 Red. masses --      2.7403                 2.8047                 4.1279
 Frc consts  --      0.1455                 0.1653                 0.3666
 IR Inten    --      1.9074                 0.4201                 1.7659

                     10                     11                     12
                      A                      A                      A
 Frequencies --    529.2082               597.6556               630.8368
 Red. masses --      3.5584                 5.1806                 4.5465
 Frc consts  --      0.5872                 1.0903                 1.0660
 IR Inten    --      8.6371                 3.0904                 4.7363

                     13                     14                     15
                      A                      A                      A
 Frequencies --    690.1114               716.2470               732.3177
 Red. masses --      3.5447                 2.0730                 2.1530
 Frc consts  --      0.9946                 0.6266                 0.6803
 IR Inten    --      4.0744                17.7370                18.0455

                     16                     17                     18
                      A                      A                      A
 Frequencies --    784.0176               798.2834               903.9825
 Red. masses --      1.2459                 1.2581                 5.1976
 Frc consts  --      0.4512                 0.4724                 2.5025
 IR Inten    --      0.1650                 6.4694                17.8308

                     19                     20                     21
                      A                      A                      A
 Frequencies --    968.0908              1010.6556              1061.4008
 Red. masses --      2.4086                 2.2860                 1.9769
 Frc consts  --      1.3300                 1.3758                 1.3122
 IR Inten    --      0.5204                10.7323                 9.6867

                     22                     23                     24
                      A                      A                      A
 Frequencies --   1082.8951              1103.4431              1163.1295
 Red. masses --      1.7763                 2.5263                 2.9631
 Frc consts  --      1.2273                 1.8123                 2.3619
 IR Inten    --      4.6347                31.6631                59.9297

                     25                     26                     27
                      A                      A                      A
 Frequencies --   1179.9560              1194.5590              1215.2012
 Red. masses --      1.2697                 2.1737                 1.5230
 Frc consts  --      1.0416                 1.8275                 1.3251
 IR Inten    --      1.0727                31.8594                 5.2654

                     28                     29                     30
                      A                      A                      A
 Frequencies --   1243.8843              1296.1205              1322.3477
 Red. masses --      3.2884                 1.3700                 2.0342
 Frc consts  --      2.9977                 1.3560                 2.0958
 IR Inten    --     12.2945                 7.0661               141.9768

                     31                     32                     33
                      A                      A                      A
 Frequencies --   1357.8912              1403.6529              1448.4174
 Red. masses --      1.5482                 1.2360                 2.2776
 Frc consts  --      1.6819                 1.4348                 2.8152
 IR Inten    --      6.5677                 2.0101                64.7931

                     34                     35                     36
                      A                      A                      A
 Frequencies --   1472.9629              1489.4469              1492.5093
 Red. masses --      1.0783                 1.0539                 1.3742
 Frc consts  --      1.3784                 1.3775                 1.8036
 IR Inten    --      1.1623                 5.1681                14.4830

                     37                     38                     39
                      A                      A                      A
 Frequencies --   1496.6843              1508.0811              1508.3106
 Red. masses --      1.0750                 1.0987                 1.0923
 Frc consts  --      1.4187                 1.4722                 1.4641
 IR Inten    --      1.1696                21.9083                 5.3967

                     40                     41                     42
                      A                      A                      A
 Frequencies --   1540.6605              1679.3901              2998.4336
 Red. masses --      4.2270                 8.2556                 1.0350
 Frc consts  --      5.9115                13.7183                 5.4823
 IR Inten    --      7.8784                73.7303                64.9823

                     43                     44                     45
                      A                      A                      A
 Frequencies --   3015.2784              3038.5205              3054.6598
 Red. masses --      1.0681                 1.0344                 1.1047
 Frc consts  --      5.7218                 5.6268                 6.0730
 IR Inten    --     30.2788                31.9469                43.3774

                     46                     47                     48
                      A                      A                      A
 Frequencies --   3082.5641              3109.6511              3118.6117
 Red. masses --      1.0928                 1.1020                 1.1021
 Frc consts  --      6.1181                 6.2782                 6.3150
 IR Inten    --      3.3653                37.4813                27.3753

                     49                     50                     51
                      A                      A                      A
 Frequencies --   3130.8945              3261.3658              3284.0146
 Red. masses --      1.0985                 1.0887                 1.1061
 Frc consts  --      6.3442                 6.8225                 7.0281
 IR Inten    --     23.6190                 1.5034                 0.5498

 - Thermochemistry -
 -------------------
 Temperature   298.150 Kelvin.  Pressure   1.00000 Atm.
 Atom     1 has atomic number  6 and mass  12.00000

 Molecular mass:   126.06808 amu.
 Principal axes and moments of inertia in atomic units:
                           1         2         3
     Eigenvalues --   756.107771356.424131989.21221
           X            0.99932  -0.03686   0.00174
           Y            0.03686   0.99932   0.00087
           Z           -0.00177  -0.00081   1.00000
 This molecule is an asymmetric top.
 Rotational symmetry number  1.
 Warning -- assumption of classical behavior for rotation
           may cause significant error
 Rotational temperatures (Kelvin)      0.11455     0.06385     0.04354
 Rotational constants (GHZ):           2.38688     1.33051     0.90726
 Zero-point vibrational energy     416211.7 (Joules/Mol)
                                   99.47699 (Kcal/Mol)
 Warning -- explicit consideration of  11 degrees of freedom as
           vibrations may cause significant error
 Vibrational temperatures:     71.58    77.95   202.49   250.34   301.65
          (Kelvin)            339.33   431.86   455.01   558.60   761.41
                              859.89   907.63   992.92  1030.52  1053.64
                             1128.02  1148.55  1300.63  1392.87  1454.11
                             1527.12  1558.04  1587.61  1673.48  1697.69
                             1718.70  1748.40  1789.67  1864.83  1902.56
                             1953.70  2019.54  2083.95  2119.26  2142.98
                             2147.39  2153.39  2169.79  2170.12  2216.66
                             2416.26  4314.07  4338.31  4371.75  4394.97
                             4435.12  4474.09  4486.98  4504.65  4692.37
                             4724.96

 Zero-point correction=                           0.158527 (Hartree/Particle)
 Thermal correction to Energy=                    0.167846
 Thermal correction to Enthalpy=                  0.168790
 Thermal correction to Gibbs Free Energy=         0.123415
 Sum of electronic and zero-point Energies=           -423.047738
 Sum of electronic and thermal Energies=              -423.038419
 Sum of electronic and thermal Enthalpies=            -423.037475
 Sum of electronic and thermal Free Energies=         -423.082850

                     E (Thermal)             CV                S
                      KCal/Mol        Cal/Mol-Kelvin    Cal/Mol-Kelvin
 Total                  105.325             33.419             95.500
 Electronic               0.000              0.000              0.000
 Translational            0.889              2.981             40.409
 Rotational               0.889              2.981             29.102
 Vibrational            103.547             27.458             25.989
 Vibration     1          0.595              1.978              4.827
 Vibration     2          0.596              1.976              4.659
 Vibration     3          0.615              1.913              2.794
 Vibration     4          0.627              1.874              2.392
 Vibration     5          0.642              1.826              2.047
 Vibration     6          0.655              1.786              1.834
 Vibration     7          0.693              1.673              1.416
 Vibration     8          0.703              1.643              1.329
 Vibration     9          0.756              1.495              1.007
 Vibration    10          0.884              1.185              0.589
 Vibration    11          0.956              1.037              0.454

 Optimization completed.
    -- Stationary point found.
 Normal termination of Gaussian 09 at Mon Jan 27 10:56:35 2020.
