 Gaussian 09, Revision D.01,
 Gaussian 09:  ES64L-G09RevD.01 24-Apr-2013

 -----------------------------
 # b3lyp 6-31G(2df,p) opt Freq
 -----------------------------

 -----
 titel
 -----
 Symbolic Z-matrix:
 Charge =  0 Multiplicity = 1

 SCF Done:  E(RB3LYP) =  -423.205210612     A.U. after   13 cycles

 The electronic state is 1-A.
 Alpha  occ. eigenvalues --  -19.19631 -19.14436 -10.23931 -10.23192 -10.22515
 Alpha  occ. eigenvalues --  -10.22040 -10.17790 -10.17442 -10.16976  -1.09963
 Alpha  occ. eigenvalues --   -1.03986  -0.79010  -0.77954  -0.73920  -0.66770
 Alpha  occ. eigenvalues --   -0.61421  -0.58507  -0.54322  -0.52112  -0.49194
 Alpha  occ. eigenvalues --   -0.49038  -0.45036  -0.44324  -0.41513  -0.40638
 Alpha  occ. eigenvalues --   -0.38784  -0.38315  -0.37266  -0.35708  -0.35701
 Alpha  occ. eigenvalues --   -0.32382  -0.26907  -0.26045  -0.21246
 Alpha virt. eigenvalues --    0.02346   0.08369   0.08435   0.11565   0.12838
 Alpha virt. eigenvalues --    0.13275   0.14983   0.15777   0.16384   0.17348
 Alpha virt. eigenvalues --    0.17629   0.18951   0.19527   0.19678   0.21948

 Mulliken charges:
               1
     1  C   -0.387321
     2  C   -0.021825
     3  O   -0.240866
     4  C   -0.169244
     5  C    0.340081
     6  C   -0.252903
     7  C   -0.172348
     8  C   -0.024518
     9  O   -0.184902
    10  H    0.128677
    11  H    0.128675
    12  H    0.116278
    13  H    0.088664
    14  H    0.088666
    15  H    0.104058
    16  H    0.104058
    17  H    0.116991
    18  H    0.108349
    19  H    0.129430
 Sum of Mulliken charges =   0.00000

 Dipole moment (field-independent basis, Debye):
    X=              0.7901    Y=             -0.4386    Z=              0.0003  Tot=              0.9037
 Quadrupole moment (field-independent basis, Debye-Ang):
   XX=            -45.5488   YY=            -51.6546   ZZ=            -54.8488
   XY=             -2.1367   XZ=              0.0003   YZ=              0.0001

 Optimization completed.
    -- Stationary point found.
 Normal termination of Gaussian 09 at Mon Jan 27 11:15:37 2020.

 ----------------------------------------------------------------------
 #N Geom=AllCheck Guess=TCheck SCRF=Check GenChk RB3LYP/6-31G(2df,p) Fr
 eq
 ----------------------------------------------------------------------

 Structure from the checkpoint file:  "/scratch/puck/g09_37ebdf66-d5aa-4580-a6b4-c3965ce81d84/Gau-22660.chk"
 -----
 titel
 -----
 Charge =  0 Multiplicity = 1

                         Standard orientation:
 ---------------------------------------------------------------------
 Center     Atomic      Atomic             Coordinates (Angstroms)
 Number     Number       Type             X           Y           Z
 ---------------------------------------------------------------------
      1          6           0        3.733225    0.694408   -0.000079
      2          6           0        2.739940   -0.454551    0.000144
      3          8           0        1.432221    0.083798   -0.000103
      4          6           0        0.429060   -0.900369    0.000031
      5          6           0       -0.895022   -0.213913   -0.000044
      6          6           0       -1.267054    1.092067    0.000054
      7          6           0       -2.702863    1.096573    0.000049
      8          6           0       -3.085141   -0.204637   -0.000019
      9          8           0       -1.991830   -1.020394   -0.000072
     10          1           0        3.595629    1.319678   -0.886671
     11          1           0        3.595565    1.320113    0.886195
     12          1           0        4.757985    0.311415    0.000058
     13          1           0        2.885865   -1.094851   -0.886256
     14          1           0        2.885719   -1.094428    0.886874
     15          1           0        0.518031   -1.557899   -0.883904
     16          1           0        0.518037   -1.557641    0.884155
     17          1           0       -0.599556    1.937556    0.000036
     18          1           0       -3.354271    1.956461    0.000109
     19          1           0       -4.039000   -0.705102   -0.000019
 ---------------------------------------------------------------------

 SCF Done:  E(RB3LYP) =  -423.205210612     A.U. after    1 cycles
