 Gaussian 09, Revision D.01,
 Gaussian 09:  ES64L-G09RevD.01 24-Apr-2013

 -----------------------------
 # b3lyp 6-31G(2df,p) opt Freq
 -----------------------------

 -----
 titel
 -----
 Symbolic Z-matrix:
 Charge =  0 Multiplicity = 1

 SCF Done:  E(RB3LYP) =  -423.104403989     A.U. after   14 cycles

 The electronic state is 1-A.
 Alpha  occ. eigenvalues --  -19.15311 -19.12962 -10.26042 -10.23889 -10.23253
 Alpha  occ. eigenvalues --  -10.22741 -10.19650 -10.18740 -10.18102  -1.04838
 Alpha  occ. eigenvalues --   -1.03442  -0.79719  -0.75930  -0.70019  -0.69005
 Alpha  occ. eigenvalues --   -0.64671  -0.55836  -0.53632  -0.51586  -0.50189
 Alpha  occ. eigenvalues --   -0.49512  -0.47654  -0.45706  -0.43692  -0.41477
 Alpha  occ. eigenvalues --   -0.39930  -0.37449  -0.33602  -0.32717  -0.30206
 Alpha  occ. eigenvalues --   -0.28060  -0.27997  -0.26192  -0.24650
 Alpha virt. eigenvalues --    0.02789   0.05163   0.08540   0.08753   0.10428
 Alpha virt. eigenvalues --    0.11570   0.12331   0.13133   0.15285   0.16122
 Alpha virt. eigenvalues --    0.16675   0.18175   0.18535   0.19060   0.20180

 Mulliken charges:
               1
     1  C   -0.412050
     2  C    0.280201
     3  C   -0.205668
     4  O   -0.248795
     5  C   -0.059015
     6  C   -0.047496
     7  C   -0.090991
     8  O   -0.271929
     9  C   -0.070189
    10  H    0.202003
    11  H    0.120485
    12  H    0.119273
    13  H    0.094214
    14  H    0.089620
    15  H    0.090227
    16  H    0.098704
    17  H    0.100829
    18  H    0.108581
    19  H    0.101998
 Sum of Mulliken charges =   0.00000

 Dipole moment (field-independent basis, Debye):
    X=              1.0870    Y=             -1.5240    Z=              0.3987  Tot=              1.9140
 Quadrupole moment (field-independent basis, Debye-Ang):
   XX=            -55.9598   YY=            -50.4436   ZZ=            -53.4212
   XY=              4.0616   XZ=             -3.8728   YZ=              1.2757

 Optimization completed.
    -- Stationary point found.
 Normal termination of Gaussian 09 at Mon Jan 27 11:15:32 2020.

 ----------------------------------------------------------------------
 #N Geom=AllCheck Guess=TCheck SCRF=Check GenChk RB3LYP/6-31G(2df,p) Fr
 eq
 ----------------------------------------------------------------------

 Structure from the checkpoint file:  "/scratch/puck/g09_13e450b7-0801-4937-8c9e-333ff49e4092/Gau-18560.chk"
 -----
 titel
 -----
 Charge =  0 Multiplicity = 1

                         Standard orientation:
 ---------------------------------------------------------------------
 Center     Atomic      Atomic             Coordinates (Angstroms)
 Number     Number       Type             X           Y           Z
 ---------------------------------------------------------------------
      1          6           0        4.236513    0.754855    0.168896
      2          6           0        3.249931    0.114165   -0.071321
      3          6           0        2.072167   -0.684729   -0.382082
      4          8           0        0.926141   -0.112061    0.217796
      5          6           0       -0.252963   -0.843264   -0.052842
      6          6           0       -1.411759   -0.125984    0.608588
      7          6           0       -2.814337   -0.618500    0.189965
      8          8           0       -3.082440    0.605397   -0.521408
      9          6           0       -1.845222    1.194383   -0.062754
     10          1           0        5.105427    1.325937    0.384902
     11          1           0        1.944224   -0.747297   -1.476495
     12          1           0        2.219252   -1.718100   -0.023406
     13          1           0       -0.422682   -0.913995   -1.141742
     14          1           0       -0.167240   -1.874858    0.331196
     15          1           0       -1.238584   -0.060802    1.684476
     16          1           0       -2.842269   -1.495713   -0.470288
     17          1           0       -3.517766   -0.777883    1.017235
     18          1           0       -1.215090    1.538565   -0.891194
     19          1           0       -2.020850    2.031912    0.623520
 ---------------------------------------------------------------------

 SCF Done:  E(RB3LYP) =  -423.104403989     A.U. after    1 cycles
