 Gaussian 09, Revision D.01,
 Gaussian 09:  ES64L-G09RevD.01 24-Apr-2013

 -----------------------------
 # b3lyp 6-31G(2df,p) opt Freq
 -----------------------------

 -----
 titel
 -----
 Symbolic Z-matrix:
 Charge =  0 Multiplicity = 1

 SCF Done:  E(RB3LYP) =  -423.144128761     A.U. after   13 cycles

 The electronic state is 1-A.
 Alpha  occ. eigenvalues --  -19.13793 -19.13717 -10.24450 -10.24059 -10.22622
 Alpha  occ. eigenvalues --  -10.22268 -10.19708 -10.19232 -10.18299  -1.05433
 Alpha  occ. eigenvalues --   -1.03374  -0.83340  -0.77229  -0.73488  -0.63054
 Alpha  occ. eigenvalues --   -0.60948  -0.59454  -0.53408  -0.52116  -0.50277
 Alpha  occ. eigenvalues --   -0.47278  -0.46019  -0.44477  -0.42191  -0.40295
 Alpha  occ. eigenvalues --   -0.39062  -0.36124  -0.35962  -0.34047  -0.32597
 Alpha  occ. eigenvalues --   -0.31230  -0.27746  -0.25241  -0.23516
 Alpha virt. eigenvalues --    0.07474   0.08531   0.10741   0.11325   0.12038
 Alpha virt. eigenvalues --    0.13638   0.14192   0.15176   0.16143   0.16710
 Alpha virt. eigenvalues --    0.17167   0.18033   0.19344   0.20238   0.22218

 Mulliken charges:
               1
     1  C   -0.307821
     2  C    0.099495
     3  O   -0.331804
     4  C    0.417230
     5  C   -0.294766
     6  C   -0.087772
     7  O   -0.243511
     8  C   -0.145500
     9  C   -0.193879
    10  H    0.117042
    11  H    0.115242
    12  H    0.105063
    13  H    0.119010
    14  H    0.114446
    15  H    0.095150
    16  H    0.109728
    17  H    0.102553
    18  H    0.108196
    19  H    0.101897
 Sum of Mulliken charges =   0.00000

 Dipole moment (field-independent basis, Debye):
    X=              1.2379    Y=              0.6256    Z=             -0.8337  Tot=              1.6183
 Quadrupole moment (field-independent basis, Debye-Ang):
   XX=            -53.1390   YY=            -50.8295   ZZ=            -55.1485
   XY=             -3.5694   XZ=             -3.9232   YZ=              0.5270

 Optimization completed.
    -- Stationary point found.
 Normal termination of Gaussian 09 at Mon Jan 27 11:17:50 2020.

 ----------------------------------------------------------------------
 #N Geom=AllCheck Guess=TCheck SCRF=Check GenChk RB3LYP/6-31G(2df,p) Fr
 eq
 ----------------------------------------------------------------------

 Structure from the checkpoint file:  "/scratch/puck/g09_73745b2a-bab2-4bf3-87b4-e0a55a87e829/Gau-42118.chk"
 -----
 titel
 -----
 Charge =  0 Multiplicity = 1

                         Standard orientation:
 ---------------------------------------------------------------------
 Center     Atomic      Atomic             Coordinates (Angstroms)
 Number     Number       Type             X           Y           Z
 ---------------------------------------------------------------------
      1          6           0        2.356052    0.749093   -0.406687
      2          6           0        2.034175   -0.508600    0.335162
      3          8           0        0.906032   -0.321170    1.193879
      4          6           0        0.044572   -0.072642    0.034800
      5          6           0       -0.796209    1.218100    0.108357
      6          6           0       -2.240795    0.702247    0.194564
      7          8           0       -2.223180   -0.542098   -0.495522
      8          6           0       -1.022800   -1.181648   -0.104557
      9          6           0        1.249881   -0.163499   -0.902802
     10          1           0        2.129639    1.711904    0.041961
     11          1           0        3.260719    0.721716   -1.006916
     12          1           0        2.727721   -1.305862    0.573999
     13          1           0       -0.500767    1.825876    0.965507
     14          1           0       -0.648556    1.806993   -0.801476
     15          1           0       -2.543004    0.556451    1.244392
     16          1           0       -2.976665    1.346984   -0.291366
     17          1           0       -1.123621   -1.670561    0.877453
     18          1           0       -0.777887   -1.939094   -0.853473
     19          1           0        1.240338   -0.606570   -1.889960
 ---------------------------------------------------------------------

 SCF Done:  E(RB3LYP) =  -423.144128761     A.U. after    1 cycles
