 Gaussian 09, Revision D.01,
 Gaussian 09:  ES64L-G09RevD.01 24-Apr-2013

 -----------------------------
 # b3lyp 6-31G(2df,p) opt Freq
 -----------------------------

 -----
 titel
 -----
 Symbolic Z-matrix:
 Charge =  0 Multiplicity = 1

 SCF Done:  E(RB3LYP) =  -423.150552828     A.U. after   14 cycles
 SCF Done:  E(RB3LYP) =  -423.150552928     A.U. after    6 cycles
 Optimization completed.
    -- Stationary point found.

 The electronic state is 1-A.
 Alpha  occ. eigenvalues --  -19.15586 -19.14013 -10.23938 -10.23768 -10.23503
 Alpha  occ. eigenvalues --  -10.22713 -10.19640 -10.19050 -10.18006  -1.07038
 Alpha  occ. eigenvalues --   -1.02453  -0.81464  -0.78378  -0.72041  -0.64799
 Alpha  occ. eigenvalues --   -0.63309  -0.57488  -0.55118  -0.49586  -0.49068
 Alpha  occ. eigenvalues --   -0.47027  -0.45865  -0.43841  -0.41387  -0.40510
 Alpha  occ. eigenvalues --   -0.39502  -0.37886  -0.37143  -0.36034  -0.33488
 Alpha  occ. eigenvalues --   -0.31090  -0.26036  -0.25963  -0.25281
 Alpha virt. eigenvalues --    0.07301   0.08070   0.09471   0.11867   0.11938
 Alpha virt. eigenvalues --    0.12947   0.14407   0.15651   0.16182   0.16997
 Alpha virt. eigenvalues --    0.17824   0.18488   0.19111   0.20975   0.21838

 Mulliken charges:
               1
     1  C   -0.284477
     2  C   -0.001290
     3  O   -0.313670
     4  C    0.374055
     5  C   -0.272257
     6  C    0.131954
     7  O   -0.295110
     8  C   -0.040793
     9  C   -0.335648
    10  H    0.111149
    11  H    0.115602
    12  H    0.097953
    13  H    0.110321
    14  H    0.099440
    15  H    0.074221
    16  H    0.099389
    17  H    0.107986
    18  H    0.114147
    19  H    0.107029
 Sum of Mulliken charges =   0.00000

 Dipole moment (field-independent basis, Debye):
    X=              0.8783    Y=              0.0810    Z=             -0.3171  Tot=              0.9373
 Quadrupole moment (field-independent basis, Debye-Ang):
   XX=            -59.8267   YY=            -51.5266   ZZ=            -50.4644
   XY=             -5.6599   XZ=              0.4564   YZ=              0.9081

 Normal termination of Gaussian 09 at Mon Jan 27 11:24:44 2020.

 ----------------------------------------------------------------------
 #N Geom=AllCheck Guess=TCheck SCRF=Check GenChk RB3LYP/6-31G(2df,p) Fr
 eq
 ----------------------------------------------------------------------

 Structure from the checkpoint file:  "/scratch/puck/g09_19dd9b2c-8906-45a3-9f7b-4cdb5f06fc46/Gau-164694.chk"
 -----
 titel
 -----
 Charge =  0 Multiplicity = 1

                         Standard orientation:
 ---------------------------------------------------------------------
 Center     Atomic      Atomic             Coordinates (Angstroms)
 Number     Number       Type             X           Y           Z
 ---------------------------------------------------------------------
      1          6           0       -0.749166    1.422245   -0.696045
      2          6           0       -1.085481   -0.064362   -0.846338
      3          8           0       -1.940261   -0.842127    0.029180
      4          6           0       -0.556913   -0.733702    0.351858
      5          6           0       -0.243992    0.360371    1.372993
      6          6           0        0.382447    1.339042    0.377827
      7          8           0        1.606077    0.739354   -0.076461
      8          6           0        1.634765   -0.622006   -0.535776
      9          6           0        0.632013   -1.630189    0.133221
     10          1           0       -0.403213    1.832996   -1.648269
     11          1           0       -1.572051    2.047108   -0.333054
     12          1           0       -0.982702   -0.518172   -1.828590
     13          1           0       -1.159590    0.746945    1.825498
     14          1           0        0.455447    0.051193    2.151953
     15          1           0        0.688020    2.311732    0.773854
     16          1           0        1.425827   -0.636531   -1.614527
     17          1           0        2.671633   -0.942093   -0.394711
     18          1           0        0.444523   -2.450347   -0.565728
     19          1           0        1.023546   -2.049046    1.065385
 ---------------------------------------------------------------------

 SCF Done:  E(RB3LYP) =  -423.150552928     A.U. after    1 cycles
