 Gaussian 09, Revision D.01,
 Gaussian 09:  ES64L-G09RevD.01 24-Apr-2013

 -----------------------------
 # b3lyp 6-31G(2df,p) opt Freq
 -----------------------------

 -----
 titel
 -----
 Symbolic Z-matrix:
 Charge =  0 Multiplicity = 1

 SCF Done:  E(RB3LYP) =  -423.118101039     A.U. after   12 cycles

 The electronic state is 1-A.
 Alpha  occ. eigenvalues --  -19.13990 -19.12919 -10.24480 -10.23786 -10.23115
 Alpha  occ. eigenvalues --  -10.22685 -10.19780 -10.19720 -10.18804  -1.04766
 Alpha  occ. eigenvalues --   -1.03290  -0.85448  -0.74889  -0.69006  -0.68246
 Alpha  occ. eigenvalues --   -0.64484  -0.56792  -0.52307  -0.50675  -0.49045
 Alpha  occ. eigenvalues --   -0.48756  -0.47603  -0.43480  -0.41574  -0.40344
 Alpha  occ. eigenvalues --   -0.39065  -0.38349  -0.35710  -0.33159  -0.31905
 Alpha  occ. eigenvalues --   -0.31200  -0.28384  -0.24516  -0.22816
 Alpha virt. eigenvalues --    0.06610   0.07314   0.08967   0.09800   0.11803
 Alpha virt. eigenvalues --    0.13032   0.13896   0.14786   0.15042   0.16009
 Alpha virt. eigenvalues --    0.16884   0.18856   0.19531   0.20473   0.22604

 Mulliken charges:
               1
     1  C   -0.441142
     2  C    0.201622
     3  C   -0.138935
     4  O   -0.276278
     5  C   -0.128880
     6  C    0.410184
     7  C   -0.364563
     8  C   -0.068287
     9  O   -0.306723
    10  H    0.126879
    11  H    0.115699
    12  H    0.098424
    13  H    0.099724
    14  H    0.115298
    15  H    0.100442
    16  H    0.117771
    17  H    0.117914
    18  H    0.110055
    19  H    0.110796
 Sum of Mulliken charges =   0.00000

 Dipole moment (field-independent basis, Debye):
    X=             -1.8279    Y=              1.7798    Z=              0.2072  Tot=              2.5597
 Quadrupole moment (field-independent basis, Debye-Ang):
   XX=            -56.3988   YY=            -52.2320   ZZ=            -52.2891
   XY=             -0.6469   XZ=              4.7634   YZ=             -0.2141

 Optimization completed.
    -- Stationary point found.
 Normal termination of Gaussian 09 at Mon Jan 27 11:16:49 2020.

 ----------------------------------------------------------------------
 #N Geom=AllCheck Guess=TCheck SCRF=Check GenChk RB3LYP/6-31G(2df,p) Fr
 eq
 ----------------------------------------------------------------------

 Structure from the checkpoint file:  "/scratch/puck/g09_ec0c924d-0ff9-4dd4-bd66-95a83b28effb/Gau-49272.chk"
 -----
 titel
 -----
 Charge =  0 Multiplicity = 1

                         Standard orientation:
 ---------------------------------------------------------------------
 Center     Atomic      Atomic             Coordinates (Angstroms)
 Number     Number       Type             X           Y           Z
 ---------------------------------------------------------------------
      1          6           0       -0.039417    0.612440    1.567409
      2          6           0        0.737061    0.164970    0.351038
      3          6           0        1.736028    0.900452   -0.533986
      4          8           0        2.477314   -0.320491   -0.743254
      5          6           0        1.624960   -1.058828    0.164891
      6          6           0       -0.749771    0.183700    0.320294
      7          6           0       -1.715536    0.930331   -0.593516
      8          6           0       -2.463516   -0.420385   -0.630775
      9          8           0       -1.496957   -1.032342    0.258075
     10          1           0       -0.071588   -0.065133    2.416111
     11          1           0       -0.038302    1.668316    1.825728
     12          1           0        1.347338    1.315495   -1.474247
     13          1           0        2.339961    1.666600   -0.028029
     14          1           0        1.147437   -1.920770   -0.315918
     15          1           0        2.170954   -1.392882    1.057066
     16          1           0       -2.259689    1.753574   -0.126974
     17          1           0       -1.298752    1.264031   -1.546268
     18          1           0       -3.467826   -0.420865   -0.193846
     19          1           0       -2.491249   -0.921769   -1.604316
 ---------------------------------------------------------------------

 SCF Done:  E(RB3LYP) =  -423.118101039     A.U. after    1 cycles
