 Gaussian 09, Revision D.01,
 Gaussian 09:  ES64L-G09RevD.01 24-Apr-2013

 -----------------------------
 # b3lyp 6-31G(2df,p) opt Freq
 -----------------------------

 -----
 titel
 -----
 Symbolic Z-matrix:
 Charge =  0 Multiplicity = 1

 SCF Done:  E(RB3LYP) =  -423.176200290     A.U. after   12 cycles

 The electronic state is 1-A.
 Alpha  occ. eigenvalues --  -19.14963 -19.14962 -10.27601 -10.23174 -10.23144
 Alpha  occ. eigenvalues --  -10.19197 -10.19016 -10.19014 -10.18942  -1.09232
 Alpha  occ. eigenvalues --   -0.99572  -0.87502  -0.77097  -0.71065  -0.67632
 Alpha  occ. eigenvalues --   -0.62250  -0.57173  -0.56465  -0.49952  -0.49447
 Alpha  occ. eigenvalues --   -0.47102  -0.45932  -0.42848  -0.42155  -0.41416
 Alpha  occ. eigenvalues --   -0.39643  -0.35522  -0.35261  -0.34951  -0.34185
 Alpha  occ. eigenvalues --   -0.33515  -0.28312  -0.25584  -0.23692
 Alpha virt. eigenvalues --    0.08011   0.09116   0.09384   0.11868   0.14108
 Alpha virt. eigenvalues --    0.14517   0.14888   0.15353   0.16132   0.17369
 Alpha virt. eigenvalues --    0.17644   0.19192   0.19903   0.20456   0.22063

 Mulliken charges:
               1
     1  C   -0.225845
     2  C   -0.294390
     3  C    0.366922
     4  O   -0.305922
     5  C   -0.009000
     6  O   -0.305922
     7  C    0.366922
     8  C   -0.294390
     9  C   -0.392151
    10  H    0.111570
    11  H    0.107010
    12  H    0.109608
    13  H    0.104558
    14  H    0.088283
    15  H    0.121183
    16  H    0.109608
    17  H    0.104558
    18  H    0.112264
    19  H    0.125132
 Sum of Mulliken charges =   0.00000

 Dipole moment (field-independent basis, Debye):
    X=             -1.4480    Y=              0.0000    Z=             -0.5798  Tot=              1.5597
 Quadrupole moment (field-independent basis, Debye-Ang):
   XX=            -50.8464   YY=            -57.5783   ZZ=            -50.7185
   XY=              0.0000   XZ=             -1.3430   YZ=              0.0000

 Optimization completed.
    -- Stationary point found.
 Normal termination of Gaussian 09 at Mon Jan 27 11:18:00 2020.

 ----------------------------------------------------------------------
 #N Geom=AllCheck Guess=TCheck SCRF=Check GenChk RB3LYP/6-31G(2df,p) Fr
 eq
 ----------------------------------------------------------------------

 Structure from the checkpoint file:  "/scratch/puck/g09_0d737ac2-316c-41b0-b879-1d1670deb0cc/Gau-49386.chk"
 -----
 titel
 -----
 Charge =  0 Multiplicity = 1

                         Standard orientation:
 ---------------------------------------------------------------------
 Center     Atomic      Atomic             Coordinates (Angstroms)
 Number     Number       Type             X           Y           Z
 ---------------------------------------------------------------------
      1          6           0       -2.133508    0.000000   -0.369769
      2          6           0       -1.197325    1.244037   -0.385180
      3          6           0        0.051434    0.745289    0.310795
      4          8           0        1.346531    1.147616   -0.072632
      5          6           0        1.902935    0.000000   -0.705530
      6          8           0        1.346530   -1.147617   -0.072633
      7          6           0        0.051434   -0.745289    0.310795
      8          6           0       -1.197326   -1.244037   -0.385180
      9          6           0       -0.033442    0.000000    1.628171
     10          1           0       -2.736440    0.000001    0.544018
     11          1           0       -2.835478    0.000000   -1.207277
     12          1           0       -0.929708    1.518719   -1.412007
     13          1           0       -1.661589    2.119031    0.079734
     14          1           0        1.654152    0.000001   -1.780803
     15          1           0        2.987034    0.000000   -0.564850
     16          1           0       -0.929709   -1.518720   -1.412007
     17          1           0       -1.661590   -2.119031    0.079735
     18          1           0       -0.965679   -0.000001    2.184818
     19          1           0        0.869310    0.000000    2.226153
 ---------------------------------------------------------------------

 SCF Done:  E(RB3LYP) =  -423.176200290     A.U. after    1 cycles
