 Gaussian 09, Revision D.01,
 Gaussian 09:  ES64L-G09RevD.01 24-Apr-2013

 -----------------------------
 # b3lyp 6-31G(2df,p) opt Freq
 -----------------------------

 -----
 titel
 -----
 Symbolic Z-matrix:
 Charge =  0 Multiplicity = 1

 SCF Done:  E(RB3LYP) =  -423.126267429     A.U. after   13 cycles

 The electronic state is 1-A.
 Alpha  occ. eigenvalues --  -19.14985 -19.14391 -10.24181 -10.23519 -10.23484
 Alpha  occ. eigenvalues --  -10.22799 -10.20716 -10.19503 -10.18240  -1.05965
 Alpha  occ. eigenvalues --   -1.02411  -0.90838  -0.74530  -0.67585  -0.66997
 Alpha  occ. eigenvalues --   -0.63204  -0.59272  -0.54036  -0.51446  -0.48934
 Alpha  occ. eigenvalues --   -0.48449  -0.46607  -0.44177  -0.41428  -0.39047
 Alpha  occ. eigenvalues --   -0.37896  -0.36053  -0.35022  -0.33916  -0.33277
 Alpha  occ. eigenvalues --   -0.32518  -0.28269  -0.27266  -0.23508
 Alpha virt. eigenvalues --    0.09804   0.10793   0.10920   0.11959   0.12813
 Alpha virt. eigenvalues --    0.13621   0.14762   0.15348   0.16548   0.17095
 Alpha virt. eigenvalues --    0.17406   0.18428   0.19331   0.20138   0.21971

 Mulliken charges:
               1
     1  C   -0.308687
     2  C   -0.120942
     3  C   -0.297085
     4  C    0.420851
     5  O   -0.308161
     6  C   -0.112709
     7  C   -0.090997
     8  O   -0.278479
     9  C    0.107456
    10  H    0.104056
    11  H    0.099759
    12  H    0.086657
    13  H    0.110123
    14  H    0.091238
    15  H    0.107926
    16  H    0.113218
    17  H    0.113269
    18  H    0.098900
    19  H    0.063608
 Sum of Mulliken charges =   0.00000

 Dipole moment (field-independent basis, Debye):
    X=             -0.3026    Y=              0.0107    Z=             -0.0386  Tot=              0.3052
 Quadrupole moment (field-independent basis, Debye-Ang):
   XX=            -47.1146   YY=            -58.7847   ZZ=            -52.4821
   XY=             -0.7801   XZ=             -0.4348   YZ=              1.6878

 Optimization completed.
    -- Stationary point found.
 Normal termination of Gaussian 09 at Mon Jan 27 11:18:22 2020.

 ----------------------------------------------------------------------
 #N Geom=AllCheck Guess=TCheck SCRF=Check GenChk RB3LYP/6-31G(2df,p) Fr
 eq
 ----------------------------------------------------------------------

 Structure from the checkpoint file:  "/scratch/puck/g09_b4b647cf-8989-4d05-9f89-b25910b17737/Gau-41920.chk"
 -----
 titel
 -----
 Charge =  0 Multiplicity = 1

                         Standard orientation:
 ---------------------------------------------------------------------
 Center     Atomic      Atomic             Coordinates (Angstroms)
 Number     Number       Type             X           Y           Z
 ---------------------------------------------------------------------
      1          6           0        1.893978    0.554057   -0.702860
      2          6           0        1.708486   -0.767900    0.141731
      3          6           0        1.085280    0.110560    1.256038
      4          6           0        0.475415    0.610321   -0.105305
      5          8           0       -0.575673    1.492244   -0.277198
      6          6           0       -1.746285    0.856426    0.262489
      7          6           0       -1.925837   -0.602192   -0.201403
      8          8           0       -0.811154   -1.445337    0.106656
      9          6           0        0.307665   -0.853582   -0.518883
     10          1           0        2.629946    1.258979   -0.312164
     11          1           0        1.969506    0.442146   -1.787722
     12          1           0        2.443194   -1.560429    0.258484
     13          1           0        0.414243   -0.395978    1.947317
     14          1           0        1.758833    0.805261    1.762440
     15          1           0       -1.704823    0.889373    1.360485
     16          1           0       -2.603170    1.448811   -0.069819
     17          1           0       -2.797420   -1.031791    0.300714
     18          1           0       -2.109492   -0.615580   -1.287982
     19          1           0        0.301586   -1.062194   -1.598258
 ---------------------------------------------------------------------

 SCF Done:  E(RB3LYP) =  -423.126267429     A.U. after    1 cycles
