 Gaussian 09, Revision D.01,
 Gaussian 09:  ES64L-G09RevD.01 24-Apr-2013

 -----------------------------
 # b3lyp 6-31G(2df,p) opt Freq
 -----------------------------

 -----
 titel
 -----
 Symbolic Z-matrix:
 Charge =  0 Multiplicity = 1

 SCF Done:  E(RB3LYP) =  -423.203615405     A.U. after   14 cycles

 The electronic state is 1-A.
 Alpha  occ. eigenvalues --  -19.19598 -19.14060 -10.23506 -10.22976 -10.22311
 Alpha  occ. eigenvalues --  -10.21657 -10.18077 -10.17672 -10.17633  -1.09853
 Alpha  occ. eigenvalues --   -1.03593  -0.80608  -0.76004  -0.73364  -0.67830
 Alpha  occ. eigenvalues --   -0.61068  -0.57982  -0.55572  -0.51931  -0.48799
 Alpha  occ. eigenvalues --   -0.48548  -0.44355  -0.43477  -0.42261  -0.42235
 Alpha  occ. eigenvalues --   -0.39463  -0.38445  -0.35962  -0.35839  -0.35689
 Alpha  occ. eigenvalues --   -0.31960  -0.26936  -0.25140  -0.21779
 Alpha virt. eigenvalues --    0.02571   0.07341   0.08764   0.11759   0.12949
 Alpha virt. eigenvalues --    0.13103   0.15162   0.15462   0.16187   0.16760
 Alpha virt. eigenvalues --    0.17541   0.19304   0.19314   0.19882   0.21988

 Mulliken charges:
               1
     1  C   -0.386978
     2  C   -0.021699
     3  O   -0.243627
     4  C   -0.176123
     5  C    0.217149
     6  C   -0.077142
     7  O   -0.147290
     8  C    0.008295
     9  C   -0.294128
    10  H    0.127621
    11  H    0.115441
    12  H    0.127632
    13  H    0.086487
    14  H    0.086490
    15  H    0.096662
    16  H    0.096681
    17  H    0.144923
    18  H    0.133791
    19  H    0.105815
 Sum of Mulliken charges =   0.00000

 Dipole moment (field-independent basis, Debye):
    X=             -0.8909    Y=              1.4334    Z=              0.0012  Tot=              1.6877
 Quadrupole moment (field-independent basis, Debye-Ang):
   XX=            -47.3928   YY=            -51.2162   ZZ=            -54.9252
   XY=              1.6046   XZ=             -0.0049   YZ=             -0.0025

 Optimization completed.
    -- Stationary point found.
 Normal termination of Gaussian 09 at Mon Jan 27 11:12:39 2020.

 ----------------------------------------------------------------------
 #N Geom=AllCheck Guess=TCheck SCRF=Check GenChk RB3LYP/6-31G(2df,p) Fr
 eq
 ----------------------------------------------------------------------

 Structure from the checkpoint file:  "/scratch/puck/g09_271b4fba-d739-4dab-b8c5-fd820071ebf0/Gau-94781.chk"
 -----
 titel
 -----
 Charge =  0 Multiplicity = 1

                         Standard orientation:
 ---------------------------------------------------------------------
 Center     Atomic      Atomic             Coordinates (Angstroms)
 Number     Number       Type             X           Y           Z
 ---------------------------------------------------------------------
      1          6           0       -3.705814   -0.735943   -0.000823
      2          6           0       -2.754076    0.448141    0.000565
      3          8           0       -1.428786   -0.041354   -0.000373
      4          6           0       -0.456483    0.978255    0.000618
      5          6           0        0.903268    0.357676    0.000218
      6          6           0        1.193470   -0.969787    0.000710
      7          8           0        2.541020   -1.167902    0.000211
      8          6           0        3.118652    0.060272   -0.000556
      9          6           0        2.172109    1.033374   -0.000651
     10          1           0       -3.545353   -1.357385    0.884686
     11          1           0       -4.744006   -0.390858   -0.000120
     12          1           0       -3.545748   -1.354985   -0.888080
     13          1           0       -2.924704    1.083931   -0.885008
     14          1           0       -2.924325    1.081565    0.887905
     15          1           0       -0.581082    1.631283   -0.882238
     16          1           0       -0.581305    1.629676    0.884635
     17          1           0        0.579348   -1.852696    0.001288
     18          1           0        4.196048    0.073088   -0.001013
     19          1           0        2.346498    2.098490   -0.001248
 ---------------------------------------------------------------------

 SCF Done:  E(RB3LYP) =  -423.203615405     A.U. after    1 cycles
