 Gaussian 09, Revision D.01,
 Gaussian 09:  ES64L-G09RevD.01 24-Apr-2013

 -----------------------------
 # b3lyp 6-31G(2df,p) opt Freq
 -----------------------------

 -----
 titel
 -----
 Symbolic Z-matrix:
 Charge =  0 Multiplicity = 1

 SCF Done:  E(RB3LYP) =  -423.087884751     A.U. after   14 cycles

 The electronic state is 1-A.
 Alpha  occ. eigenvalues --  -19.13296 -19.12569 -10.25233 -10.24959 -10.22850
 Alpha  occ. eigenvalues --  -10.22817 -10.19725 -10.19540 -10.18790  -1.05729
 Alpha  occ. eigenvalues --   -1.02969  -0.79897  -0.74532  -0.71895  -0.65215
 Alpha  occ. eigenvalues --   -0.64365  -0.56149  -0.53909  -0.52184  -0.48801
 Alpha  occ. eigenvalues --   -0.47582  -0.45056  -0.44069  -0.41523  -0.40035
 Alpha  occ. eigenvalues --   -0.37864  -0.36413  -0.34203  -0.32866  -0.32234
 Alpha  occ. eigenvalues --   -0.31361  -0.29702  -0.25272  -0.23154
 Alpha virt. eigenvalues --    0.07392   0.09192   0.10157   0.11304   0.12307
 Alpha virt. eigenvalues --    0.12461   0.13080   0.13758   0.14089   0.16153
 Alpha virt. eigenvalues --    0.16717   0.17500   0.18164   0.18496   0.21730

 Mulliken charges:
               1
     1  C   -0.058483
     2  C   -0.302267
     3  C    0.117506
     4  O   -0.299913
     5  C    0.018882
     6  C    0.030912
     7  C   -0.223742
     8  C    0.040122
     9  O   -0.313657
    10  H    0.100487
    11  H    0.102223
    12  H    0.104706
    13  H    0.111630
    14  H    0.092837
    15  H    0.070496
    16  H    0.095501
    17  H    0.097782
    18  H    0.110574
    19  H    0.104404
 Sum of Mulliken charges =   0.00000

 Dipole moment (field-independent basis, Debye):
    X=              0.2946    Y=              1.5961    Z=              1.7458  Tot=              2.3837
 Quadrupole moment (field-independent basis, Debye-Ang):
   XX=            -51.1254   YY=            -52.8406   ZZ=            -54.5159
   XY=              3.0067   XZ=             -3.2603   YZ=             -0.1057

 Optimization completed.
    -- Stationary point found.
 Normal termination of Gaussian 09 at Mon Jan 27 11:26:13 2020.

 ----------------------------------------------------------------------
 #N Geom=AllCheck Guess=TCheck SCRF=Check GenChk RB3LYP/6-31G(2df,p) Fr
 eq
 ----------------------------------------------------------------------

 Structure from the checkpoint file:  "/scratch/puck/g09_8f29e039-eea2-4aca-bd2d-b7a06fb513bb/Gau-61525.chk"
 -----
 titel
 -----
 Charge =  0 Multiplicity = 1

                         Standard orientation:
 ---------------------------------------------------------------------
 Center     Atomic      Atomic             Coordinates (Angstroms)
 Number     Number       Type             X           Y           Z
 ---------------------------------------------------------------------
      1          6           0        2.868118   -0.174943    0.209547
      2          6           0        1.978783    1.070643    0.031305
      3          6           0        0.882752    0.054054   -0.368295
      4          8           0        1.757403   -1.060552   -0.039530
      5          6           0       -0.383136    0.021847    0.448773
      6          6           0       -1.595076    0.893665    0.008910
      7          6           0       -2.540322   -0.034240    0.807999
      8          6           0       -1.553106   -0.892572   -0.016780
      9          8           0       -1.781600    0.014225   -1.170086
     10          1           0        3.658484   -0.289851   -0.543725
     11          1           0        3.304039   -0.331533    1.203274
     12          1           0        1.769073    1.612857    0.956435
     13          1           0        2.281262    1.780306   -0.739837
     14          1           0        0.635110    0.057220   -1.434643
     15          1           0       -0.169417    0.005090    1.522576
     16          1           0       -1.653550    1.970406   -0.154819
     17          1           0       -2.455581   -0.048801    1.897438
     18          1           0       -3.571125   -0.051344    0.453623
     19          1           0       -1.552800   -1.964451   -0.212149
 ---------------------------------------------------------------------
