 Gaussian 09, Revision D.01,
 Gaussian 09:  ES64L-G09RevD.01 24-Apr-2013

 -----------------------------
 # b3lyp 6-31G(2df,p) opt Freq
 -----------------------------

 -----
 titel
 -----
 Symbolic Z-matrix:
 Charge =  0 Multiplicity = 1

 SCF Done:  E(RB3LYP) =  -423.169539687     A.U. after   13 cycles

 The electronic state is 1-A.
 Alpha  occ. eigenvalues --  -19.13828 -19.12827 -10.24164 -10.24164 -10.21890
 Alpha  occ. eigenvalues --  -10.21889 -10.19329 -10.19026 -10.19009  -1.05383
 Alpha  occ. eigenvalues --   -1.02392  -0.80438  -0.74590  -0.72966  -0.67970
 Alpha  occ. eigenvalues --   -0.60154  -0.55745  -0.55608  -0.52300  -0.49435
 Alpha  occ. eigenvalues --   -0.48164  -0.45585  -0.42669  -0.41372  -0.39595
 Alpha  occ. eigenvalues --   -0.39504  -0.35316  -0.34002  -0.33187  -0.32257
 Alpha  occ. eigenvalues --   -0.31991  -0.30847  -0.25831  -0.23933
 Alpha virt. eigenvalues --    0.08276   0.09504   0.10641   0.11202   0.12839
 Alpha virt. eigenvalues --    0.14105   0.14399   0.15725   0.16666   0.16955
 Alpha virt. eigenvalues --    0.17538   0.17694   0.18277   0.19104   0.21108

 Mulliken charges:
               1
     1  C   -0.233392
     2  C    0.054900
     3  O   -0.295001
     4  C    0.054902
     5  C   -0.029877
     6  C   -0.100761
     7  O   -0.249554
     8  C   -0.100760
     9  C   -0.029876
    10  H    0.095943
    11  H    0.112314
    12  H    0.082931
    13  H    0.082931
    14  H    0.076685
    15  H    0.101656
    16  H    0.099309
    17  H    0.101656
    18  H    0.099310
    19  H    0.076684
 Sum of Mulliken charges =   0.00000

 Dipole moment (field-independent basis, Debye):
    X=              1.8171    Y=             -0.0001    Z=             -1.6757  Tot=              2.4718
 Quadrupole moment (field-independent basis, Debye-Ang):
   XX=            -57.5260   YY=            -48.1388   ZZ=            -54.9868
   XY=              0.0000   XZ=             -1.3977   YZ=             -0.0001

 Optimization completed.
    -- Stationary point found.
 Normal termination of Gaussian 09 at Mon Jan 27 11:18:36 2020.

 ----------------------------------------------------------------------
 #N Geom=AllCheck Guess=TCheck SCRF=Check GenChk RB3LYP/6-31G(2df,p) Fr
 eq
 ----------------------------------------------------------------------

 Structure from the checkpoint file:  "/scratch/puck/g09_cb323a9f-470d-430f-b9f7-8cda395f1735/Gau-42033.chk"
 -----
 titel
 -----
 Charge =  0 Multiplicity = 1

                         Standard orientation:
 ---------------------------------------------------------------------
 Center     Atomic      Atomic             Coordinates (Angstroms)
 Number     Number       Type             X           Y           Z
 ---------------------------------------------------------------------
      1          6           0        2.157398   -0.000023   -0.544460
      2          6           0        1.177515    0.976317    0.145617
      3          8           0        1.036356    0.000028    1.227721
      4          6           0        1.177500   -0.976313    0.145659
      5          6           0       -0.140551   -0.785142   -0.636285
      6          6           0       -1.433428   -1.145415    0.116252
      7          8           0       -2.272905    0.000004    0.034102
      8          6           0       -1.433418    1.145416    0.116250
      9          6           0       -0.140550    0.785132   -0.636300
     10          1           0        2.231441   -0.000047   -1.635214
     11          1           0        3.141007   -0.000026   -0.073159
     12          1           0        1.457558    1.973943    0.484339
     13          1           0        1.457527   -1.973930    0.484423
     14          1           0       -0.104954   -1.223316   -1.635827
     15          1           0       -1.978308   -1.982714   -0.327858
     16          1           0       -1.207716   -1.385525    1.166015
     17          1           0       -1.978298    1.982717   -0.327855
     18          1           0       -1.207695    1.385525    1.166011
     19          1           0       -0.104969    1.223287   -1.635850
 ---------------------------------------------------------------------

 SCF Done:  E(RB3LYP) =  -423.169539687     A.U. after    1 cycles
