 Gaussian 09, Revision D.01,
 Gaussian 09:  ES64L-G09RevD.01 24-Apr-2013

 -----------------------------
 # b3lyp 6-31G(2df,p) opt Freq
 -----------------------------

 -----
 titel
 -----
 Symbolic Z-matrix:
 Charge =  0 Multiplicity = 1

 SCF Done:  E(RB3LYP) =  -423.154588818     A.U. after   13 cycles

 The electronic state is 1-A.
 Alpha  occ. eigenvalues --  -19.14139 -19.14019 -10.26898 -10.23468 -10.22713
 Alpha  occ. eigenvalues --  -10.19451 -10.19364 -10.19207 -10.18172  -1.06429
 Alpha  occ. eigenvalues --   -1.00751  -0.89151  -0.75007  -0.71953  -0.66963
 Alpha  occ. eigenvalues --   -0.60350  -0.56849  -0.53768  -0.52604  -0.50638
 Alpha  occ. eigenvalues --   -0.48267  -0.47793  -0.43581  -0.42643  -0.39818
 Alpha  occ. eigenvalues --   -0.37577  -0.37299  -0.33973  -0.32351  -0.31621
 Alpha  occ. eigenvalues --   -0.29313  -0.28667  -0.25934  -0.24128
 Alpha virt. eigenvalues --    0.08395   0.09418   0.11125   0.12734   0.13250
 Alpha virt. eigenvalues --    0.14283   0.14906   0.15736   0.16706   0.17219
 Alpha virt. eigenvalues --    0.17292   0.18064   0.18924   0.20160   0.22561

 Mulliken charges:
               1
     1  C   -0.254855
     2  C   -0.088421
     3  C    0.111225
     4  O   -0.245056
     5  C    0.013262
     6  O   -0.225723
     7  C   -0.107188
     8  C   -0.010042
     9  C   -0.146111
    10  H    0.100944
    11  H    0.121842
    12  H    0.086615
    13  H    0.093309
    14  H    0.112520
    15  H    0.079220
    16  H    0.108555
    17  H    0.087797
    18  H    0.079569
    19  H    0.082537
 Sum of Mulliken charges =   0.00000

 Dipole moment (field-independent basis, Debye):
    X=              1.0552    Y=              0.7996    Z=              1.7272  Tot=              2.1762
 Quadrupole moment (field-independent basis, Debye-Ang):
   XX=            -52.4768   YY=            -51.8784   ZZ=            -53.3104
   XY=              0.6740   XZ=             -1.3556   YZ=             -1.3182

 Optimization completed.
    -- Stationary point found.
 Normal termination of Gaussian 09 at Mon Jan 27 11:18:29 2020.

 ----------------------------------------------------------------------
 #N Geom=AllCheck Guess=TCheck SCRF=Check GenChk RB3LYP/6-31G(2df,p) Fr
 eq
 ----------------------------------------------------------------------

 Structure from the checkpoint file:  "/scratch/puck/g09_dd641874-2116-4f4a-91c3-04d4956c49a5/Gau-150499.chk"
 -----
 titel
 -----
 Charge =  0 Multiplicity = 1

                         Standard orientation:
 ---------------------------------------------------------------------
 Center     Atomic      Atomic             Coordinates (Angstroms)
 Number     Number       Type             X           Y           Z
 ---------------------------------------------------------------------
      1          6           0        1.169647    0.848566   -1.004897
      2          6           0        1.828632   -0.321049   -0.264239
      3          6           0        0.784736   -1.235900    0.287360
      4          8           0       -0.395937   -1.516003   -0.417135
      5          6           0       -1.578136   -0.928763    0.066916
      6          8           0       -1.781651    0.375741   -0.396689
      7          6           0       -1.089802    1.389514    0.317647
      8          6           0        0.429203    1.249608    0.314893
      9          6           0        1.050173    0.037271    1.028812
     10          1           0        1.877050    1.609274   -1.338067
     11          1           0        0.524535    0.557020   -1.836734
     12          1           0        2.858921   -0.635974   -0.377355
     13          1           0        1.185196   -2.121270    0.778995
     14          1           0       -2.395663   -1.526977   -0.342540
     15          1           0       -1.596748   -0.954622    1.169112
     16          1           0       -1.384767    2.327478   -0.164897
     17          1           0       -1.446240    1.424104    1.361601
     18          1           0        0.852148    2.175025    0.719411
     19          1           0        1.379555    0.032552    2.062113
 ---------------------------------------------------------------------

 SCF Done:  E(RB3LYP) =  -423.154588818     A.U. after    1 cycles
