 Gaussian 09, Revision D.01,
 Gaussian 09:  ES64L-G09RevD.01 24-Apr-2013

 -----------------------------
 # b3lyp 6-31G(2df,p) opt Freq
 -----------------------------

 -----
 titel
 -----
 Symbolic Z-matrix:
 Charge =  0 Multiplicity = 1

 SCF Done:  E(RB3LYP) =  -423.161800506     A.U. after   13 cycles

 The electronic state is 1-A.
 Alpha  occ. eigenvalues --  -19.13853 -19.13666 -10.23298 -10.22986 -10.22868
 Alpha  occ. eigenvalues --  -10.22674 -10.19764 -10.18847 -10.18756  -1.05866
 Alpha  occ. eigenvalues --   -1.01028  -0.84890  -0.77737  -0.71166  -0.66991
 Alpha  occ. eigenvalues --   -0.61661  -0.57971  -0.54170  -0.50432  -0.48739
 Alpha  occ. eigenvalues --   -0.47014  -0.46833  -0.43905  -0.41704  -0.40797
 Alpha  occ. eigenvalues --   -0.38970  -0.37428  -0.35583  -0.34932  -0.31855
 Alpha  occ. eigenvalues --   -0.30692  -0.26687  -0.25619  -0.23661
 Alpha virt. eigenvalues --    0.08696   0.09717   0.10465   0.11728   0.12537
 Alpha virt. eigenvalues --    0.14316   0.14402   0.15265   0.16064   0.16506
 Alpha virt. eigenvalues --    0.17245   0.18167   0.20542   0.21399   0.22537

 Mulliken charges:
               1
     1  C   -0.381791
     2  C   -0.050798
     3  C   -0.250462
     4  C    0.062429
     5  C   -0.069439
     6  O   -0.266799
     7  C   -0.165700
     8  C    0.386318
     9  O   -0.300385
    10  H    0.116778
    11  H    0.124577
    12  H    0.098442
    13  H    0.105638
    14  H    0.104549
    15  H    0.076359
    16  H    0.096216
    17  H    0.105493
    18  H    0.099761
    19  H    0.108813
 Sum of Mulliken charges =   0.00000

 Dipole moment (field-independent basis, Debye):
    X=              0.4755    Y=              0.5152    Z=             -0.5901  Tot=              0.9164
 Quadrupole moment (field-independent basis, Debye-Ang):
   XX=            -52.8626   YY=            -49.6912   ZZ=            -55.7695
   XY=             -3.5121   XZ=             -1.8741   YZ=             -0.5290

 Optimization completed.
    -- Stationary point found.
 Normal termination of Gaussian 09 at Mon Jan 27 11:19:23 2020.

 ----------------------------------------------------------------------
 #N Geom=AllCheck Guess=TCheck SCRF=Check GenChk RB3LYP/6-31G(2df,p) Fr
 eq
 ----------------------------------------------------------------------

 Structure from the checkpoint file:  "/scratch/puck/g09_281db02d-f26f-4fff-9136-c51f5aed08eb/Gau-164691.chk"
 -----
 titel
 -----
 Charge =  0 Multiplicity = 1

                         Standard orientation:
 ---------------------------------------------------------------------
 Center     Atomic      Atomic             Coordinates (Angstroms)
 Number     Number       Type             X           Y           Z
 ---------------------------------------------------------------------
      1          6           0        2.115120   -0.526135    0.102564
      2          6           0        1.141611    0.160131   -0.843597
      3          6           0        0.498599    1.537045   -0.653039
      4          6           0       -0.557237    1.203021    0.430644
      5          6           0       -1.792862    0.397215   -0.028576
      6          8           0       -1.487387   -0.866604   -0.616877
      7          6           0       -0.460908   -1.618376    0.053447
      8          6           0        0.644257   -0.645357    0.336646
      9          8           0        0.181629    0.312949    1.282224
     10          1           0        2.668556   -1.363165   -0.311956
     11          1           0        2.650363    0.052116    0.848628
     12          1           0        1.051402   -0.292204   -1.824283
     13          1           0        1.185055    2.303608   -0.278956
     14          1           0        0.063236    1.900726   -1.587907
     15          1           0       -0.883997    2.067353    1.018340
     16          1           0       -2.423501    0.255340    0.863470
     17          1           0       -2.376446    0.940226   -0.779673
     18          1           0       -0.848666   -2.065958    0.979447
     19          1           0       -0.171417   -2.414071   -0.638417
 ---------------------------------------------------------------------

 SCF Done:  E(RB3LYP) =  -423.161800506     A.U. after    1 cycles
