 Gaussian 09, Revision D.01,
 Gaussian 09:  ES64L-G09RevD.01 24-Apr-2013

 -----------------------------
 # b3lyp 6-31G(2df,p) opt Freq
 -----------------------------

 -----
 titel
 -----
 Symbolic Z-matrix:
 Charge =  0 Multiplicity = 1

 SCF Done:  E(RB3LYP) =  -423.220046387     A.U. after   14 cycles
 Optimization completed.
    -- Stationary point found.
 Normal termination of Gaussian 09 at Mon Jan 27 10:21:56 2020.

 ----------------------------------------------------------------------
 #N Geom=AllCheck Guess=TCheck SCRF=Check GenChk RB3LYP/6-31G(2df,p) Fr
 eq
 ----------------------------------------------------------------------

 Structure from the checkpoint file:  "/scratch/puck/g09_657578b9-3268-4029-ba03-e6725b55567f/Gau-19666.chk"
 -----
 titel
 -----
 Charge =  0 Multiplicity = 1

                         Standard orientation:
 ---------------------------------------------------------------------
 Center     Atomic      Atomic             Coordinates (Angstroms)
 Number     Number       Type             X           Y           Z
 ---------------------------------------------------------------------
      1          6           0        2.915490   -1.100928    0.561657
      2          6           0        2.351476   -0.244428   -0.585503
      3          6           0        1.045549    0.395869   -0.263109
      4          6           0        0.634176    1.687499   -0.145106
      5          6           0       -0.759107    1.647422    0.189899
      6          6           0       -1.102390    0.334958    0.261730
      7          6           0       -2.365983   -0.402054    0.535692
      8          8           0       -2.879559   -1.088356   -0.602491
      9          8           0       -0.006222   -0.441446   -0.011638
     10          1           0        2.216143   -1.897500    0.829937
     11          1           0        3.863500   -1.562639    0.269983
     12          1           0        3.090159   -0.492135    1.453869
     13          1           0        3.057785    0.550491   -0.845157
     14          1           0        2.241999   -0.869465   -1.481760
     15          1           0        1.249044    2.563358   -0.283650
     16          1           0       -1.419112    2.485457    0.352396
     17          1           0       -2.217273   -1.101385    1.373942
     18          1           0       -3.134010    0.315344    0.836445
     19          1           0       -2.177246   -1.663135   -0.924531
 ---------------------------------------------------------------------

 SCF Done:  E(RB3LYP) =  -423.220046387     A.U. after    1 cycles

 The electronic state is 1-A.
 Alpha  occ. eigenvalues --  -19.19772 -19.13243 -10.23465 -10.22960 -10.22460
 Alpha  occ. eigenvalues --  -10.19669 -10.18031 -10.17768 -10.17548  -1.10075
 Alpha  occ. eigenvalues --   -1.01263  -0.79963  -0.79124  -0.74135  -0.67396
 Alpha  occ. eigenvalues --   -0.62080  -0.59616  -0.54404  -0.51618  -0.48098
 Alpha  occ. eigenvalues --   -0.46472  -0.44148  -0.44057  -0.41731  -0.41049
 Alpha  occ. eigenvalues --   -0.39548  -0.37831  -0.36790  -0.35844  -0.34655
 Alpha  occ. eigenvalues --   -0.33600  -0.27346  -0.26996  -0.21341
 Alpha virt. eigenvalues --    0.01265   0.06918   0.09717   0.10676   0.12040
 Alpha virt. eigenvalues --    0.13124   0.14731   0.15186   0.16030   0.16692
 Alpha virt. eigenvalues --    0.17496   0.18081   0.20480   0.21725   0.22766

 Mulliken charges:
               1
     1  C   -0.371260
     2  C   -0.295093
     3  C    0.358863
     4  C   -0.266463
     5  C   -0.262239
     6  C    0.328329
     7  C   -0.176564
     8  O   -0.412943
     9  O   -0.228316
    10  H    0.129690
    11  H    0.113946
    12  H    0.122639
    13  H    0.115149
    14  H    0.115371
    15  H    0.106949
    16  H    0.111134
    17  H    0.100154
    18  H    0.123507
    19  H    0.287144
 Sum of Mulliken charges =   0.00000

 Dipole moment (field-independent basis, Debye):
    X=              1.8488    Y=              0.2017    Z=              0.4146  Tot=              1.9054
 Quadrupole moment (field-independent basis, Debye-Ang):
   XX=            -55.5616   YY=            -49.7477   ZZ=            -54.0126
   XY=             -1.8222   XZ=             -4.0760   YZ=              0.8479

  Exact polarizability: 101.236  -2.011  83.409  -6.967   0.847  56.116
 Approx polarizability: 135.080  -0.459 134.230 -10.974   3.183  84.384

                      1                      2                      3
                      A                      A                      A
 Frequencies --     40.2580                70.3140               121.0822
 Red. masses --      3.0278                 2.6556                 4.7859
 Frc consts  --      0.0029                 0.0077                 0.0413
 IR Inten    --      0.7378                 1.3368                 0.6479

                      4                      5                      6
                      A                      A                      A
 Frequencies --    145.1971               211.8753               266.9911
 Red. masses --      3.2078                 1.2822                 1.6009
 Frc consts  --      0.0398                 0.0339                 0.0672
 IR Inten    --      0.2927                 0.5705                30.1379

                      7                      8                      9
                      A                      A                      A
 Frequencies --    309.9159               352.8384               419.0288
 Red. masses --      1.5263                 2.0999                 2.7141
 Frc consts  --      0.0864                 0.1540                 0.2808
 IR Inten    --     41.3459                58.8277                 0.4765

                     10                     11                     12
                      A                      A                      A
 Frequencies --    429.7025               605.2877               658.2718
 Red. masses --      5.1887                 3.7084                 4.8105
 Frc consts  --      0.5645                 0.8005                 1.2281
 IR Inten    --      3.9321                 3.4248                 0.4744

                     13                     14                     15
                      A                      A                      A
 Frequencies --    684.9675               761.0645               784.9863
 Red. masses --      3.4462                 3.9214                 1.2237
 Frc consts  --      0.9526                 1.3382                 0.4443
 IR Inten    --      2.3379                13.3223                 0.1448

                     16                     17                     18
                      A                      A                      A
 Frequencies --    804.6516               837.2435               939.3280
 Red. masses --      1.2561                 1.3516                 2.5410
 Frc consts  --      0.4792                 0.5582                 1.3210
 IR Inten    --     34.8348                 0.7439                35.6851

                     19                     20                     21
                      A                      A                      A
 Frequencies --    953.2753               986.3765              1009.9299
 Red. masses --      2.2846                 3.3600                 2.8011
 Frc consts  --      1.2232                 1.9261                 1.6833
 IR Inten    --      7.9788                 4.6270                 5.3972

                     22                     23                     24
                      A                      A                      A
 Frequencies --   1034.3400              1040.4874              1077.6931
 Red. masses --      2.0319                 2.4884                 1.9618
 Frc consts  --      1.2808                 1.5873                 1.3425
 IR Inten    --     37.5309                82.3257                17.9879

                     25                     26                     27
                      A                      A                      A
 Frequencies --   1090.3039              1185.2673              1222.9024
 Red. masses --      1.5922                 1.2952                 2.2753
 Frc consts  --      1.1152                 1.0721                 2.0048
 IR Inten    --      2.2425                23.7181                 1.8291

                     28                     29                     30
                      A                      A                      A
 Frequencies --   1234.5775              1255.5104              1293.2807
 Red. masses --      2.3574                 2.5242                 1.2766
 Frc consts  --      2.1170                 2.3443                 1.2580
 IR Inten    --      3.9352                17.1645                 0.6136

                     31                     32                     33
                      A                      A                      A
 Frequencies --   1354.9403              1367.1331              1397.7088
 Red. masses --      1.5089                 1.2542                 1.8019
 Frc consts  --      1.6321                 1.3811                 2.0740
 IR Inten    --     13.8183                 3.4874                 6.8855

                     34                     35                     36
                      A                      A                      A
 Frequencies --   1409.7868              1419.1712              1474.2670
 Red. masses --      1.5809                 1.2652                 1.0787
 Frc consts  --      1.8513                 1.5013                 1.3813
 IR Inten    --     10.4929                64.2134                 2.3126

                     37                     38                     39
                      A                      A                      A
 Frequencies --   1490.3040              1496.9736              1507.0481
 Red. masses --      1.0957                 1.0411                 1.0631
 Frc consts  --      1.4339                 1.3746                 1.4226
 IR Inten    --      1.4014                 5.6096                 1.4227

                     40                     41                     42
                      A                      A                      A
 Frequencies --   1596.3389              1656.3658              2976.6113
 Red. masses --      7.9344                 6.5746                 1.0713
 Frc consts  --     11.9128                10.6276                 5.5926
 IR Inten    --     18.2397                 2.6831                56.8949

                     43                     44                     45
                      A                      A                      A
 Frequencies --   3020.4478              3041.8640              3079.1551
 Red. masses --      1.0669                 1.0344                 1.0942
 Frc consts  --      5.7346                 5.6391                 6.1125
 IR Inten    --     25.7279                28.5379                 7.6089

                     46                     47                     48
                      A                      A                      A
 Frequencies --   3099.6792              3113.6277              3122.1918
 Red. masses --      1.0908                 1.1024                 1.1021
 Frc consts  --      6.1748                 6.2970                 6.3297
 IR Inten    --     17.8417                32.9464                26.7983

                     49                     50                     51
                      A                      A                      A
 Frequencies --   3248.6376              3262.1507              3816.5112
 Red. masses --      1.0926                 1.1014                 1.0662
 Frc consts  --      6.7937                 6.9059                 9.1498
 IR Inten    --      6.3347                 1.1344                18.4120

 - Thermochemistry -
 -------------------
 Temperature   298.150 Kelvin.  Pressure   1.00000 Atm.
 Atom     1 has atomic number  6 and mass  12.00000

 Molecular mass:   126.06808 amu.
 Principal axes and moments of inertia in atomic units:
                           1         2         3
     Eigenvalues --   579.829551798.727822171.88214
           X            0.99975  -0.02149  -0.00634
           Y            0.02141   0.99968  -0.01349
           Z            0.00663   0.01335   0.99989
 This molecule is an asymmetric top.
 Rotational symmetry number  1.
 Warning -- assumption of classical behavior for rotation
           may cause significant error
 Rotational temperatures (Kelvin)      0.14938     0.04815     0.03988
 Rotational constants (GHZ):           3.11254     1.00334     0.83096
 Zero-point vibrational energy     417364.3 (Joules/Mol)
                                   99.75246 (Kcal/Mol)
 Warning -- explicit consideration of  11 degrees of freedom as
           vibrations may cause significant error
 Vibrational temperatures:     57.92   101.17   174.21   208.91   304.84
          (Kelvin)            384.14   445.90   507.66   602.89   618.25
                              870.87   947.11   985.51  1095.00  1129.42
                             1157.71  1204.61  1351.48  1371.55  1419.17
                             1453.06  1488.18  1497.03  1550.56  1568.70
                             1705.33  1759.48  1776.28  1806.40  1860.74
                             1949.45  1967.00  2010.99  2028.37  2041.87
                             2121.14  2144.21  2153.81  2168.30  2296.77
                             2383.14  4282.67  4345.75  4376.56  4430.21
                             4459.74  4479.81  4492.13  4674.06  4693.50
                             5491.10

 Zero-point correction=                           0.158966 (Hartree/Particle)
 Thermal correction to Energy=                    0.168282
 Thermal correction to Enthalpy=                  0.169227
 Thermal correction to Gibbs Free Energy=         0.123730
 Sum of electronic and zero-point Energies=           -423.061081
 Sum of electronic and thermal Energies=              -423.051764
 Sum of electronic and thermal Enthalpies=            -423.050820
 Sum of electronic and thermal Free Energies=         -423.096316

                     E (Thermal)             CV                S
                      KCal/Mol        Cal/Mol-Kelvin    Cal/Mol-Kelvin
 Total                  105.599             33.552             95.756
 Electronic               0.000              0.000              0.000
 Translational            0.889              2.981             40.409
 Rotational               0.889              2.981             29.206
 Vibrational            103.821             27.590             26.141
 Vibration     1          0.594              1.981              5.246
 Vibration     2          0.598              1.968              4.145
 Vibration     3          0.609              1.932              3.083
 Vibration     4          0.617              1.908              2.734
 Vibration     5          0.643              1.823              2.027
 Vibration     6          0.672              1.734              1.616
 Vibration     7          0.699              1.655              1.363
 Vibration     8          0.729              1.569              1.153
 Vibration     9          0.782              1.429              0.895
 Vibration    10          0.791              1.406              0.860
 Vibration    11          0.964              1.021              0.441

 Normal termination of Gaussian 09 at Mon Jan 27 11:03:43 2020.
