 Gaussian 09, Revision D.01,
 Gaussian 09:  ES64L-G09RevD.01 24-Apr-2013

 -----------------------------
 # b3lyp 6-31G(2df,p) opt Freq
 -----------------------------

 -----
 titel
 -----
 Symbolic Z-matrix:
 Charge =  0 Multiplicity = 1

 SCF Done:  E(RB3LYP) =  -423.162496649     A.U. after   13 cycles

 The electronic state is 1-A.
 Alpha  occ. eigenvalues --  -19.14256 -19.12389 -10.24095 -10.23148 -10.23116
 Alpha  occ. eigenvalues --  -10.22670 -10.18836 -10.18428 -10.18427  -1.06714
 Alpha  occ. eigenvalues --   -1.03039  -0.80088  -0.73652  -0.72568  -0.66753
 Alpha  occ. eigenvalues --   -0.60536  -0.57829  -0.53758  -0.50978  -0.47797
 Alpha  occ. eigenvalues --   -0.47123  -0.45969  -0.43641  -0.43101  -0.38763
 Alpha  occ. eigenvalues --   -0.38482  -0.37060  -0.35356  -0.35133  -0.32818
 Alpha  occ. eigenvalues --   -0.29996  -0.28585  -0.25595  -0.24114
 Alpha virt. eigenvalues --    0.08208   0.09522   0.10578   0.10983   0.11010
 Alpha virt. eigenvalues --    0.12525   0.14022   0.15353   0.15368   0.16950
 Alpha virt. eigenvalues --    0.17382   0.18401   0.18697   0.20114   0.20505

 Mulliken charges:
               1
     1  C   -0.067843
     2  C   -0.354055
     3  C    0.444171
     4  C   -0.299980
     5  C    0.046227
     6  O   -0.249373
     7  C    0.046228
     8  C   -0.299975
     9  O   -0.308163
    10  H    0.101029
    11  H    0.101033
    12  H    0.107601
    13  H    0.107598
    14  H    0.121760
    15  H    0.099783
    16  H    0.091209
    17  H    0.091209
    18  H    0.121759
    19  H    0.099782
 Sum of Mulliken charges =   0.00000

 Dipole moment (field-independent basis, Debye):
    X=              0.9005    Y=              0.0003    Z=             -3.1973  Tot=              3.3216
 Quadrupole moment (field-independent basis, Debye-Ang):
   XX=            -50.1299   YY=            -49.8131   ZZ=            -56.7709
   XY=             -0.0005   XZ=              2.6980   YZ=              0.0008

 Optimization completed.
    -- Stationary point found.
 Normal termination of Gaussian 09 at Mon Jan 27 11:14:09 2020.

 ----------------------------------------------------------------------
 #N Geom=AllCheck Guess=TCheck SCRF=Check GenChk RB3LYP/6-31G(2df,p) Fr
 eq
 ----------------------------------------------------------------------

 Structure from the checkpoint file:  "/scratch/puck/g09_5656e971-38f1-4f42-930e-8b8ee897b493/Gau-162849.chk"
 -----
 titel
 -----
 Charge =  0 Multiplicity = 1

                         Standard orientation:
 ---------------------------------------------------------------------
 Center     Atomic      Atomic             Coordinates (Angstroms)
 Number     Number       Type             X           Y           Z
 ---------------------------------------------------------------------
      1          6           0        2.438429   -0.000141    0.544738
      2          6           0        1.907339    0.000165   -0.899458
      3          6           0        0.505111    0.000068   -0.245753
      4          6           0       -0.402761    1.232607   -0.472080
      5          6           0       -1.808225    0.734771   -0.212222
      6          8           0       -1.933844   -0.000150    1.010952
      7          6           0       -1.808187   -0.734773   -0.212398
      8          6           0       -0.402696   -1.232473   -0.472376
      9          8           0        1.101990   -0.000078    1.080431
     10          1           0        3.002359   -0.891621    0.845782
     11          1           0        3.002579    0.891084    0.846115
     12          1           0        2.141524    0.889789   -1.487798
     13          1           0        2.141506   -0.889182   -1.488221
     14          1           0       -0.103887    2.050185    0.189536
     15          1           0       -0.324846    1.584039   -1.509197
     16          1           0       -2.674989    1.327512   -0.494573
     17          1           0       -2.674920   -1.327489   -0.494891
     18          1           0       -0.103782   -2.050191    0.189048
     19          1           0       -0.324766   -1.583656   -1.509576
 ---------------------------------------------------------------------

 SCF Done:  E(RB3LYP) =  -423.162496649     A.U. after    1 cycles
