 Gaussian 09, Revision D.01,
 Gaussian 09:  ES64L-G09RevD.01 24-Apr-2013

 -----------------------------
 # b3lyp 6-31G(2df,p) opt Freq
 -----------------------------

 -----
 titel
 -----
 Symbolic Z-matrix:
 Charge =  0 Multiplicity = 1

 SCF Done:  E(RB3LYP) =  -423.220826457     A.U. after   14 cycles
 Optimization completed.
    -- Stationary point found.
 Normal termination of Gaussian 09 at Mon Jan 27 10:21:47 2020.

 ----------------------------------------------------------------------
 #N Geom=AllCheck Guess=TCheck SCRF=Check GenChk RB3LYP/6-31G(2df,p) Fr
 eq
 ----------------------------------------------------------------------

 Structure from the checkpoint file:  "/scratch/puck/g09_4b114102-a647-4fab-8e14-a2fb7cc79a6c/Gau-14499.chk"
 -----
 titel
 -----
 Charge =  0 Multiplicity = 1

                         Standard orientation:
 ---------------------------------------------------------------------
 Center     Atomic      Atomic             Coordinates (Angstroms)
 Number     Number       Type             X           Y           Z
 ---------------------------------------------------------------------
      1          6           0       -2.494978   -0.982461    0.102774
      2          6           0       -1.499000    0.154944    0.338408
      3          8           0       -1.832503    1.293755   -0.465580
      4          6           0       -0.060511   -0.263708    0.140723
      5          6           0        1.027364    0.566032    0.080278
      6          6           0        1.201796    2.039173    0.190920
      7          8           0        2.162260   -0.168236   -0.103523
      8          6           0        1.799124   -1.477469   -0.155511
      9          6           0        0.456746   -1.598969   -0.014053
     10          1           0       -2.391834   -1.390808   -0.909009
     11          1           0       -2.344024   -1.799008    0.815976
     12          1           0       -3.512906   -0.603143    0.219888
     13          1           0       -1.634412    0.519746    1.364643
     14          1           0       -1.576569    1.082622   -1.370839
     15          1           0        1.696098    2.316655    1.129991
     16          1           0        1.820716    2.424148   -0.626968
     17          1           0        0.225110    2.522152    0.149369
     18          1           0        2.600949   -2.181897   -0.302320
     19          1           0       -0.104430   -2.519877   -0.019137
 ---------------------------------------------------------------------

 SCF Done:  E(RB3LYP) =  -423.220826457     A.U. after    1 cycles

 The electronic state is 1-A.
 Alpha  occ. eigenvalues --  -19.19645 -19.13436 -10.23738 -10.22830 -10.22226
 Alpha  occ. eigenvalues --  -10.18195 -10.17708 -10.17629 -10.17552  -1.10009
 Alpha  occ. eigenvalues --   -1.01507  -0.80383  -0.77092  -0.74078  -0.68008
 Alpha  occ. eigenvalues --   -0.63319  -0.57712  -0.54878  -0.51616  -0.46461
 Alpha  occ. eigenvalues --   -0.46315  -0.44674  -0.42424  -0.41688  -0.39550
 Alpha  occ. eigenvalues --   -0.39328  -0.38864  -0.38270  -0.37077  -0.34853
 Alpha  occ. eigenvalues --   -0.32207  -0.27911  -0.26099  -0.21149
 Alpha virt. eigenvalues --    0.01679   0.06048   0.09759   0.11504   0.12542
 Alpha virt. eigenvalues --    0.13525   0.14610   0.15413   0.16506   0.17432
 Alpha virt. eigenvalues --    0.18085   0.18830   0.19908   0.20549   0.23637

 Mulliken charges:
               1
     1  C   -0.397218
     2  C    0.014430
     3  O   -0.420680
     4  C    0.128119
     5  C    0.273244
     6  C   -0.503599
     7  O   -0.175503
     8  C   -0.025875
     9  C   -0.285848
    10  H    0.111678
    11  H    0.118448
    12  H    0.122713
    13  H    0.098815
    14  H    0.274979
    15  H    0.133331
    16  H    0.133063
    17  H    0.158399
    18  H    0.131819
    19  H    0.109684
 Sum of Mulliken charges =   0.00000

 Dipole moment (field-independent basis, Debye):
    X=              0.0653    Y=             -0.9850    Z=             -0.4062  Tot=              1.0674
 Quadrupole moment (field-independent basis, Debye-Ang):
   XX=            -55.0955   YY=            -51.3880   ZZ=            -51.5936
   XY=              2.1621   XZ=              0.0589   YZ=              0.0391

  Exact polarizability:  90.625   1.651  90.082  -2.404   1.762  54.436
 Approx polarizability: 133.434   2.018 133.366  -4.940   2.442  85.556

                      1                      2                      3
                      A                      A                      A
 Frequencies --     41.8272               144.9721               173.1578
 Red. masses --      3.3855                 1.0549                 3.8516
 Frc consts  --      0.0035                 0.0131                 0.0680
 IR Inten    --      0.9731                 0.8985                 1.0979

                      4                      5                      6
                      A                      A                      A
 Frequencies --    193.1738               244.0052               266.8816
 Red. masses --      3.2733                 2.7869                 1.1618
 Frc consts  --      0.0720                 0.0978                 0.0488
 IR Inten    --      1.8248                 2.6586                 0.1721

                      7                      8                      9
                      A                      A                      A
 Frequencies --    300.4134               322.9570               386.2671
 Red. masses --      2.7010                 1.2121                 3.1507
 Frc consts  --      0.1436                 0.0745                 0.2770
 IR Inten    --      1.8625                78.3563                30.5286

                     10                     11                     12
                      A                      A                      A
 Frequencies --    446.7752               496.7969               613.2372
 Red. masses --      3.3464                 2.9520                 4.0246
 Frc consts  --      0.3936                 0.4293                 0.8917
 IR Inten    --      6.4946                20.4909                11.1398

                     13                     14                     15
                      A                      A                      A
 Frequencies --    625.9188               692.6628               723.4302
 Red. masses --      4.1987                 4.4282                 1.9824
 Frc consts  --      0.9692                 1.2518                 0.6113
 IR Inten    --      5.0218                 2.9047                25.9692

                     16                     17                     18
                      A                      A                      A
 Frequencies --    744.5683               827.3667               892.5741
 Red. masses --      1.6841                 1.2585                 2.5564
 Frc consts  --      0.5501                 0.5076                 1.1999
 IR Inten    --      8.8991                 5.2185                15.6087

                     19                     20                     21
                      A                      A                      A
 Frequencies --    913.3006               968.2064              1019.0216
 Red. masses --      5.4457                 1.7670                 1.6309
 Frc consts  --      2.6763                 0.9759                 0.9978
 IR Inten    --      8.7559                 7.2227                35.6483

                     22                     23                     24
                      A                      A                      A
 Frequencies --   1052.5129              1065.9570              1087.5132
 Red. masses --      1.8605                 1.4868                 2.3719
 Frc consts  --      1.2143                 0.9953                 1.6528
 IR Inten    --     10.0802                 1.6077                40.3000

                     25                     26                     27
                      A                      A                      A
 Frequencies --   1103.3463              1154.8201              1182.6575
 Red. masses --      1.9371                 2.4138                 2.2660
 Frc consts  --      1.3894                 1.8967                 1.8673
 IR Inten    --     42.4759                 2.8797                18.7308

                     28                     29                     30
                      A                      A                      A
 Frequencies --   1246.7786              1268.3431              1286.6030
 Red. masses --      4.6448                 1.3876                 1.9479
 Frc consts  --      4.2540                 1.3152                 1.8998
 IR Inten    --     26.5977                12.9411                 1.0853

                     31                     32                     33
                      A                      A                      A
 Frequencies --   1355.8913              1401.7698              1405.9775
 Red. masses --      1.4730                 1.2734                 1.2929
 Frc consts  --      1.5955                 1.4743                 1.5059
 IR Inten    --     18.5209                 7.1799                 7.9447

                     34                     35                     36
                      A                      A                      A
 Frequencies --   1420.1341              1435.2223              1485.3271
 Red. masses --      1.2070                 2.8478                 1.1371
 Frc consts  --      1.4342                 3.4562                 1.4781
 IR Inten    --     29.9999                16.0030                 5.8239

                     37                     38                     39
                      A                      A                      A
 Frequencies --   1491.0003              1493.2056              1494.8553
 Red. masses --      1.0476                 1.0506                 1.0706
 Frc consts  --      1.3722                 1.3802                 1.4095
 IR Inten    --      4.5897                 5.6314                 1.5816

                     40                     41                     42
                      A                      A                      A
 Frequencies --   1547.2077              1640.6028              3023.5067
 Red. masses --      4.2782                 7.2867                 1.0818
 Frc consts  --      6.0340                11.5555                 5.8268
 IR Inten    --     22.7677                20.7249                18.2895

                     43                     44                     45
                      A                      A                      A
 Frequencies --   3028.0855              3033.8414              3078.6591
 Red. masses --      1.0417                 1.0382                 1.0977
 Frc consts  --      5.6276                 5.6301                 6.1299
 IR Inten    --     34.7032                16.5592                14.7510

                     46                     47                     48
                      A                      A                      A
 Frequencies --   3102.9992              3125.1832              3153.6907
 Red. masses --      1.1004                 1.1013                 1.0967
 Frc consts  --      6.2426                 6.3373                 6.4265
 IR Inten    --     29.1420                22.6300                 0.7280

                     49                     50                     51
                      A                      A                      A
 Frequencies --   3256.2928              3284.5985              3794.0929
 Red. masses --      1.0894                 1.1055                 1.0659
 Frc consts  --      6.8058                 7.0268                 9.0399
 IR Inten    --      1.6343                 1.5332                13.3737

 - Thermochemistry -
 -------------------
 Temperature   298.150 Kelvin.  Pressure   1.00000 Atm.
 Atom     1 has atomic number  6 and mass  12.00000

 Molecular mass:   126.06808 amu.
 Principal axes and moments of inertia in atomic units:
                           1         2         3
     Eigenvalues --   711.082731276.247651892.36222
           X            0.99779   0.06647  -0.00152
           Y           -0.06646   0.99777   0.00603
           Z            0.00192  -0.00592   0.99998
 This molecule is an asymmetric top.
 Rotational symmetry number  1.
 Warning -- assumption of classical behavior for rotation
           may cause significant error
 Rotational temperatures (Kelvin)      0.12181     0.06787     0.04577
 Rotational constants (GHZ):           2.53802     1.41410     0.95370
 Zero-point vibrational energy     415930.7 (Joules/Mol)
                                   99.40983 (Kcal/Mol)
 Warning -- explicit consideration of  12 degrees of freedom as
           vibrations may cause significant error
 Vibrational temperatures:     60.18   208.58   249.14   277.93   351.07
          (Kelvin)            383.98   432.23   464.66   555.75   642.81
                              714.78   882.31   900.56   996.59  1040.85
                             1071.27  1190.39  1284.21  1314.03  1393.03
                             1466.14  1514.33  1533.67  1564.69  1587.47
                             1661.53  1701.58  1793.83  1824.86  1851.13
                             1950.82  2016.83  2022.89  2043.25  2064.96
                             2137.05  2145.21  2148.39  2150.76  2226.08
                             2360.46  4350.15  4356.73  4365.02  4429.50
                             4464.52  4496.44  4537.45  4685.07  4725.80
                             5458.85

 Zero-point correction=                           0.158420 (Hartree/Particle)
 Thermal correction to Energy=                    0.167636
 Thermal correction to Enthalpy=                  0.168580
 Thermal correction to Gibbs Free Energy=         0.124207
 Sum of electronic and zero-point Energies=           -423.062407
 Sum of electronic and thermal Energies=              -423.053191
 Sum of electronic and thermal Enthalpies=            -423.052247
 Sum of electronic and thermal Free Energies=         -423.096619

                     E (Thermal)             CV                S
                      KCal/Mol        Cal/Mol-Kelvin    Cal/Mol-Kelvin
 Total                  105.193             34.327             93.390
 Electronic               0.000              0.000              0.000
 Translational            0.889              2.981             40.409
 Rotational               0.889              2.981             28.931
 Vibrational            103.416             28.365             24.050
 Vibration     1          0.594              1.980              5.171
 Vibration     2          0.616              1.908              2.737
 Vibration     3          0.627              1.876              2.401
 Vibration     4          0.635              1.849              2.197
 Vibration     5          0.659              1.773              1.773
 Vibration     6          0.672              1.734              1.616
 Vibration     7          0.693              1.673              1.415
 Vibration     8          0.708              1.629              1.295
 Vibration     9          0.755              1.500              1.015
 Vibration    10          0.806              1.368              0.806
 Vibration    11          0.852              1.257              0.666
 Vibration    12          0.973              1.004              0.427

 Optimization completed.
    -- Stationary point found.
 Normal termination of Gaussian 09 at Mon Jan 27 11:00:12 2020.
