 Gaussian 09, Revision D.01,
 Gaussian 09:  ES64L-G09RevD.01 24-Apr-2013

 -----------------------------
 # b3lyp 6-31G(2df,p) opt Freq
 -----------------------------

 -----
 titel
 -----
 Symbolic Z-matrix:
 Charge =  0 Multiplicity = 1

 SCF Done:  E(RB3LYP) =  -423.186068246     A.U. after   12 cycles

 The electronic state is 1-A.
 Alpha  occ. eigenvalues --  -19.13767 -19.13613 -10.23169 -10.22993 -10.22635
 Alpha  occ. eigenvalues --  -10.22175 -10.19290 -10.18602 -10.18233  -1.04450
 Alpha  occ. eigenvalues --   -1.02474  -0.83826  -0.75484  -0.71124  -0.67119
 Alpha  occ. eigenvalues --   -0.60519  -0.58139  -0.54431  -0.53141  -0.47804
 Alpha  occ. eigenvalues --   -0.45963  -0.45522  -0.44766  -0.42954  -0.40509
 Alpha  occ. eigenvalues --   -0.38575  -0.36192  -0.34945  -0.33732  -0.31615
 Alpha  occ. eigenvalues --   -0.30482  -0.29821  -0.25055  -0.24243
 Alpha virt. eigenvalues --    0.06546   0.08765   0.09835   0.11403   0.12818
 Alpha virt. eigenvalues --    0.14002   0.14560   0.15331   0.16843   0.17258
 Alpha virt. eigenvalues --    0.18566   0.19209   0.20485   0.21373   0.22793

 Mulliken charges:
               1
     1  C   -0.276882
     2  C   -0.042822
     3  C   -0.098149
     4  O   -0.261257
     5  C    0.075348
     6  C   -0.115972
     7  O   -0.255805
     8  C    0.111890
     9  C   -0.077165
    10  H    0.105953
    11  H    0.104811
    12  H    0.078047
    13  H    0.106464
    14  H    0.094591
    15  H    0.089011
    16  H    0.109606
    17  H    0.099199
    18  H    0.081844
    19  H    0.071286
 Sum of Mulliken charges =   0.00000

 Dipole moment (field-independent basis, Debye):
    X=             -0.4446    Y=              1.3524    Z=              0.6185  Tot=              1.5521
 Quadrupole moment (field-independent basis, Debye-Ang):
   XX=            -58.4629   YY=            -51.1252   ZZ=            -51.3804
   XY=             -2.0475   XZ=              1.3464   YZ=              0.0095

 Optimization completed.
    -- Stationary point found.
 Normal termination of Gaussian 09 at Mon Jan 27 11:18:59 2020.

 ----------------------------------------------------------------------
 #N Geom=AllCheck Guess=TCheck SCRF=Check GenChk RB3LYP/6-31G(2df,p) Fr
 eq
 ----------------------------------------------------------------------

 Structure from the checkpoint file:  "/scratch/puck/g09_9a45e495-e9c8-422c-93f7-bff4e68917e6/Gau-32321.chk"
 -----
 titel
 -----
 Charge =  0 Multiplicity = 1

                         Standard orientation:
 ---------------------------------------------------------------------
 Center     Atomic      Atomic             Coordinates (Angstroms)
 Number     Number       Type             X           Y           Z
 ---------------------------------------------------------------------
      1          6           0        0.461043    1.623787   -0.575194
      2          6           0       -0.817364    1.203343    0.216261
      3          6           0       -1.820008    0.273250   -0.494515
      4          8           0       -1.575847   -1.056480   -0.029520
      5          6           0       -0.274294   -1.131757    0.528588
      6          6           0        0.839284   -1.383702   -0.529732
      7          8           0        1.887528   -0.457316   -0.280765
      8          6           0        1.332173    0.692441    0.326381
      9          6           0        0.057717    0.261961    1.092680
     10          1           0        0.464773    1.355799   -1.635732
     11          1           0        0.715861    2.682183   -0.485787
     12          1           0       -1.310826    2.024192    0.737003
     13          1           0       -2.862879    0.511637   -0.260396
     14          1           0       -1.700099    0.327188   -1.586715
     15          1           0       -0.296601   -1.921556    1.282480
     16          1           0        1.265851   -2.388796   -0.475348
     17          1           0        0.408241   -1.250216   -1.533345
     18          1           0        2.131542    1.192566    0.875554
     19          1           0        0.019382    0.341425    2.177753
 ---------------------------------------------------------------------

 SCF Done:  E(RB3LYP) =  -423.186068246     A.U. after    1 cycles
