 Gaussian 09, Revision D.01,
 Gaussian 09:  ES64L-G09RevD.01 24-Apr-2013

 -----------------------------
 # b3lyp 6-31G(2df,p) opt Freq
 -----------------------------

 -----
 titel
 -----
 Symbolic Z-matrix:
 Charge =  0 Multiplicity = 1

 SCF Done:  E(RB3LYP) =  -423.190932193     A.U. after   13 cycles

 The electronic state is 1-A.
 Alpha  occ. eigenvalues --  -19.14225 -19.14032 -10.27275 -10.23601 -10.23482
 Alpha  occ. eigenvalues --  -10.19185 -10.18575 -10.18319 -10.17951  -1.07592
 Alpha  occ. eigenvalues --   -1.00414  -0.85382  -0.78146  -0.72263  -0.65296
 Alpha  occ. eigenvalues --   -0.60609  -0.58833  -0.53452  -0.52002  -0.50000
 Alpha  occ. eigenvalues --   -0.49106  -0.46170  -0.41697  -0.41103  -0.40758
 Alpha  occ. eigenvalues --   -0.37694  -0.36452  -0.35089  -0.35009  -0.34209
 Alpha  occ. eigenvalues --   -0.31198  -0.27686  -0.26185  -0.24002
 Alpha virt. eigenvalues --    0.08230   0.09282   0.11142   0.12759   0.13615
 Alpha virt. eigenvalues --    0.14418   0.15016   0.15978   0.16433   0.16865
 Alpha virt. eigenvalues --    0.17532   0.18960   0.20531   0.21753   0.23264

 Mulliken charges:
               1
     1  C   -0.325845
     2  C    0.105829
     3  O   -0.265045
     4  C    0.193064
     5  C   -0.254579
     6  C   -0.216748
     7  C    0.047164
     8  O   -0.251998
     9  C   -0.061632
    10  H    0.133949
    11  H    0.108311
    12  H    0.094963
    13  H    0.090299
    14  H    0.115020
    15  H    0.109912
    16  H    0.100926
    17  H    0.105305
    18  H    0.081792
    19  H    0.089315
 Sum of Mulliken charges =   0.00000

 Dipole moment (field-independent basis, Debye):
    X=              0.6144    Y=             -1.3538    Z=             -1.3985  Tot=              2.0411
 Quadrupole moment (field-independent basis, Debye-Ang):
   XX=            -50.4386   YY=            -53.5183   ZZ=            -53.8306
   XY=              2.0774   XZ=              0.8828   YZ=              0.8635

 Optimization completed.
    -- Stationary point found.
 Normal termination of Gaussian 09 at Mon Jan 27 11:16:24 2020.

 ----------------------------------------------------------------------
 #N Geom=AllCheck Guess=TCheck SCRF=Check GenChk RB3LYP/6-31G(2df,p) Fr
 eq
 ----------------------------------------------------------------------

 Structure from the checkpoint file:  "/scratch/puck/g09_b73b60d6-f595-40b6-822f-5cbd20f9e80e/Gau-69975.chk"
 -----
 titel
 -----
 Charge =  0 Multiplicity = 1

                         Standard orientation:
 ---------------------------------------------------------------------
 Center     Atomic      Atomic             Coordinates (Angstroms)
 Number     Number       Type             X           Y           Z
 ---------------------------------------------------------------------
      1          6           0       -2.172935   -0.354472    0.229891
      2          6           0       -1.308245    0.476536   -0.684460
      3          8           0       -0.520012    1.505358   -0.134604
      4          6           0        0.687066    1.054250    0.448926
      5          6           0        1.709931    0.521535   -0.588177
      6          6           0        1.571536   -1.018204   -0.478773
      7          6           0        0.321682   -1.153135    0.410353
      8          8           0        0.448887   -0.041283    1.312024
      9          6           0       -0.944165   -0.963107   -0.410122
     10          1           0       -2.111638   -0.117168    1.285325
     11          1           0       -3.147559   -0.670684   -0.125705
     12          1           0       -1.698327    0.753563   -1.659145
     13          1           0        1.048412    1.891777    1.047234
     14          1           0        1.476519    0.907212   -1.582314
     15          1           0        2.716690    0.855866   -0.328171
     16          1           0        1.453836   -1.509281   -1.447742
     17          1           0        2.437510   -1.458552    0.021912
     18          1           0        0.294197   -2.063472    1.014179
     19          1           0       -1.089848   -1.682281   -1.210759
 ---------------------------------------------------------------------

 SCF Done:  E(RB3LYP) =  -423.190932193     A.U. after    1 cycles
