 Gaussian 09, Revision D.01,
 Gaussian 09:  ES64L-G09RevD.01 24-Apr-2013

 -----------------------------
 # b3lyp 6-31G(2df,p) opt Freq
 -----------------------------

 -----
 titel
 -----
 Symbolic Z-matrix:
 Charge =  0 Multiplicity = 1

 SCF Done:  E(RB3LYP) =  -423.217534252     A.U. after   14 cycles

 The electronic state is 1-A.
 Alpha  occ. eigenvalues --  -19.19132 -19.16551 -10.22894 -10.22837 -10.20677
 Alpha  occ. eigenvalues --  -10.19093 -10.18256 -10.17478 -10.17368  -1.09505
 Alpha  occ. eigenvalues --   -1.05105  -0.80224  -0.78111  -0.73963  -0.67619
 Alpha  occ. eigenvalues --   -0.60470  -0.59585  -0.54871  -0.53010  -0.48436
 Alpha  occ. eigenvalues --   -0.45742  -0.44516  -0.43650  -0.41741  -0.40159
 Alpha  occ. eigenvalues --   -0.38516  -0.37569  -0.37247  -0.35948  -0.34258
 Alpha  occ. eigenvalues --   -0.33505  -0.32592  -0.24645  -0.19799
 Alpha virt. eigenvalues --    0.02555   0.06917   0.09489   0.10134   0.11580
 Alpha virt. eigenvalues --    0.13919   0.14680   0.14942   0.15657   0.17305
 Alpha virt. eigenvalues --    0.18457   0.18851   0.20906   0.22259   0.23783

 Mulliken charges:
               1
     1  C   -0.382339
     2  C   -0.157378
     3  C   -0.300852
     4  C    0.409294
     5  C   -0.439410
     6  C    0.310184
     7  O   -0.440996
     8  C   -0.123257
     9  O   -0.187478
    10  H    0.114446
    11  H    0.115929
    12  H    0.112977
    13  H    0.114567
    14  H    0.100779
    15  H    0.108006
    16  H    0.114411
    17  H    0.100439
    18  H    0.299966
    19  H    0.130713
 Sum of Mulliken charges =   0.00000

 Dipole moment (field-independent basis, Debye):
    X=              0.7199    Y=             -1.8464    Z=              0.0234  Tot=              1.9819
 Quadrupole moment (field-independent basis, Debye-Ang):
   XX=            -53.4059   YY=            -47.9828   ZZ=            -54.9701
   XY=              3.8553   XZ=              0.3212   YZ=              0.1334

 Optimization completed.
    -- Stationary point found.
 Normal termination of Gaussian 09 at Mon Jan 27 11:16:17 2020.

 ----------------------------------------------------------------------
 #N Geom=AllCheck Guess=TCheck SCRF=Check GenChk RB3LYP/6-31G(2df,p) Fr
 eq
 ----------------------------------------------------------------------

 Structure from the checkpoint file:  "/scratch/puck/g09_90432919-9670-43c4-8baa-a8443336a460/Gau-22665.chk"
 -----
 titel
 -----
 Charge =  0 Multiplicity = 1

                         Standard orientation:
 ---------------------------------------------------------------------
 Center     Atomic      Atomic             Coordinates (Angstroms)
 Number     Number       Type             X           Y           Z
 ---------------------------------------------------------------------
      1          6           0        3.874651   -0.139489   -0.224707
      2          6           0        2.394918    0.096734   -0.533641
      3          6           0        1.469342   -0.374692    0.605217
      4          6           0        0.023920   -0.134923    0.337771
      5          6           0       -1.037920   -0.965828    0.136289
      6          6           0       -2.173031   -0.118297   -0.091144
      7          8           0       -3.460169   -0.485355   -0.337204
      8          6           0       -1.724446    1.163068   -0.013667
      9          8           0       -0.379066    1.158778    0.249367
     10          1           0        4.510861    0.202684   -1.046612
     11          1           0        4.181775    0.397381    0.679811
     12          1           0        4.082715   -1.203346   -0.063339
     13          1           0        2.214712    1.161948   -0.715556
     14          1           0        2.115804   -0.425226   -1.456807
     15          1           0        1.610404   -1.447234    0.778941
     16          1           0        1.759941    0.134241    1.534469
     17          1           0       -1.018994   -2.045557    0.149941
     18          1           0       -3.509682   -1.445165   -0.343782
     19          1           0       -2.198258    2.123446   -0.111071
 ---------------------------------------------------------------------

 SCF Done:  E(RB3LYP) =  -423.217534252     A.U. after    1 cycles
