 Gaussian 09, Revision D.01,
 Gaussian 09:  ES64L-G09RevD.01 24-Apr-2013

 -----------------------------
 # b3lyp 6-31G(2df,p) opt Freq
 -----------------------------

 -----
 titel
 -----
 Symbolic Z-matrix:
 Charge =  0 Multiplicity = 1

 SCF Done:  E(RB3LYP) =  -423.198098027     A.U. after   13 cycles

 The electronic state is 1-A.
 Alpha  occ. eigenvalues --  -19.13582 -19.13498 -10.27063 -10.22777 -10.22731
 Alpha  occ. eigenvalues --  -10.19226 -10.19164 -10.18514 -10.17800  -1.06472
 Alpha  occ. eigenvalues --   -0.99993  -0.84460  -0.76590  -0.70798  -0.67375
 Alpha  occ. eigenvalues --   -0.62251  -0.55396  -0.54384  -0.53294  -0.48448
 Alpha  occ. eigenvalues --   -0.46602  -0.45935  -0.43382  -0.42697  -0.39948
 Alpha  occ. eigenvalues --   -0.38523  -0.37379  -0.35450  -0.33483  -0.31356
 Alpha  occ. eigenvalues --   -0.29263  -0.29188  -0.26256  -0.25081
 Alpha virt. eigenvalues --    0.07810   0.11117   0.12009   0.12282   0.12622
 Alpha virt. eigenvalues --    0.13639   0.14616   0.15878   0.16566   0.17357
 Alpha virt. eigenvalues --    0.18136   0.19400   0.20605   0.21017   0.21520

 Mulliken charges:
               1
     1  C   -0.240456
     2  C   -0.046532
     3  C   -0.088403
     4  O   -0.270061
     5  C    0.198702
     6  C   -0.269478
     7  C   -0.065896
     8  C    0.110701
     9  O   -0.263402
    10  H    0.097300
    11  H    0.111162
    12  H    0.070204
    13  H    0.109844
    14  H    0.092210
    15  H    0.090038
    16  H    0.108384
    17  H    0.109860
    18  H    0.071414
    19  H    0.074409
 Sum of Mulliken charges =   0.00000

 Dipole moment (field-independent basis, Debye):
    X=             -1.0478    Y=              0.3826    Z=              2.2328  Tot=              2.4959
 Quadrupole moment (field-independent basis, Debye-Ang):
   XX=            -51.3270   YY=            -52.7024   ZZ=            -54.7324
   XY=             -1.2049   XZ=              1.4788   YZ=             -0.9299

 Optimization completed.
    -- Stationary point found.
 Normal termination of Gaussian 09 at Mon Jan 27 11:19:39 2020.

 ----------------------------------------------------------------------
 #N Geom=AllCheck Guess=TCheck SCRF=Check GenChk RB3LYP/6-31G(2df,p) Fr
 eq
 ----------------------------------------------------------------------

 Structure from the checkpoint file:  "/scratch/puck/g09_b5d8825b-8713-4873-add5-b7caa8e30f3e/Gau-164780.chk"
 -----
 titel
 -----
 Charge =  0 Multiplicity = 1

                         Standard orientation:
 ---------------------------------------------------------------------
 Center     Atomic      Atomic             Coordinates (Angstroms)
 Number     Number       Type             X           Y           Z
 ---------------------------------------------------------------------
      1          6           0       -1.718448    0.186809   -0.592072
      2          6           0       -0.928774    0.950791    0.507431
      3          6           0        0.299905    1.702634   -0.005212
      4          8           0        1.198968    0.878312   -0.750572
      5          6           0        1.272347   -0.472950   -0.341369
      6          6           0        1.004986   -0.624711    1.161134
      7          6           0       -0.508047   -0.429408    1.131185
      8          6           0       -0.946107   -1.097506   -0.209420
      9          8           0        0.261928   -1.262202   -0.951148
     10          1           0       -2.782394    0.108415   -0.350667
     11          1           0       -1.602144    0.520200   -1.625985
     12          1           0       -1.515430    1.615900    1.146707
     13          1           0        0.006341    2.514577   -0.679069
     14          1           0        0.831881    2.157387    0.844651
     15          1           0        2.229182   -0.847886   -0.707511
     16          1           0        1.279390   -1.628420    1.497447
     17          1           0        1.543693    0.109913    1.764416
     18          1           0       -1.051549   -0.723780    2.028132
     19          1           0       -1.481310   -2.049150   -0.214427
 ---------------------------------------------------------------------

 SCF Done:  E(RB3LYP) =  -423.198098027     A.U. after    1 cycles
