 Gaussian 09, Revision D.01,
 Gaussian 09:  ES64L-G09RevD.01 24-Apr-2013

 -----------------------------
 # b3lyp 6-31G(2df,p) opt Freq
 -----------------------------

 -----
 titel
 -----
 Symbolic Z-matrix:
 Charge =  0 Multiplicity = 1

 SCF Done:  E(RB3LYP) =  -423.077482807     A.U. after   13 cycles

 The electronic state is 1-A.
 Alpha  occ. eigenvalues --  -19.14885 -19.12803 -10.24686 -10.24558 -10.24131
 Alpha  occ. eigenvalues --  -10.23694 -10.19543 -10.18688 -10.18603  -1.06791
 Alpha  occ. eigenvalues --   -1.03281  -0.84901  -0.78925  -0.67665  -0.65231
 Alpha  occ. eigenvalues --   -0.60627  -0.59240  -0.54317  -0.52381  -0.51464
 Alpha  occ. eigenvalues --   -0.48621  -0.46344  -0.43733  -0.40444  -0.38833
 Alpha  occ. eigenvalues --   -0.38390  -0.36843  -0.35778  -0.32778  -0.32104
 Alpha  occ. eigenvalues --   -0.30378  -0.28419  -0.25152  -0.23473
 Alpha virt. eigenvalues --    0.08767   0.10179   0.10673   0.11792   0.11990
 Alpha virt. eigenvalues --    0.12652   0.13271   0.14025   0.14860   0.15614
 Alpha virt. eigenvalues --    0.16373   0.17414   0.18747   0.20820   0.21751

 Mulliken charges:
               1
     1  C   -0.284452
     2  C   -0.289169
     3  C    0.134623
     4  O   -0.260006
     5  C    0.182657
     6  C    0.006449
     7  C   -0.231195
     8  C    0.007891
     9  O   -0.310310
    10  H    0.128620
    11  H    0.115571
    12  H    0.113549
    13  H    0.119732
    14  H    0.088586
    15  H    0.070092
    16  H    0.098579
    17  H    0.096835
    18  H    0.117194
    19  H    0.094755
 Sum of Mulliken charges =   0.00000

 Dipole moment (field-independent basis, Debye):
    X=              0.5885    Y=              2.4938    Z=              0.2504  Tot=              2.5745
 Quadrupole moment (field-independent basis, Debye-Ang):
   XX=            -51.5083   YY=            -55.9964   ZZ=            -49.5498
   XY=             -3.4778   XZ=              2.3766   YZ=              0.5250

 Optimization completed.
    -- Stationary point found.
 Normal termination of Gaussian 09 at Mon Jan 27 11:13:53 2020.

 ----------------------------------------------------------------------
 #N Geom=AllCheck Guess=TCheck SCRF=Check GenChk RB3LYP/6-31G(2df,p) Fr
 eq
 ----------------------------------------------------------------------

 Structure from the checkpoint file:  "/scratch/puck/g09_643790d8-6cd8-4441-a212-eecfed7fe179/Gau-15872.chk"
 -----
 titel
 -----
 Charge =  0 Multiplicity = 1

                         Standard orientation:
 ---------------------------------------------------------------------
 Center     Atomic      Atomic             Coordinates (Angstroms)
 Number     Number       Type             X           Y           Z
 ---------------------------------------------------------------------
      1          6           0        3.045528   -0.537543   -0.068338
      2          6           0        2.651658    0.927113   -0.067284
      3          6           0        1.699417   -0.132065    0.430802
      4          8           0        0.610695   -0.498365   -0.364760
      5          6           0       -0.477570    0.359180   -0.248230
      6          6           0       -1.796926   -0.156494   -0.860269
      7          6           0       -2.570193    0.860380    0.014369
      8          6           0       -1.525253    0.131993    0.890904
      9          8           0       -1.911463   -1.140142    0.241631
     10          1           0        3.068476   -1.040893   -1.027938
     11          1           0        3.780115   -0.885845    0.648509
     12          1           0        3.112899    1.595225    0.651690
     13          1           0        2.429918    1.375012   -1.029544
     14          1           0        1.506774   -0.183785    1.501941
     15          1           0       -0.201814    1.402730   -0.451555
     16          1           0       -1.996336   -0.505192   -1.873303
     17          1           0       -2.447486    1.928948   -0.181909
     18          1           0       -3.600597    0.574883    0.221038
     19          1           0       -1.405772    0.131592    1.974375
 ---------------------------------------------------------------------

 SCF Done:  E(RB3LYP) =  -423.077482807     A.U. after    1 cycles
