 Gaussian 09, Revision D.01,
 Gaussian 09:  ES64L-G09RevD.01 24-Apr-2013

 -----------------------------
 # b3lyp 6-31G(2df,p) opt Freq
 -----------------------------

 -----
 titel
 -----
 Symbolic Z-matrix:
 Charge =  0 Multiplicity = 1

 SCF Done:  E(RB3LYP) =  -423.136427345     A.U. after   14 cycles

 The electronic state is 1-A.
 Alpha  occ. eigenvalues --  -19.14436 -19.14086 -10.23606 -10.23485 -10.22851
 Alpha  occ. eigenvalues --  -10.22720 -10.21353 -10.17882 -10.16938  -1.04641
 Alpha  occ. eigenvalues --   -1.02461  -0.81424  -0.75006  -0.71207  -0.70194
 Alpha  occ. eigenvalues --   -0.60562  -0.59673  -0.52475  -0.50617  -0.50397
 Alpha  occ. eigenvalues --   -0.48763  -0.47748  -0.43316  -0.42407  -0.42125
 Alpha  occ. eigenvalues --   -0.39977  -0.37634  -0.36719  -0.32154  -0.31155
 Alpha  occ. eigenvalues --   -0.27643  -0.26489  -0.25598  -0.24559
 Alpha virt. eigenvalues --    0.04787   0.05491   0.09727   0.11048   0.12114
 Alpha virt. eigenvalues --    0.13018   0.13069   0.14263   0.14982   0.15082
 Alpha virt. eigenvalues --    0.16454   0.17134   0.18053   0.19126   0.22755

 Mulliken charges:
               1
     1  C   -0.495074
     2  C    0.356709
     3  C   -0.213101
     4  C   -0.078911
     5  O   -0.235345
     6  C   -0.065329
     7  C   -0.097647
     8  O   -0.242282
     9  C   -0.092600
    10  H    0.196720
    11  H    0.109631
    12  H    0.100547
    13  H    0.115107
    14  H    0.095274
    15  H    0.106549
    16  H    0.105871
    17  H    0.114674
    18  H    0.111274
    19  H    0.107932
 Sum of Mulliken charges =   0.00000

 Dipole moment (field-independent basis, Debye):
    X=              0.0553    Y=              0.5142    Z=              0.0983  Tot=              0.5264
 Quadrupole moment (field-independent basis, Debye-Ang):
   XX=            -51.6303   YY=            -56.6934   ZZ=            -48.2783
   XY=             -1.9175   XZ=             -0.7070   YZ=              0.8130

 Optimization completed.
    -- Stationary point found.
 Normal termination of Gaussian 09 at Mon Jan 27 11:14:04 2020.

 ----------------------------------------------------------------------
 #N Geom=AllCheck Guess=TCheck SCRF=Check GenChk RB3LYP/6-31G(2df,p) Fr
 eq
 ----------------------------------------------------------------------

 Structure from the checkpoint file:  "/scratch/puck/g09_73370d7d-5f0a-4c0f-9484-5b87939c8da0/Gau-94826.chk"
 -----
 titel
 -----
 Charge =  0 Multiplicity = 1

                         Standard orientation:
 ---------------------------------------------------------------------
 Center     Atomic      Atomic             Coordinates (Angstroms)
 Number     Number       Type             X           Y           Z
 ---------------------------------------------------------------------
      1          6           0       -2.736569   -0.307507   -1.041401
      2          6           0       -1.923025   -0.017378   -0.205076
      3          6           0       -0.937774    0.366363    0.802134
      4          6           0       -0.070291   -0.847300    1.227067
      5          8           0        0.479411   -1.564772    0.143374
      6          6           0        1.652881   -1.015321   -0.419673
      7          6           0        1.469631    0.385070   -0.994561
      8          8           0        1.260469    1.330635    0.044918
      9          6           0       -0.087291    1.606576    0.352581
     10          1           0       -3.455496   -0.575524   -1.775347
     11          1           0       -1.486096    0.671194    1.704576
     12          1           0        0.714668   -0.504037    1.916553
     13          1           0       -0.712495   -1.557435    1.756120
     14          1           0        2.458583   -0.976152    0.331440
     15          1           0        1.956201   -1.706704   -1.213607
     16          1           0        2.388961    0.680141   -1.515385
     17          1           0        0.642506    0.400394   -1.717455
     18          1           0       -0.042324    2.325275    1.175712
     19          1           0       -0.588922    2.092925   -0.495364
 ---------------------------------------------------------------------

 SCF Done:  E(RB3LYP) =  -423.136427345     A.U. after    1 cycles
