 Gaussian 09, Revision D.01,
 Gaussian 09:  ES64L-G09RevD.01 24-Apr-2013

 -----------------------------
 # b3lyp 6-31G(2df,p) opt Freq
 -----------------------------

 -----
 titel
 -----
 Symbolic Z-matrix:
 Charge =  0 Multiplicity = 1

 SCF Done:  E(RB3LYP) =  -423.166796691     A.U. after   13 cycles

 The electronic state is 1-A.
 Alpha  occ. eigenvalues --  -19.13338 -19.13102 -10.27058 -10.23167 -10.22972
 Alpha  occ. eigenvalues --  -10.20562 -10.20268 -10.19210 -10.18871  -1.05376
 Alpha  occ. eigenvalues --   -0.99428  -0.87803  -0.75751  -0.71609  -0.69756
 Alpha  occ. eigenvalues --   -0.61273  -0.57262  -0.54244  -0.51884  -0.50264
 Alpha  occ. eigenvalues --   -0.47172  -0.45751  -0.44409  -0.42469  -0.39928
 Alpha  occ. eigenvalues --   -0.39506  -0.38562  -0.35640  -0.34532  -0.30559
 Alpha  occ. eigenvalues --   -0.29279  -0.27440  -0.25929  -0.25273
 Alpha virt. eigenvalues --    0.08377   0.09266   0.09970   0.11034   0.12512
 Alpha virt. eigenvalues --    0.13282   0.14645   0.15570   0.15844   0.17464
 Alpha virt. eigenvalues --    0.17890   0.19295   0.19482   0.21642   0.22246

 Mulliken charges:
               1
     1  C   -0.420153
     2  C   -0.033046
     3  C   -0.111192
     4  O   -0.278845
     5  C    0.251430
     6  C   -0.323673
     7  C    0.292452
     8  C   -0.143213
     9  O   -0.285236
    10  H    0.122842
    11  H    0.118449
    12  H    0.098774
    13  H    0.095643
    14  H    0.112901
    15  H    0.087583
    16  H    0.109724
    17  H    0.106249
    18  H    0.105944
    19  H    0.093366
 Sum of Mulliken charges =   0.00000

 Dipole moment (field-independent basis, Debye):
    X=              2.3258    Y=             -0.6751    Z=              1.1994  Tot=              2.7025
 Quadrupole moment (field-independent basis, Debye-Ang):
   XX=            -55.0813   YY=            -53.2403   ZZ=            -51.3899
   XY=              0.5841   XZ=             -3.1548   YZ=              0.8069

 Optimization completed.
    -- Stationary point found.
 Normal termination of Gaussian 09 at Mon Jan 27 11:16:04 2020.

 ----------------------------------------------------------------------
 #N Geom=AllCheck Guess=TCheck SCRF=Check GenChk RB3LYP/6-31G(2df,p) Fr
 eq
 ----------------------------------------------------------------------

 Structure from the checkpoint file:  "/scratch/puck/g09_e0ba327e-db2c-43d6-ab3f-9208686460bd/Gau-68809.chk"
 -----
 titel
 -----
 Charge =  0 Multiplicity = 1

                         Standard orientation:
 ---------------------------------------------------------------------
 Center     Atomic      Atomic             Coordinates (Angstroms)
 Number     Number       Type             X           Y           Z
 ---------------------------------------------------------------------
      1          6           0        2.096622   -0.505361    0.231645
      2          6           0        1.187901    0.371283   -0.606715
      3          6           0        0.522119    1.687530   -0.276956
      4          8           0       -0.908313    1.496953   -0.240639
      5          6           0       -1.348109    0.292220    0.368294
      6          6           0       -0.291238   -0.228742    1.335695
      7          6           0        0.625242   -0.760846    0.236341
      8          6           0       -0.334399   -1.634270   -0.532208
      9          8           0       -1.509824   -0.788060   -0.566231
     10          1           0        2.760490   -1.165025   -0.317688
     11          1           0        2.525500   -0.121396    1.152788
     12          1           0        1.222586    0.152850   -1.670206
     13          1           0        0.875949    2.101891    0.676662
     14          1           0        0.692280    2.444781   -1.045785
     15          1           0       -2.340525    0.507778    0.766966
     16          1           0        0.140752    0.540937    1.974770
     17          1           0       -0.681495   -1.034187    1.964849
     18          1           0       -0.017840   -1.851051   -1.556693
     19          1           0       -0.581441   -2.578609   -0.027278
 ---------------------------------------------------------------------

 SCF Done:  E(RB3LYP) =  -423.166796691     A.U. after    1 cycles
