 Gaussian 09, Revision D.01,
 Gaussian 09:  ES64L-G09RevD.01 24-Apr-2013

 -----------------------------
 # b3lyp 6-31G(2df,p) opt Freq
 -----------------------------

 -----
 titel
 -----
 Symbolic Z-matrix:
 Charge =  0 Multiplicity = 1

 SCF Done:  E(RB3LYP) =  -423.201437768     A.U. after   14 cycles

 The electronic state is 1-A.
 Alpha  occ. eigenvalues --  -19.15243 -19.12069 -10.26596 -10.24267 -10.23889
 Alpha  occ. eigenvalues --  -10.20374 -10.19887 -10.19330 -10.18066  -1.05639
 Alpha  occ. eigenvalues --   -1.03036  -0.85748  -0.77522  -0.73688  -0.65888
 Alpha  occ. eigenvalues --   -0.61814  -0.58250  -0.54188  -0.49349  -0.48380
 Alpha  occ. eigenvalues --   -0.46062  -0.44416  -0.43275  -0.42371  -0.41595
 Alpha  occ. eigenvalues --   -0.40626  -0.38476  -0.36632  -0.35462  -0.33939
 Alpha  occ. eigenvalues --   -0.32393  -0.30122  -0.24570  -0.23626
 Alpha virt. eigenvalues --   -0.01142   0.08467   0.09717   0.11613   0.12648
 Alpha virt. eigenvalues --    0.13409   0.14071   0.15088   0.15963   0.16626
 Alpha virt. eigenvalues --    0.16969   0.19808   0.20214   0.20626   0.22521

 Mulliken charges:
               1
     1  C   -0.477864
     2  C    0.307999
     3  O   -0.324329
     4  C    0.335012
     5  C   -0.343117
     6  C   -0.091152
     7  C   -0.245298
     8  C   -0.102661
     9  O   -0.308315
    10  H    0.133816
    11  H    0.143018
    12  H    0.149598
    13  H    0.143307
    14  H    0.118560
    15  H    0.113212
    16  H    0.114210
    17  H    0.112981
    18  H    0.115345
    19  H    0.105676
 Sum of Mulliken charges =   0.00000

 Dipole moment (field-independent basis, Debye):
    X=             -2.6291    Y=              1.1453    Z=             -0.2608  Tot=              2.8796
 Quadrupole moment (field-independent basis, Debye-Ang):
   XX=            -53.3665   YY=            -54.9186   ZZ=            -51.5970
   XY=              4.1789   XZ=              0.8498   YZ=             -1.5971

 Optimization completed.
    -- Stationary point found.
 Normal termination of Gaussian 09 at Mon Jan 27 11:18:44 2020.

 ----------------------------------------------------------------------
 #N Geom=AllCheck Guess=TCheck SCRF=Check GenChk RB3LYP/6-31G(2df,p) Fr
 eq
 ----------------------------------------------------------------------

 Structure from the checkpoint file:  "/scratch/puck/g09_d11507fc-31c1-435b-9d83-cca9ef379c89/Gau-70152.chk"
 -----
 titel
 -----
 Charge =  0 Multiplicity = 1

                         Standard orientation:
 ---------------------------------------------------------------------
 Center     Atomic      Atomic             Coordinates (Angstroms)
 Number     Number       Type             X           Y           Z
 ---------------------------------------------------------------------
      1          6           0        2.198023    1.290264   -0.175730
      2          6           0        1.555866   -0.074388   -0.062220
      3          8           0        2.171744   -1.108831   -0.217575
      4          6           0        0.095129   -0.108262    0.244815
      5          6           0       -0.505395   -1.328455    0.916299
      6          6           0       -0.850328   -1.024630   -0.515840
      7          6           0       -2.076505   -0.172156   -0.794741
      8          6           0       -1.912885    1.013813    0.183062
      9          8           0       -0.514253    1.138328    0.455733
     10          1           0        3.253222    1.175690   -0.424925
     11          1           0        1.685768    1.887104   -0.937110
     12          1           0        2.085440    1.837860    0.765825
     13          1           0        0.186877   -2.144610    1.085927
     14          1           0       -1.242372   -1.164217    1.695091
     15          1           0       -0.454301   -1.669469   -1.290773
     16          1           0       -2.054608    0.167877   -1.834984
     17          1           0       -3.023424   -0.695917   -0.633112
     18          1           0       -2.262365    1.966849   -0.222801
     19          1           0       -2.457597    0.825732    1.117731
 ---------------------------------------------------------------------

 SCF Done:  E(RB3LYP) =  -423.201437768     A.U. after    1 cycles
