 Gaussian 09, Revision D.01,
 Gaussian 09:  ES64L-G09RevD.01 24-Apr-2013

 -----------------------------
 # b3lyp 6-31G(2df,p) opt Freq
 -----------------------------

 -----
 titel
 -----
 Symbolic Z-matrix:
 Charge =  0 Multiplicity = 1

 SCF Done:  E(RB3LYP) =  -423.204805799     A.U. after   14 cycles

 The electronic state is 1-A.
 Alpha  occ. eigenvalues --  -19.19730 -19.13865 -10.22840 -10.22749 -10.22308
 Alpha  occ. eigenvalues --  -10.22306 -10.19108 -10.17715 -10.17483  -1.09992
 Alpha  occ. eigenvalues --   -1.03237  -0.79731  -0.78620  -0.72400  -0.66963
 Alpha  occ. eigenvalues --   -0.61323  -0.59298  -0.54494  -0.52044  -0.48389
 Alpha  occ. eigenvalues --   -0.47841  -0.45767  -0.44156  -0.42748  -0.40937
 Alpha  occ. eigenvalues --   -0.39493  -0.38489  -0.37212  -0.36241  -0.34794
 Alpha  occ. eigenvalues --   -0.31713  -0.27180  -0.25427  -0.21598
 Alpha virt. eigenvalues --    0.01992   0.07843   0.09345   0.11123   0.13042
 Alpha virt. eigenvalues --    0.14185   0.14497   0.15070   0.15913   0.17006
 Alpha virt. eigenvalues --    0.17411   0.18135   0.18763   0.20442   0.21585

 Mulliken charges:
               1
     1  C   -0.228789
     2  O   -0.229292
     3  C   -0.047021
     4  C   -0.324212
     5  C    0.358078
     6  C   -0.275267
     7  C   -0.168576
     8  C   -0.020998
     9  O   -0.179987
    10  H    0.104221
    11  H    0.126643
    12  H    0.103352
    13  H    0.099309
    14  H    0.089436
    15  H    0.122048
    16  H    0.125403
    17  H    0.106284
    18  H    0.109272
    19  H    0.130094
 Sum of Mulliken charges =   0.00000

 Dipole moment (field-independent basis, Debye):
    X=              0.1072    Y=             -0.1932    Z=             -0.9501  Tot=              0.9755
 Quadrupole moment (field-independent basis, Debye-Ang):
   XX=            -48.0709   YY=            -51.0184   ZZ=            -54.7104
   XY=              1.0589   XZ=              1.0675   YZ=             -0.4922

 Optimization completed.
    -- Stationary point found.
 Normal termination of Gaussian 09 at Mon Jan 27 11:16:00 2020.

 ----------------------------------------------------------------------
 #N Geom=AllCheck Guess=TCheck SCRF=Check GenChk RB3LYP/6-31G(2df,p) Fr
 eq
 ----------------------------------------------------------------------

 Structure from the checkpoint file:  "/scratch/puck/g09_ce8796d5-cfdb-4d51-ab84-862c70e592a3/Gau-22663.chk"
 -----
 titel
 -----
 Charge =  0 Multiplicity = 1

                         Standard orientation:
 ---------------------------------------------------------------------
 Center     Atomic      Atomic             Coordinates (Angstroms)
 Number     Number       Type             X           Y           Z
 ---------------------------------------------------------------------
      1          6           0       -3.796519   -0.351426   -0.441518
      2          8           0       -2.755551    0.244985    0.293532
      3          6           0       -1.477346   -0.076183   -0.206523
      4          6           0       -0.436778    0.624203    0.671831
      5          6           0        0.962803    0.341614    0.252003
      6          6           0        1.957333    1.103271   -0.280493
      7          6           0        3.082666    0.235655   -0.474497
      8          6           0        2.686577   -0.989492   -0.047211
      9          8           0        1.401167   -0.945573    0.397543
     10          1           0       -3.729801   -1.451015   -0.427291
     11          1           0       -4.739478   -0.049347    0.020822
     12          1           0       -3.795409   -0.023316   -1.493360
     13          1           0       -1.313237   -1.165881   -0.190118
     14          1           0       -1.372438    0.254038   -1.253860
     15          1           0       -0.605428    1.704123    0.632111
     16          1           0       -0.597923    0.309659    1.709891
     17          1           0        1.897951    2.157034   -0.504607
     18          1           0        4.050252    0.495115   -0.874460
     19          1           0        3.168174   -1.951561    0.010713
 ---------------------------------------------------------------------

 SCF Done:  E(RB3LYP) =  -423.204805798     A.U. after    1 cycles
