 Gaussian 09, Revision D.01,
 Gaussian 09:  ES64L-G09RevD.01 24-Apr-2013

 -----------------------------
 # b3lyp 6-31G(2df,p) opt Freq
 -----------------------------

 -----
 titel
 -----
 Symbolic Z-matrix:
 Charge =  0 Multiplicity = 1

 SCF Done:  E(RB3LYP) =  -423.156700042     A.U. after   13 cycles

 The electronic state is 1-A.
 Alpha  occ. eigenvalues --  -19.14234 -19.14176 -10.27032 -10.23528 -10.23436
 Alpha  occ. eigenvalues --  -10.19705 -10.19592 -10.19361 -10.18453  -1.07026
 Alpha  occ. eigenvalues --   -1.00452  -0.89933  -0.73872  -0.73094  -0.63948
 Alpha  occ. eigenvalues --   -0.63584  -0.58792  -0.53517  -0.51937  -0.50345
 Alpha  occ. eigenvalues --   -0.47735  -0.46347  -0.45638  -0.41833  -0.41169
 Alpha  occ. eigenvalues --   -0.38983  -0.37179  -0.35769  -0.34066  -0.30812
 Alpha  occ. eigenvalues --   -0.28844  -0.27981  -0.25730  -0.25054
 Alpha virt. eigenvalues --    0.09494   0.09778   0.10582   0.11200   0.12488
 Alpha virt. eigenvalues --    0.14018   0.14860   0.15265   0.15638   0.16294
 Alpha virt. eigenvalues --    0.16966   0.18127   0.19516   0.20488   0.22325

 Mulliken charges:
               1
     1  C   -0.354653
     2  C   -0.095492
     3  C   -0.251404
     4  C    0.056705
     5  O   -0.253728
     6  C    0.013884
     7  O   -0.229334
     8  C   -0.212626
     9  C    0.342606
    10  H    0.106155
    11  H    0.114229
    12  H    0.090328
    13  H    0.123212
    14  H    0.095650
    15  H    0.060789
    16  H    0.117703
    17  H    0.071347
    18  H    0.112635
    19  H    0.091995
 Sum of Mulliken charges =   0.00000

 Dipole moment (field-independent basis, Debye):
    X=              1.0978    Y=              0.8314    Z=              1.0136  Tot=              1.7099
 Quadrupole moment (field-independent basis, Debye-Ang):
   XX=            -53.0942   YY=            -53.3076   ZZ=            -52.7723
   XY=              0.9574   XZ=             -1.9168   YZ=             -0.0225

 Optimization completed.
    -- Stationary point found.
 Normal termination of Gaussian 09 at Mon Jan 27 11:24:31 2020.

 ----------------------------------------------------------------------
 #N Geom=AllCheck Guess=TCheck SCRF=Check GenChk RB3LYP/6-31G(2df,p) Fr
 eq
 ----------------------------------------------------------------------

 Structure from the checkpoint file:  "/scratch/puck/g09_dc5ce982-95ed-4ff5-b57d-2307e5917a06/Gau-22732.chk"
 -----
 titel
 -----
 Charge =  0 Multiplicity = 1

                         Standard orientation:
 ---------------------------------------------------------------------
 Center     Atomic      Atomic             Coordinates (Angstroms)
 Number     Number       Type             X           Y           Z
 ---------------------------------------------------------------------
      1          6           0        1.915508    0.966929    0.496676
      2          6           0        1.642396    0.141627   -0.735438
      3          6           0        1.435254   -1.326622   -0.339267
      4          6           0        0.248688   -0.891931    0.567317
      5          8           0       -0.975425   -1.351275    0.009098
      6          6           0       -2.011314   -0.413520    0.166015
      7          8           0       -1.775437    0.781229   -0.528909
      8          6           0       -0.670292    1.491425    0.028417
      9          6           0        0.503829    0.575068    0.190835
     10          1           0        2.441606    0.536788    1.347285
     11          1           0        2.153520    2.011352    0.314477
     12          1           0        1.888736    0.503597   -1.726457
     13          1           0        1.063557   -1.956066   -1.148657
     14          1           0        2.280779   -1.818319    0.151727
     15          1           0        0.294555   -1.149788    1.636344
     16          1           0       -2.907265   -0.862794   -0.266425
     17          1           0       -2.173626   -0.199282    1.240357
     18          1           0       -0.455466    2.326931   -0.644839
     19          1           0       -0.963910    1.910084    1.007344
 ---------------------------------------------------------------------

 SCF Done:  E(RB3LYP) =  -423.156700042     A.U. after    1 cycles
