 Gaussian 09, Revision D.01,
 Gaussian 09:  ES64L-G09RevD.01 24-Apr-2013

 -----------------------------
 # b3lyp 6-31G(2df,p) opt Freq
 -----------------------------

 -----
 titel
 -----
 Symbolic Z-matrix:
 Charge =  0 Multiplicity = 1

 SCF Done:  E(RB3LYP) =  -423.210919621     A.U. after   13 cycles

 The electronic state is 1-A.
 Alpha  occ. eigenvalues --  -19.18983 -19.16521 -10.23901 -10.22440 -10.21737
 Alpha  occ. eigenvalues --  -10.21075 -10.18287 -10.18031 -10.17781  -1.09310
 Alpha  occ. eigenvalues --   -1.05927  -0.80556  -0.76229  -0.73018  -0.69074
 Alpha  occ. eigenvalues --   -0.63720  -0.56965  -0.55903  -0.52800  -0.48307
 Alpha  occ. eigenvalues --   -0.45896  -0.44047  -0.43178  -0.42413  -0.40076
 Alpha  occ. eigenvalues --   -0.39647  -0.39094  -0.38395  -0.37004  -0.35234
 Alpha  occ. eigenvalues --   -0.32555  -0.32306  -0.23253  -0.20439
 Alpha virt. eigenvalues --    0.03219   0.09360   0.09430   0.10395   0.12731
 Alpha virt. eigenvalues --    0.12996   0.14825   0.14911   0.16406   0.17233
 Alpha virt. eigenvalues --    0.18152   0.18718   0.18928   0.19808   0.21287

 Mulliken charges:
               1
     1  C   -0.391149
     2  C   -0.050981
     3  O   -0.267664
     4  C    0.248215
     5  C   -0.157175
     6  O   -0.157153
     7  C   -0.075602
     8  C    0.114971
     9  C   -0.500455
    10  H    0.131227
    11  H    0.131227
    12  H    0.119851
    13  H    0.103402
    14  H    0.103402
    15  H    0.129271
    16  H    0.131669
    17  H    0.121527
    18  H    0.132711
    19  H    0.132707
 Sum of Mulliken charges =   0.00000

 Dipole moment (field-independent basis, Debye):
    X=             -1.1783    Y=              0.1015    Z=              0.0000  Tot=              1.1827
 Quadrupole moment (field-independent basis, Debye-Ang):
   XX=            -47.4397   YY=            -52.4289   ZZ=            -54.5534
   XY=              4.6342   XZ=              0.0001   YZ=              0.0002

 Optimization completed.
    -- Stationary point found.
 Normal termination of Gaussian 09 at Mon Jan 27 11:12:18 2020.

 ----------------------------------------------------------------------
 #N Geom=AllCheck Guess=TCheck SCRF=Check GenChk RB3LYP/6-31G(2df,p) Fr
 eq
 ----------------------------------------------------------------------

 Structure from the checkpoint file:  "/scratch/puck/g09_d3195cc8-a102-4f22-9778-6f204526a179/Gau-69652.chk"
 -----
 titel
 -----
 Charge =  0 Multiplicity = 1

                         Standard orientation:
 ---------------------------------------------------------------------
 Center     Atomic      Atomic             Coordinates (Angstroms)
 Number     Number       Type             X           Y           Z
 ---------------------------------------------------------------------
      1          6           0       -3.460405    0.279876    0.000036
      2          6           0       -2.164852   -0.509591    0.000002
      3          8           0       -1.080430    0.412470   -0.000028
      4          6           0        0.153593   -0.140396   -0.000015
      5          6           0        0.541233   -1.448423   -0.000066
      6          8           0        1.908353   -1.515195    0.000041
      7          6           0        2.366797   -0.238502    0.000041
      8          6           0        1.348876    0.661634   -0.000012
      9          6           0        1.413306    2.155057   -0.000013
     10          1           0       -3.523518    0.916651    0.886756
     11          1           0       -3.523554    0.916664   -0.886672
     12          1           0       -4.316300   -0.401330    0.000047
     13          1           0       -2.093533   -1.155791    0.887562
     14          1           0       -2.093583   -1.155792   -0.887562
     15          1           0        0.019622   -2.388428   -0.000111
     16          1           0        3.438913   -0.123807    0.000071
     17          1           0        2.449674    2.503218   -0.000480
     18          1           0        0.913399    2.576252   -0.879272
     19          1           0        0.914211    2.576239    0.879717
 ---------------------------------------------------------------------

 SCF Done:  E(RB3LYP) =  -423.210919621     A.U. after    1 cycles
