 Gaussian 09, Revision D.01,
 Gaussian 09:  ES64L-G09RevD.01 24-Apr-2013

 -----------------------------
 # b3lyp 6-31G(2df,p) opt Freq
 -----------------------------

 -----
 titel
 -----
 Symbolic Z-matrix:
 Charge =  0 Multiplicity = 1

 SCF Done:  E(RB3LYP) =  -423.190128187     A.U. after   13 cycles

 The electronic state is 1-A.
 Alpha  occ. eigenvalues --  -19.13669 -19.13517 -10.27027 -10.22779 -10.22570
 Alpha  occ. eigenvalues --  -10.19626 -10.19313 -10.19036 -10.18556  -1.06541
 Alpha  occ. eigenvalues --   -1.00016  -0.85947  -0.75216  -0.71586  -0.65243
 Alpha  occ. eigenvalues --   -0.62628  -0.58893  -0.54571  -0.51614  -0.48905
 Alpha  occ. eigenvalues --   -0.46558  -0.45242  -0.43049  -0.42720  -0.41283
 Alpha  occ. eigenvalues --   -0.39133  -0.37763  -0.34686  -0.32312  -0.31004
 Alpha  occ. eigenvalues --   -0.29997  -0.29706  -0.26451  -0.25156
 Alpha virt. eigenvalues --    0.07907   0.10866   0.11660   0.12547   0.13845
 Alpha virt. eigenvalues --    0.14208   0.14381   0.14840   0.15956   0.17105
 Alpha virt. eigenvalues --    0.17622   0.18360   0.19678   0.19902   0.22037

 Mulliken charges:
               1
     1  C   -0.231551
     2  C   -0.068824
     3  C   -0.090539
     4  O   -0.260213
     5  C    0.218046
     6  O   -0.267941
     7  C   -0.111832
     8  C   -0.032264
     9  C   -0.078100
    10  H    0.098378
    11  H    0.106733
    12  H    0.067777
    13  H    0.108229
    14  H    0.102593
    15  H    0.091752
    16  H    0.101982
    17  H    0.101534
    18  H    0.074955
    19  H    0.069283
 Sum of Mulliken charges =   0.00000

 Dipole moment (field-independent basis, Debye):
    X=             -1.2010    Y=             -2.1252    Z=              0.6427  Tot=              2.5243
 Quadrupole moment (field-independent basis, Debye-Ang):
   XX=            -55.0340   YY=            -54.7460   ZZ=            -49.9411
   XY=             -1.6713   XZ=             -0.3285   YZ=              0.3424

 Optimization completed.
    -- Stationary point found.
 Normal termination of Gaussian 09 at Mon Jan 27 11:19:54 2020.

 ----------------------------------------------------------------------
 #N Geom=AllCheck Guess=TCheck SCRF=Check GenChk RB3LYP/6-31G(2df,p) Fr
 eq
 ----------------------------------------------------------------------

 Structure from the checkpoint file:  "/scratch/puck/g09_74803ff7-f094-44c5-a397-f9fcbe536182/Gau-32361.chk"
 -----
 titel
 -----
 Charge =  0 Multiplicity = 1

                         Standard orientation:
 ---------------------------------------------------------------------
 Center     Atomic      Atomic             Coordinates (Angstroms)
 Number     Number       Type             X           Y           Z
 ---------------------------------------------------------------------
      1          6           0       -1.645896   -0.633892   -0.654981
      2          6           0       -1.124197   -0.459773    0.800775
      3          6           0       -0.814769    1.025774    0.996898
      4          8           0       -0.274041    1.582178   -0.203539
      5          6           0        0.545624    0.669175   -0.900581
      6          8           0        1.750842    0.403885   -0.206073
      7          6           0        1.547848   -0.689827    0.700433
      8          6           0        0.168993   -1.240785    0.361387
      9          6           0       -0.156370   -0.705939   -1.054421
     10          1           0       -2.146577   -1.593595   -0.803366
     11          1           0       -2.252529    0.172430   -1.073878
     12          1           0       -1.707770   -0.858577    1.633483
     13          1           0       -1.731804    1.585912    1.207656
     14          1           0       -0.122637    1.184706    1.836461
     15          1           0        0.810946    1.166342   -1.834910
     16          1           0        2.333406   -1.435660    0.527254
     17          1           0        1.636949   -0.337578    1.736477
     18          1           0        0.072130   -2.318524    0.499099
     19          1           0        0.166070   -1.242364   -1.948436
 ---------------------------------------------------------------------

 SCF Done:  E(RB3LYP) =  -423.190128187     A.U. after    1 cycles
