 Gaussian 09, Revision D.01,
 Gaussian 09:  ES64L-G09RevD.01 24-Apr-2013

 -----------------------------
 # b3lyp 6-31G(2df,p) opt Freq
 -----------------------------

 -----
 titel
 -----
 Symbolic Z-matrix:
 Charge =  0 Multiplicity = 1

 SCF Done:  E(RB3LYP) =  -423.209496185     A.U. after   14 cycles
 SCF Done:  E(RB3LYP) =  -423.209496253     A.U. after    6 cycles
 Optimization completed.
    -- Stationary point found.
 Normal termination of Gaussian 09 at Mon Jan 27 10:25:52 2020.

 ----------------------------------------------------------------------
 #N Geom=AllCheck Guess=TCheck SCRF=Check GenChk RB3LYP/6-31G(2df,p) Fr
 eq
 ----------------------------------------------------------------------

 Structure from the checkpoint file:  "/scratch/puck/g09_c7148d7b-7df9-4c5a-82f1-c534ce286598/Gau-19600.chk"
 -----
 titel
 -----
 Charge =  0 Multiplicity = 1

                         Standard orientation:
 ---------------------------------------------------------------------
 Center     Atomic      Atomic             Coordinates (Angstroms)
 Number     Number       Type             X           Y           Z
 ---------------------------------------------------------------------
      1          6           0       -3.317535   -0.637502    0.624711
      2          6           0       -2.604008    0.196246   -0.452501
      3          6           0       -1.116682    0.255202   -0.268302
      4          6           0       -0.375106    1.350895    0.031245
      5          8           0        0.960306    1.016084    0.135055
      6          6           0        1.036929   -0.312009   -0.105162
      7          8           0        2.239194   -0.895450   -0.065397
      8          6           0        3.359834   -0.061849    0.220539
      9          6           0       -0.187791   -0.845314   -0.358885
     10          1           0       -4.397361   -0.663252    0.447353
     11          1           0       -2.952512   -1.669264    0.632182
     12          1           0       -3.143607   -0.217776    1.620298
     13          1           0       -2.833820   -0.223747   -1.440385
     14          1           0       -3.006433    1.215661   -0.452149
     15          1           0       -0.605346    2.390029    0.192705
     16          1           0        3.265052    0.406424    1.205633
     17          1           0        4.228177   -0.721146    0.205821
     18          1           0        3.474940    0.721716   -0.535490
     19          1           0       -0.398940   -1.877734   -0.583107
 ---------------------------------------------------------------------

 SCF Done:  E(RB3LYP) =  -423.209496253     A.U. after    1 cycles

 The electronic state is 1-A.
 Alpha  occ. eigenvalues --  -19.19660 -19.17754 -10.27537 -10.23945 -10.20962
 Alpha  occ. eigenvalues --  -10.18454 -10.17788 -10.17191 -10.16067  -1.11813
 Alpha  occ. eigenvalues --   -1.05485  -0.80827  -0.75871  -0.73065  -0.68819
 Alpha  occ. eigenvalues --   -0.63133  -0.57309  -0.55759  -0.51850  -0.48224
 Alpha  occ. eigenvalues --   -0.47428  -0.44958  -0.43645  -0.42857  -0.41361
 Alpha  occ. eigenvalues --   -0.38888  -0.38082  -0.36666  -0.34797  -0.34247
 Alpha  occ. eigenvalues --   -0.33237  -0.33182  -0.25483  -0.19005
 Alpha virt. eigenvalues --    0.04026   0.08414   0.10466   0.11072   0.11969
 Alpha virt. eigenvalues --    0.13683   0.14088   0.15610   0.15752   0.17165
 Alpha virt. eigenvalues --    0.17277   0.17786   0.19084   0.20879   0.23264

 Mulliken charges:
               1
     1  C   -0.365079
     2  C   -0.298166
     3  C    0.291647
     4  C   -0.148146
     5  O   -0.196007
     6  C    0.481588
     7  O   -0.268480
     8  C   -0.244463
     9  C   -0.449131
    10  H    0.109595
    11  H    0.120519
    12  H    0.119823
    13  H    0.107102
    14  H    0.100310
    15  H    0.127423
    16  H    0.134232
    17  H    0.136692
    18  H    0.134088
    19  H    0.106455
 Sum of Mulliken charges =   0.00000

 Dipole moment (field-independent basis, Debye):
    X=              0.4979    Y=              0.6111    Z=              0.1751  Tot=              0.8075
 Quadrupole moment (field-independent basis, Debye-Ang):
   XX=            -45.0956   YY=            -52.3760   ZZ=            -54.6109
   XY=              0.7064   XZ=              1.3428   YZ=              0.6248

  Exact polarizability: 110.246   0.217  76.258   3.406   3.159  53.994
 Approx polarizability: 140.872   1.736 126.297   7.336   8.980  81.480

                      1                      2                      3
                      A                      A                      A
 Frequencies --     28.9505                63.9243               123.0811
 Red. masses --      2.9054                 2.6035                 2.9812
 Frc consts  --      0.0014                 0.0063                 0.0266
 IR Inten    --      4.7950                 0.0344                 0.0769

                      4                      5                      6
                      A                      A                      A
 Frequencies --    173.1575               188.6742               240.4965
 Red. masses --      1.2930                 1.5272                 1.8000
 Frc consts  --      0.0228                 0.0320                 0.0613
 IR Inten    --      0.8109                 1.1179                 2.4523

                      7                      8                      9
                      A                      A                      A
 Frequencies --    267.7517               340.0494               424.4366
 Red. masses --      2.9223                 2.5526                 5.0585
 Frc consts  --      0.1234                 0.1739                 0.5369
 IR Inten    --      0.0874                 1.8771                 2.1835

                     10                     11                     12
                      A                      A                      A
 Frequencies --    491.4705               602.6911               631.0771
 Red. masses --      3.9304                 4.0171                 1.4857
 Frc consts  --      0.5593                 0.8597                 0.3486
 IR Inten    --      1.4164                 9.7287                18.2548

                     13                     14                     15
                      A                      A                      A
 Frequencies --    673.9315               693.1963               722.9256
 Red. masses --      2.8801                 3.3473                 3.8364
 Frc consts  --      0.7707                 0.9477                 1.1813
 IR Inten    --      1.4602                 2.3376                 5.3769

                     16                     17                     18
                      A                      A                      A
 Frequencies --    763.0333               791.1151               948.0877
 Red. masses --      1.4825                 1.2044                 3.5093
 Frc consts  --      0.5085                 0.4441                 1.8585
 IR Inten    --     36.2347                 2.3121                 8.1908

                     19                     20                     21
                      A                      A                      A
 Frequencies --    958.8521              1006.7068              1059.0915
 Red. masses --      3.2674                 2.9364                 3.1161
 Frc consts  --      1.7699                 1.7533                 2.0593
 IR Inten    --      2.7109                 0.2854                77.4429

                     22                     23                     24
                      A                      A                      A
 Frequencies --   1063.9238              1089.8018              1125.9209
 Red. masses --      1.9202                 1.7636                 4.3682
 Frc consts  --      1.2806                 1.2341                 3.2626
 IR Inten    --     16.0189                 5.5992                21.5344

                     25                     26                     27
                      A                      A                      A
 Frequencies --   1177.3470              1192.9039              1201.3088
 Red. masses --      1.2608                 1.8080                 1.6291
 Frc consts  --      1.0297                 1.5159                 1.3852
 IR Inten    --      0.6046                40.4116                13.2333

                     28                     29                     30
                      A                      A                      A
 Frequencies --   1244.2308              1287.2980              1329.6041
 Red. masses --      1.4369                 1.2752                 3.5696
 Frc consts  --      1.3106                 1.2450                 3.7181
 IR Inten    --     21.7441                 1.1359                76.9459

                     31                     32                     33
                      A                      A                      A
 Frequencies --   1359.8180              1407.2563              1423.4068
 Red. masses --      1.5920                 1.2679                 2.7239
 Frc consts  --      1.7344                 1.4794                 3.2517
 IR Inten    --     12.1607                 7.5314                77.7755

                     34                     35                     36
                      A                      A                      A
 Frequencies --   1481.5589              1483.3478              1485.6248
 Red. masses --      1.2146                 1.1430                 1.0479
 Frc consts  --      1.5708                 1.4818                 1.3626
 IR Inten    --      9.3919                 2.0538                 5.4597

                     37                     38                     39
                      A                      A                      A
 Frequencies --   1496.5926              1502.7791              1507.0173
 Red. masses --      1.0403                 1.0504                 1.0749
 Frc consts  --      1.3729                 1.3977                 1.4383
 IR Inten    --      4.7607                29.9267                 5.3787

                     40                     41                     42
                      A                      A                      A
 Frequencies --   1612.7647              1667.7143              3020.5428
 Red. masses --      6.1302                 7.2247                 1.0627
 Frc consts  --      9.3944                11.8390                 5.7124
 IR Inten    --    130.1909               257.2742                31.9150

                     43                     44                     45
                      A                      A                      A
 Frequencies --   3032.3141              3036.3516              3060.1047
 Red. masses --      1.0317                 1.0345                 1.0985
 Frc consts  --      5.5893                 5.6191                 6.0608
 IR Inten    --     51.0398                27.5427                13.4722

                     46                     47                     48
                      A                      A                      A
 Frequencies --   3098.8002              3107.3100              3111.4622
 Red. masses --      1.1056                 1.1017                 1.1025
 Frc consts  --      6.2551                 6.2673                 6.2888
 IR Inten    --     28.6775                40.8656                33.1874

                     49                     50                     51
                      A                      A                      A
 Frequencies --   3148.6502              3266.9484              3284.2537
 Red. masses --      1.1032                 1.0968                 1.0979
 Frc consts  --      6.4438                 6.8969                 6.9775
 IR Inten    --     18.3254                 2.2842                 0.1281

 - Thermochemistry -
 -------------------
 Temperature   298.150 Kelvin.  Pressure   1.00000 Atm.
 Atom     1 has atomic number  6 and mass  12.00000

 Molecular mass:   126.06808 amu.
 Principal axes and moments of inertia in atomic units:
                           1         2         3
     Eigenvalues --   359.941352102.723752331.63840
           X            0.99993   0.01143  -0.00095
           Y           -0.01143   0.99991  -0.00669
           Z            0.00087   0.00670   0.99998
 This molecule is an asymmetric top.
 Rotational symmetry number  1.
 Rotational temperatures (Kelvin)      0.24063     0.04119     0.03715
 Rotational constants (GHZ):           5.01399     0.85829     0.77402
 Zero-point vibrational energy     415700.3 (Joules/Mol)
                                   99.35475 (Kcal/Mol)
 Warning -- explicit consideration of  11 degrees of freedom as
           vibrations may cause significant error
 Vibrational temperatures:     41.65    91.97   177.09   249.13   271.46
          (Kelvin)            346.02   385.23   489.25   610.67   707.12
                              867.14   907.98   969.64   997.35  1040.13
                             1097.83  1138.24  1364.09  1379.57  1448.42
                             1523.79  1530.75  1567.98  1619.95  1693.94
                             1716.32  1728.41  1790.17  1852.13  1913.00
                             1956.47  2024.73  2047.96  2131.63  2134.20
                             2137.48  2153.26  2162.16  2168.26  2320.41
                             2399.47  4345.88  4362.82  4368.63  4402.80
                             4458.48  4470.72  4476.69  4530.20  4700.40
                             4725.30

 Zero-point correction=                           0.158332 (Hartree/Particle)
 Thermal correction to Energy=                    0.167768
 Thermal correction to Enthalpy=                  0.168713
 Thermal correction to Gibbs Free Energy=         0.122794
 Sum of electronic and zero-point Energies=           -423.051164
 Sum of electronic and thermal Energies=              -423.041728
 Sum of electronic and thermal Enthalpies=            -423.040784
 Sum of electronic and thermal Free Energies=         -423.086702

                     E (Thermal)             CV                S
                      KCal/Mol        Cal/Mol-Kelvin    Cal/Mol-Kelvin
 Total                  105.276             33.635             96.643
 Electronic               0.000              0.000              0.000
 Translational            0.889              2.981             40.409
 Rotational               0.889              2.981             28.958
 Vibrational            103.499             27.673             27.276
 Vibration     1          0.593              1.984              5.900
 Vibration     2          0.597              1.972              4.332
 Vibration     3          0.610              1.930              3.051
 Vibration     4          0.627              1.876              2.401
 Vibration     5          0.633              1.855              2.241
 Vibration     6          0.658              1.778              1.799
 Vibration     7          0.673              1.732              1.611
 Vibration     8          0.720              1.595              1.212
 Vibration     9          0.786              1.417              0.877
 Vibration    10          0.847              1.269              0.680
 Vibration    11          0.961              1.026              0.445

 Normal termination of Gaussian 09 at Mon Jan 27 11:06:45 2020.
