 Gaussian 09, Revision D.01,
 Gaussian 09:  ES64L-G09RevD.01 24-Apr-2013

 -----------------------------
 # b3lyp 6-31G(2df,p) opt Freq
 -----------------------------

 -----
 titel
 -----
 Symbolic Z-matrix:
 Charge =  0 Multiplicity = 1

 SCF Done:  E(RB3LYP) =  -423.150444173     A.U. after   13 cycles

 The electronic state is 1-A.
 Alpha  occ. eigenvalues --  -19.14892 -19.14851 -10.27533 -10.23689 -10.23612
 Alpha  occ. eigenvalues --  -10.19391 -10.19309 -10.18931 -10.18561  -1.07561
 Alpha  occ. eigenvalues --   -1.00978  -0.89553  -0.74391  -0.71730  -0.68308
 Alpha  occ. eigenvalues --   -0.61773  -0.58896  -0.53237  -0.51752  -0.49959
 Alpha  occ. eigenvalues --   -0.46913  -0.45828  -0.44965  -0.42449  -0.40097
 Alpha  occ. eigenvalues --   -0.38778  -0.36773  -0.36495  -0.35604  -0.33040
 Alpha  occ. eigenvalues --   -0.30696  -0.27343  -0.25331  -0.23679
 Alpha virt. eigenvalues --    0.08311   0.08804   0.10794   0.11631   0.12638
 Alpha virt. eigenvalues --    0.12977   0.14806   0.15322   0.15451   0.17235
 Alpha virt. eigenvalues --    0.17423   0.18777   0.19390   0.20510   0.22602

 Mulliken charges:
               1
     1  C   -0.369256
     2  C    0.214091
     3  C   -0.290756
     4  C   -0.290147
     5  C    0.393035
     6  O   -0.286990
     7  C   -0.002133
     8  O   -0.237955
     9  C   -0.183046
    10  H    0.102642
    11  H    0.129477
    12  H    0.104254
    13  H    0.101752
    14  H    0.110179
    15  H    0.100129
    16  H    0.078049
    17  H    0.119872
    18  H    0.092177
    19  H    0.114625
 Sum of Mulliken charges =   0.00000

 Dipole moment (field-independent basis, Debye):
    X=              1.0454    Y=              0.9223    Z=             -1.1481  Tot=              1.8060
 Quadrupole moment (field-independent basis, Debye-Ang):
   XX=            -53.5098   YY=            -54.7450   ZZ=            -51.5934
   XY=              0.8859   XZ=              1.5291   YZ=              0.9081

 Optimization completed.
    -- Stationary point found.
 Normal termination of Gaussian 09 at Mon Jan 27 11:18:40 2020.

 ----------------------------------------------------------------------
 #N Geom=AllCheck Guess=TCheck SCRF=Check GenChk RB3LYP/6-31G(2df,p) Fr
 eq
 ----------------------------------------------------------------------

 Structure from the checkpoint file:  "/scratch/puck/g09_74eb13c6-e7d9-4fbf-8da0-7477adf5ec09/Gau-162690.chk"
 -----
 titel
 -----
 Charge =  0 Multiplicity = 1

                         Standard orientation:
 ---------------------------------------------------------------------
 Center     Atomic      Atomic             Coordinates (Angstroms)
 Number     Number       Type             X           Y           Z
 ---------------------------------------------------------------------
      1          6           0        0.697090    0.170197    1.511452
      2          6           0        0.482080    0.809450    0.156366
      3          6           0        1.780609    0.727501   -0.666142
      4          6           0        1.755032   -0.840280   -0.544523
      5          6           0        0.492390   -0.704310    0.309034
      6          8           0       -0.662189   -1.469235    0.197712
      7          6           0       -1.662909   -0.736351   -0.497256
      8          8           0       -1.894826    0.533763    0.047655
      9          6           0       -0.823202    1.453265   -0.221473
     10          1           0        1.668296    0.241582    1.995532
     11          1           0       -0.157378    0.197039    2.177930
     12          1           0        1.657193    1.064886   -1.698341
     13          1           0        2.646962    1.237326   -0.233699
     14          1           0        1.556087   -1.317517   -1.506704
     15          1           0        2.613934   -1.331730   -0.077076
     16          1           0       -1.384698   -0.643565   -1.562746
     17          1           0       -2.586689   -1.307433   -0.392404
     18          1           0       -0.818073    1.708409   -1.294027
     19          1           0       -1.066054    2.357948    0.343839
 ---------------------------------------------------------------------

 SCF Done:  E(RB3LYP) =  -423.150444173     A.U. after    1 cycles
