 Gaussian 09, Revision D.01,
 Gaussian 09:  ES64L-G09RevD.01 24-Apr-2013

 -----------------------------
 # b3lyp 6-31G(2df,p) opt Freq
 -----------------------------

 -----
 titel
 -----
 Symbolic Z-matrix:
 Charge =  0 Multiplicity = 1

 SCF Done:  E(RB3LYP) =  -423.114238177     A.U. after   13 cycles

 The electronic state is 1-A.
 Alpha  occ. eigenvalues --  -19.14706 -19.13426 -10.24199 -10.23706 -10.23356
 Alpha  occ. eigenvalues --  -10.23185 -10.19467 -10.19438 -10.18531  -1.06729
 Alpha  occ. eigenvalues --   -1.04779  -0.83224  -0.76771  -0.68891  -0.65938
 Alpha  occ. eigenvalues --   -0.60967  -0.58776  -0.53086  -0.51662  -0.48928
 Alpha  occ. eigenvalues --   -0.47974  -0.46754  -0.45325  -0.42356  -0.39438
 Alpha  occ. eigenvalues --   -0.38164  -0.37955  -0.36893  -0.33726  -0.31707
 Alpha  occ. eigenvalues --   -0.30599  -0.27291  -0.26057  -0.23210
 Alpha virt. eigenvalues --    0.07420   0.10395   0.11073   0.11242   0.12287
 Alpha virt. eigenvalues --    0.12325   0.13586   0.13956   0.14278   0.15599
 Alpha virt. eigenvalues --    0.16618   0.17327   0.18486   0.20219   0.20434

 Mulliken charges:
               1
     1  C   -0.353828
     2  C    0.109643
     3  C   -0.184659
     4  O   -0.234754
     5  C    0.499910
     6  C   -0.315703
     7  C   -0.209211
     8  C   -0.083949
     9  O   -0.329837
    10  H    0.110999
    11  H    0.110288
    12  H    0.110784
    13  H    0.109765
    14  H    0.115006
    15  H    0.120558
    16  H    0.114411
    17  H    0.099111
    18  H    0.107013
    19  H    0.104453
 Sum of Mulliken charges =   0.00000

 Dipole moment (field-independent basis, Debye):
    X=             -0.3946    Y=             -0.3209    Z=              2.0214  Tot=              2.0844
 Quadrupole moment (field-independent basis, Debye-Ang):
   XX=            -48.2610   YY=            -54.6639   ZZ=            -52.6653
   XY=             -3.7803   XZ=              1.4640   YZ=              0.5232

 Optimization completed.
    -- Stationary point found.
 Normal termination of Gaussian 09 at Mon Jan 27 11:16:27 2020.

 ----------------------------------------------------------------------
 #N Geom=AllCheck Guess=TCheck SCRF=Check GenChk RB3LYP/6-31G(2df,p) Fr
 eq
 ----------------------------------------------------------------------

 Structure from the checkpoint file:  "/scratch/puck/g09_93e00397-727b-4582-98bc-b93574aa2894/Gau-18563.chk"
 -----
 titel
 -----
 Charge =  0 Multiplicity = 1

                         Standard orientation:
 ---------------------------------------------------------------------
 Center     Atomic      Atomic             Coordinates (Angstroms)
 Number     Number       Type             X           Y           Z
 ---------------------------------------------------------------------
      1          6           0        0.571221   -0.335372    0.842342
      2          6           0        1.699604   -0.513216   -0.151542
      3          6           0        3.095377   -0.227608    0.197023
      4          8           0        2.340484    0.681828   -0.606261
      5          6           0       -0.715970    0.022535    0.163998
      6          6           0       -1.129044    1.371430   -0.334761
      7          6           0       -2.040390    0.606639    0.609081
      8          6           0       -2.659957   -0.558319   -0.151522
      9          8           0       -1.355830   -1.004535   -0.614305
     10          1           0        0.435765   -1.266255    1.407534
     11          1           0        0.841903    0.454954    1.550385
     12          1           0        1.507160   -1.239743   -0.941603
     13          1           0        3.336111    0.123945    1.200168
     14          1           0        3.902542   -0.749162   -0.315452
     15          1           0       -0.611493    2.212942    0.114267
     16          1           0       -1.398238    1.499827   -1.379794
     17          1           0       -2.361259    0.987914    1.569243
     18          1           0       -3.117796   -1.316997    0.493550
     19          1           0       -3.336977   -0.322300   -0.981481
 ---------------------------------------------------------------------

 SCF Done:  E(RB3LYP) =  -423.114238177     A.U. after    1 cycles
