 Gaussian 09, Revision D.01,
 Gaussian 09:  ES64L-G09RevD.01 24-Apr-2013

 -----------------------------
 # b3lyp 6-31G(2df,p) opt Freq
 -----------------------------

 -----
 titel
 -----
 Symbolic Z-matrix:
 Charge =  0 Multiplicity = 1

 SCF Done:  E(RB3LYP) =  -423.151939010     A.U. after   13 cycles

 The electronic state is 1-A.
 Alpha  occ. eigenvalues --  -19.13509 -19.13463 -10.24029 -10.23231 -10.23183
 Alpha  occ. eigenvalues --  -10.23104 -10.20512 -10.19092 -10.18586  -1.04100
 Alpha  occ. eigenvalues --   -1.02333  -0.84075  -0.75289  -0.71691  -0.68027
 Alpha  occ. eigenvalues --   -0.62149  -0.57318  -0.55060  -0.50856  -0.50265
 Alpha  occ. eigenvalues --   -0.47124  -0.46542  -0.42786  -0.41403  -0.40126
 Alpha  occ. eigenvalues --   -0.39513  -0.36381  -0.36147  -0.35601  -0.31193
 Alpha  occ. eigenvalues --   -0.30411  -0.29330  -0.25232  -0.24264
 Alpha virt. eigenvalues --    0.07668   0.09809   0.10795   0.11157   0.12247
 Alpha virt. eigenvalues --    0.13013   0.14147   0.14209   0.14849   0.16539
 Alpha virt. eigenvalues --    0.18277   0.18483   0.19626   0.20594   0.21833

 Mulliken charges:
               1
     1  C   -0.276029
     2  C    0.072364
     3  O   -0.286852
     4  C   -0.164116
     5  C    0.281732
     6  C   -0.196178
     7  O   -0.273469
     8  C   -0.118948
     9  C   -0.043634
    10  H    0.100094
    11  H    0.121862
    12  H    0.079771
    13  H    0.104349
    14  H    0.103122
    15  H    0.092257
    16  H    0.110915
    17  H    0.103094
    18  H    0.106899
    19  H    0.082765
 Sum of Mulliken charges =   0.00000

 Dipole moment (field-independent basis, Debye):
    X=              0.1288    Y=              0.2645    Z=             -0.0081  Tot=              0.2943
 Quadrupole moment (field-independent basis, Debye-Ang):
   XX=            -63.2929   YY=            -48.6582   ZZ=            -51.5546
   XY=             -1.6177   XZ=             -2.1345   YZ=             -0.2903

 Optimization completed.
    -- Stationary point found.
 Normal termination of Gaussian 09 at Mon Jan 27 11:15:58 2020.

 ----------------------------------------------------------------------
 #N Geom=AllCheck Guess=TCheck SCRF=Check GenChk RB3LYP/6-31G(2df,p) Fr
 eq
 ----------------------------------------------------------------------

 Structure from the checkpoint file:  "/scratch/puck/g09_da9b6111-7389-462a-b749-1e7ae9b68e04/Gau-68543.chk"
 -----
 titel
 -----
 Charge =  0 Multiplicity = 1

                         Standard orientation:
 ---------------------------------------------------------------------
 Center     Atomic      Atomic             Coordinates (Angstroms)
 Number     Number       Type             X           Y           Z
 ---------------------------------------------------------------------
      1          6           0       -0.506108   -0.219158    1.334051
      2          6           0       -1.131762   -1.062131    0.212867
      3          8           0       -2.137994   -0.170190   -0.327503
      4          6           0       -1.425164    1.098573   -0.418514
      5          6           0       -0.069453    0.640034    0.091879
      6          6           0        1.298971    1.261303    0.050096
      7          8           0        2.183459    0.137098    0.126436
      8          6           0        1.548098   -1.058837   -0.376558
      9          6           0        0.086106   -0.716419   -0.679753
     10          1           0       -1.194172    0.233780    2.050997
     11          1           0        0.338730   -0.681513    1.842177
     12          1           0       -1.568177   -2.052612    0.333402
     13          1           0       -1.411723    1.447401   -1.457355
     14          1           0       -1.923199    1.847403    0.207644
     15          1           0        1.452720    1.826301   -0.883816
     16          1           0        1.532768    1.917193    0.894633
     17          1           0        2.062127   -1.382646   -1.289307
     18          1           0        1.677799   -1.845493    0.375550
     19          1           0       -0.134716   -0.705273   -1.749802
 ---------------------------------------------------------------------

 SCF Done:  E(RB3LYP) =  -423.151939010     A.U. after    1 cycles
