 Gaussian 09, Revision D.01,
 Gaussian 09:  ES64L-G09RevD.01 24-Apr-2013

 -----------------------------
 # b3lyp 6-31G(2df,p) opt Freq
 -----------------------------

 -----
 titel
 -----
 Symbolic Z-matrix:
 Charge =  0 Multiplicity = 1

 SCF Done:  E(RB3LYP) =  -423.171309063     A.U. after   13 cycles

 The electronic state is 1-A.
 Alpha  occ. eigenvalues --  -19.14147 -19.13094 -10.23629 -10.23389 -10.23177
 Alpha  occ. eigenvalues --  -10.22942 -10.19326 -10.18807 -10.17844  -1.05053
 Alpha  occ. eigenvalues --   -1.03206  -0.80262  -0.76801  -0.71557  -0.66779
 Alpha  occ. eigenvalues --   -0.63381  -0.56498  -0.53601  -0.51530  -0.48670
 Alpha  occ. eigenvalues --   -0.47951  -0.46936  -0.43380  -0.41525  -0.39898
 Alpha  occ. eigenvalues --   -0.37920  -0.36817  -0.35114  -0.34476  -0.32734
 Alpha  occ. eigenvalues --   -0.30559  -0.29066  -0.25705  -0.24349
 Alpha virt. eigenvalues --    0.08132   0.10036   0.11846   0.12063   0.13349
 Alpha virt. eigenvalues --    0.13733   0.14603   0.15427   0.15776   0.16662
 Alpha virt. eigenvalues --    0.17547   0.18757   0.19129   0.19687   0.20843

 Mulliken charges:
               1
     1  C   -0.224774
     2  C    0.053021
     3  O   -0.300601
     4  C    0.062741
     5  C   -0.016613
     6  C   -0.124334
     7  O   -0.242410
     8  C   -0.099129
     9  C   -0.045018
    10  H    0.113575
    11  H    0.104402
    12  H    0.077731
    13  H    0.076434
    14  H    0.086811
    15  H    0.092713
    16  H    0.112420
    17  H    0.086791
    18  H    0.112305
    19  H    0.073936
 Sum of Mulliken charges =   0.00000

 Dipole moment (field-independent basis, Debye):
    X=              0.7411    Y=              0.2445    Z=             -0.3044  Tot=              0.8376
 Quadrupole moment (field-independent basis, Debye-Ang):
   XX=            -61.3085   YY=            -49.3822   ZZ=            -50.9521
   XY=             -0.5872   XZ=             -3.5042   YZ=              0.7408

 Optimization completed.
    -- Stationary point found.
 Normal termination of Gaussian 09 at Mon Jan 27 11:24:55 2020.

 ----------------------------------------------------------------------
 #N Geom=AllCheck Guess=TCheck SCRF=Check GenChk RB3LYP/6-31G(2df,p) Fr
 eq
 ----------------------------------------------------------------------

 Structure from the checkpoint file:  "/scratch/puck/g09_a4f44032-38d4-4cab-b951-db6aab028b8e/Gau-22657.chk"
 -----
 titel
 -----
 Charge =  0 Multiplicity = 1

                         Standard orientation:
 ---------------------------------------------------------------------
 Center     Atomic      Atomic             Coordinates (Angstroms)
 Number     Number       Type             X           Y           Z
 ---------------------------------------------------------------------
      1          6           0       -0.584809   -0.927204    1.091783
      2          6           0       -1.256343    0.425536    0.783522
      3          8           0       -2.042591    0.073200   -0.401581
      4          6           0       -0.743594   -0.002504   -1.046350
      5          6           0       -0.269447    1.173118   -0.166040
      6          6           0        1.225860    1.329911    0.077778
      7          8           0        1.890664    0.119125    0.400743
      8          6           0        1.493268   -0.980879   -0.402361
      9          6           0       -0.025986   -1.187501   -0.343914
     10          1           0        0.195964   -0.872976    1.851762
     11          1           0       -1.339379   -1.658265    1.387826
     12          1           0       -1.828077    0.928029    1.563618
     13          1           0       -0.772838    0.022821   -2.136170
     14          1           0       -0.714030    2.113696   -0.498232
     15          1           0        1.670457    1.774098   -0.830416
     16          1           0        1.427380    2.014891    0.908403
     17          1           0        1.820708   -0.838887   -1.447523
     18          1           0        2.028492   -1.846606   -0.001318
     19          1           0       -0.306952   -2.158258   -0.757753
 ---------------------------------------------------------------------

 SCF Done:  E(RB3LYP) =  -423.171309063     A.U. after    1 cycles
