 Gaussian 09, Revision D.01,
 Gaussian 09:  ES64L-G09RevD.01 24-Apr-2013

 -----------------------------
 # b3lyp 6-31G(2df,p) opt Freq
 -----------------------------

 -----
 titel
 -----
 Symbolic Z-matrix:
 Charge =  0 Multiplicity = 1

 SCF Done:  E(RB3LYP) =  -423.149349494     A.U. after   13 cycles

 The electronic state is 1-A.
 Alpha  occ. eigenvalues --  -19.14176 -19.13260 -10.23928 -10.23349 -10.22976
 Alpha  occ. eigenvalues --  -10.22775 -10.20751 -10.18857 -10.18569  -1.05040
 Alpha  occ. eigenvalues --   -1.01890  -0.84334  -0.74786  -0.72639  -0.67653
 Alpha  occ. eigenvalues --   -0.61631  -0.57139  -0.54770  -0.50534  -0.50394
 Alpha  occ. eigenvalues --   -0.47401  -0.46080  -0.42548  -0.42073  -0.41285
 Alpha  occ. eigenvalues --   -0.38074  -0.36999  -0.35788  -0.34657  -0.31963
 Alpha  occ. eigenvalues --   -0.30588  -0.29601  -0.24822  -0.24173
 Alpha virt. eigenvalues --    0.07706   0.09154   0.10344   0.11592   0.12564
 Alpha virt. eigenvalues --    0.13585   0.14220   0.15181   0.15729   0.16439
 Alpha virt. eigenvalues --    0.17287   0.18420   0.19861   0.21303   0.21641

 Mulliken charges:
               1
     1  C   -0.289302
     2  C   -0.118171
     3  C   -0.086148
     4  O   -0.346267
     5  C    0.464355
     6  C   -0.181354
     7  O   -0.282945
     8  C   -0.118336
     9  C   -0.050274
    10  H    0.098385
    11  H    0.121095
    12  H    0.074859
    13  H    0.106004
    14  H    0.107169
    15  H    0.102026
    16  H    0.111142
    17  H    0.104334
    18  H    0.104828
    19  H    0.078601
 Sum of Mulliken charges =   0.00000

 Dipole moment (field-independent basis, Debye):
    X=             -1.2460    Y=             -1.5195    Z=              0.0768  Tot=              1.9666
 Quadrupole moment (field-independent basis, Debye-Ang):
   XX=            -56.3267   YY=            -53.0370   ZZ=            -51.7191
   XY=              2.0722   XZ=             -1.0558   YZ=              1.2785

 Optimization completed.
    -- Stationary point found.
 Normal termination of Gaussian 09 at Mon Jan 27 11:16:30 2020.

 ----------------------------------------------------------------------
 #N Geom=AllCheck Guess=TCheck SCRF=Check GenChk RB3LYP/6-31G(2df,p) Fr
 eq
 ----------------------------------------------------------------------

 Structure from the checkpoint file:  "/scratch/puck/g09_e6f4e19f-ce53-4992-a88a-0a3fb39bf47c/Gau-149672.chk"
 -----
 titel
 -----
 Charge =  0 Multiplicity = 1

                         Standard orientation:
 ---------------------------------------------------------------------
 Center     Atomic      Atomic             Coordinates (Angstroms)
 Number     Number       Type             X           Y           Z
 ---------------------------------------------------------------------
      1          6           0       -0.525960   -0.230763    1.337516
      2          6           0       -1.168769   -1.074612    0.201996
      3          6           0       -2.127470   -0.000843   -0.374565
      4          8           0       -1.262768    1.177863   -0.384147
      5          6           0       -0.064886    0.596753    0.101588
      6          6           0        1.282609    1.255980    0.032295
      7          8           0        2.182175    0.140559    0.077458
      8          6           0        1.531210   -1.093512   -0.328037
      9          6           0        0.085100   -0.741438   -0.666865
     10          1           0       -1.190968    0.276893    2.039794
     11          1           0        0.283195   -0.732445    1.865237
     12          1           0       -1.578297   -2.075394    0.341378
     13          1           0       -2.464293   -0.211721   -1.395649
     14          1           0       -2.998386    0.182653    0.263474
     15          1           0        1.388084    1.827306   -0.902335
     16          1           0        1.522067    1.909906    0.876294
     17          1           0        2.057951   -1.493373   -1.201325
     18          1           0        1.639905   -1.816639    0.488363
     19          1           0       -0.085512   -0.683950   -1.745282
 ---------------------------------------------------------------------

 SCF Done:  E(RB3LYP) =  -423.149349494     A.U. after    1 cycles
