 Gaussian 09, Revision D.01,
 Gaussian 09:  ES64L-G09RevD.01 24-Apr-2013

 -----------------------------
 # b3lyp 6-31G(2df,p) opt Freq
 -----------------------------

 -----
 titel
 -----
 Symbolic Z-matrix:
 Charge =  0 Multiplicity = 1

 SCF Done:  E(RB3LYP) =  -423.221189504     A.U. after   14 cycles
 Optimization completed.
    -- Stationary point found.
 Normal termination of Gaussian 09 at Mon Jan 27 10:21:31 2020.

 ----------------------------------------------------------------------
 #N Geom=AllCheck Guess=TCheck SCRF=Check GenChk RB3LYP/6-31G(2df,p) Fr
 eq
 ----------------------------------------------------------------------

 Structure from the checkpoint file:  "/scratch/puck/g09_4a45e63b-67d3-4eef-917e-f4880b9441da/Gau-14500.chk"
 -----
 titel
 -----
 Charge =  0 Multiplicity = 1

                         Standard orientation:
 ---------------------------------------------------------------------
 Center     Atomic      Atomic             Coordinates (Angstroms)
 Number     Number       Type             X           Y           Z
 ---------------------------------------------------------------------
      1          6           0        2.528513    0.013876    1.172321
      2          6           0        1.782175   -0.538134   -0.048715
      3          8           0        2.379170   -0.081682   -1.263728
      4          6           0        0.319024   -0.230107   -0.010798
      5          6           0       -0.811259   -0.982937    0.005630
      6          6           0       -1.927117   -0.072583    0.017803
      7          6           0       -3.383223   -0.419175    0.038571
      8          6           0       -1.373158    1.167995    0.001814
      9          8           0       -0.011122    1.096482   -0.011174
     10          1           0        3.594572   -0.210946    1.084282
     11          1           0        2.403243    1.099372    1.239016
     12          1           0        2.146257   -0.427548    2.098079
     13          1           0        1.883681   -1.627951   -0.074251
     14          1           0        2.177514    0.857567   -1.341802
     15          1           0       -0.855243   -2.061754    0.004670
     16          1           0       -3.643707   -1.004539    0.927714
     17          1           0       -4.004196    0.480929    0.038915
     18          1           0       -3.665048   -1.018788   -0.834348
     19          1           0       -1.791178    2.161656   -0.002816
 ---------------------------------------------------------------------

 SCF Done:  E(RB3LYP) =  -423.221189504     A.U. after    1 cycles

 The electronic state is 1-A.
 Alpha  occ. eigenvalues --  -19.19946 -19.13097 -10.23968 -10.22541 -10.22161
 Alpha  occ. eigenvalues --  -10.18644 -10.18616 -10.17524 -10.17458  -1.10207
 Alpha  occ. eigenvalues --   -1.01301  -0.80712  -0.77807  -0.72466  -0.69513
 Alpha  occ. eigenvalues --   -0.63045  -0.58361  -0.54616  -0.51926  -0.47263
 Alpha  occ. eigenvalues --   -0.45136  -0.44670  -0.42584  -0.41827  -0.40982
 Alpha  occ. eigenvalues --   -0.39922  -0.38215  -0.37522  -0.36900  -0.35024
 Alpha  occ. eigenvalues --   -0.32932  -0.26846  -0.26432  -0.21689
 Alpha virt. eigenvalues --    0.01767   0.06894   0.08822   0.11169   0.11856
 Alpha virt. eigenvalues --    0.13742   0.14435   0.15310   0.16304   0.17141
 Alpha virt. eigenvalues --    0.18085   0.18683   0.19329   0.20890   0.23238

 Mulliken charges:
               1
     1  C   -0.398636
     2  C    0.015397
     3  O   -0.429054
     4  C    0.398607
     5  C   -0.403719
     6  C    0.266725
     7  C   -0.499405
     8  C   -0.116662
     9  O   -0.205152
    10  H    0.122311
    11  H    0.121883
    12  H    0.118569
    13  H    0.100066
    14  H    0.284658
    15  H    0.108051
    16  H    0.130501
    17  H    0.124653
    18  H    0.131804
    19  H    0.129405
 Sum of Mulliken charges =   0.00000

 Dipole moment (field-independent basis, Debye):
    X=             -1.3600    Y=              0.3133    Z=              0.9590  Tot=              1.6934
 Quadrupole moment (field-independent basis, Debye-Ang):
   XX=            -52.0631   YY=            -48.8530   ZZ=            -56.2754
   XY=              0.8715   XZ=              2.8161   YZ=             -2.0788

  Exact polarizability: 104.739   0.521  77.790   0.771  -1.083  55.557
 Approx polarizability: 136.742   3.964 131.568  -2.803  -1.932  82.620

                      1                      2                      3
                      A                      A                      A
 Frequencies --     45.8702               109.1325               132.4762
 Red. masses --      3.8943                 2.7088                 1.1640
 Frc consts  --      0.0048                 0.0190                 0.0120
 IR Inten    --      1.0693                 0.3565                 0.1363

                      4                      5                      6
                      A                      A                      A
 Frequencies --    169.5952               249.7191               256.6172
 Red. masses --      3.0663                 1.2510                 2.3071
 Frc consts  --      0.0520                 0.0460                 0.0895
 IR Inten    --      2.5120                 0.7023                 1.8228

                      7                      8                      9
                      A                      A                      A
 Frequencies --    275.6941               308.5695               366.3049
 Red. masses --      1.6324                 1.6470                 3.0729
 Frc consts  --      0.0731                 0.0924                 0.2429
 IR Inten    --     39.5726                76.8613                 6.0948

                     10                     11                     12
                      A                      A                      A
 Frequencies --    428.3225               501.0526               624.5588
 Red. masses --      5.5770                 3.0851                 2.8137
 Frc consts  --      0.6028                 0.4563                 0.6467
 IR Inten    --     11.1385                 8.0222                 9.0191

                     13                     14                     15
                      A                      A                      A
 Frequencies --    634.0384               706.2662               726.4647
 Red. masses --      3.3237                 3.7183                 2.6463
 Frc consts  --      0.7872                 1.0928                 0.8229
 IR Inten    --      3.4862                 1.7533                 3.8371

                     16                     17                     18
                      A                      A                      A
 Frequencies --    744.1111               822.0570               893.9938
 Red. masses --      1.7154                 1.3356                 2.7352
 Frc consts  --      0.5596                 0.5318                 1.2880
 IR Inten    --     15.2352                21.2072                26.6671

                     19                     20                     21
                      A                      A                      A
 Frequencies --    953.2138               984.1844              1008.4895
 Red. masses --      3.3983                 2.2466                 1.8036
 Frc consts  --      1.8192                 1.2821                 1.0808
 IR Inten    --     27.1991                 1.3443                37.3921

                     22                     23                     24
                      A                      A                      A
 Frequencies --   1018.4059              1065.0343              1079.5621
 Red. masses --      2.0622                 1.4701                 1.6908
 Frc consts  --      1.2602                 0.9825                 1.1610
 IR Inten    --      5.3592                 1.2855                25.4828

                     25                     26                     27
                      A                      A                      A
 Frequencies --   1091.2060              1155.3614              1167.5989
 Red. masses --      2.9518                 2.6438                 1.8888
 Frc consts  --      2.0708                 2.0793                 1.5172
 IR Inten    --     67.0143                 3.3383                42.9462

                     28                     29                     30
                      A                      A                      A
 Frequencies --   1236.6414              1285.6030              1302.7806
 Red. masses --      2.1104                 1.4130                 2.7267
 Frc consts  --      1.9016                 1.3760                 2.7267
 IR Inten    --      3.1342                 5.7636                21.4625

                     31                     32                     33
                      A                      A                      A
 Frequencies --   1339.1511              1394.9001              1401.8968
 Red. masses --      1.4260                 1.7702                 1.7125
 Frc consts  --      1.5068                 2.0293                 1.9829
 IR Inten    --     18.4386                 1.8336                 7.5616

                     34                     35                     36
                      A                      A                      A
 Frequencies --   1417.0317              1421.3847              1482.7434
 Red. masses --      1.2134                 1.3436                 1.0428
 Frc consts  --      1.4355                 1.5994                 1.3507
 IR Inten    --     62.1241                 7.7951                 4.6486

                     37                     38                     39
                      A                      A                      A
 Frequencies --   1489.2669              1493.1435              1497.9075
 Red. masses --      1.0499                 1.0656                 1.0924
 Frc consts  --      1.3720                 1.3997                 1.4441
 IR Inten    --      8.5572                 1.0350                 4.6402

                     40                     41                     42
                      A                      A                      A
 Frequencies --   1585.9679              1664.3354              3029.3460
 Red. masses --      5.7448                 6.2385                 1.0370
 Frc consts  --      8.5137                10.1815                 5.6068
 IR Inten    --      3.8598                 1.8831                36.7930

                     43                     44                     45
                      A                      A                      A
 Frequencies --   3038.2512              3065.0917              3080.2691
 Red. masses --      1.0343                 1.0857                 1.1000
 Frc consts  --      5.6254                 6.0096                 6.1490
 IR Inten    --     13.9322                12.7483                18.5717

                     46                     47                     48
                      A                      A                      A
 Frequencies --   3110.2093              3112.0980              3124.2866
 Red. masses --      1.0998                 1.1011                 1.1028
 Frc consts  --      6.2681                 6.2830                 6.3424
 IR Inten    --     16.6147                25.8311                25.6845

                     49                     50                     51
                      A                      A                      A
 Frequencies --   3246.4757              3270.8963              3804.8978
 Red. masses --      1.0967                 1.0979                 1.0660
 Frc consts  --      6.8101                 6.9203                 9.0924
 IR Inten    --      2.5110                 0.7973                19.2933

 - Thermochemistry -
 -------------------
 Temperature   298.150 Kelvin.  Pressure   1.00000 Atm.
 Atom     1 has atomic number  6 and mass  12.00000

 Molecular mass:   126.06808 amu.
 Principal axes and moments of inertia in atomic units:
                           1         2         3
     Eigenvalues --   436.121911965.719772027.61920
           X            0.99982   0.00818   0.01696
           Y           -0.00733   0.99876  -0.04930
           Z           -0.01734   0.04916   0.99864
 This molecule is an asymmetric top.
 Rotational symmetry number  1.
 Warning -- assumption of classical behavior for rotation
           may cause significant error
 Rotational temperatures (Kelvin)      0.19860     0.04406     0.04272
 Rotational constants (GHZ):           4.13816     0.91811     0.89008
 Zero-point vibrational energy     415178.8 (Joules/Mol)
                                   99.23012 (Kcal/Mol)
 Warning -- explicit consideration of  11 degrees of freedom as
           vibrations may cause significant error
 Vibrational temperatures:     66.00   157.02   190.60   244.01   359.29
          (Kelvin)            369.21   396.66   443.96   527.03   616.26
                              720.90   898.60   912.24  1016.16  1045.22
                             1070.61  1182.76  1286.26  1371.46  1416.02
                             1450.99  1465.26  1532.34  1553.25  1570.00
                             1662.31  1679.91  1779.25  1849.69  1874.41
                             1926.74  2006.95  2017.01  2038.79  2045.05
                             2133.33  2142.72  2148.30  2155.15  2281.85
                             2394.60  4358.55  4371.36  4409.98  4431.81
                             4474.89  4477.61  4495.15  4670.95  4706.08
                             5474.39

 Zero-point correction=                           0.158133 (Hartree/Particle)
 Thermal correction to Energy=                    0.167587
 Thermal correction to Enthalpy=                  0.168531
 Thermal correction to Gibbs Free Energy=         0.123468
 Sum of electronic and zero-point Energies=           -423.063056
 Sum of electronic and thermal Energies=              -423.053603
 Sum of electronic and thermal Enthalpies=            -423.052658
 Sum of electronic and thermal Free Energies=         -423.097722

                     E (Thermal)             CV                S
                      KCal/Mol        Cal/Mol-Kelvin    Cal/Mol-Kelvin
 Total                  105.162             34.524             94.844
 Electronic               0.000              0.000              0.000
 Translational            0.889              2.981             40.409
 Rotational               0.889              2.981             28.943
 Vibrational            103.385             28.562             25.492
 Vibration     1          0.595              1.979              4.988
 Vibration     2          0.606              1.942              3.284
 Vibration     3          0.613              1.921              2.910
 Vibration     4          0.625              1.880              2.440
 Vibration     5          0.663              1.763              1.733
 Vibration     6          0.666              1.752              1.685
 Vibration     7          0.677              1.718              1.560
 Vibration     8          0.698              1.657              1.370
 Vibration     9          0.739              1.542              1.095
 Vibration    10          0.790              1.409              0.864
 Vibration    11          0.856              1.248              0.655

 Optimization completed.
    -- Stationary point found.
 Normal termination of Gaussian 09 at Mon Jan 27 10:58:50 2020.
