 Gaussian 09, Revision D.01,
 Gaussian 09:  ES64L-G09RevD.01 24-Apr-2013

 -----------------------------
 # b3lyp 6-31G(2df,p) opt Freq
 -----------------------------

 -----
 titel
 -----
 Symbolic Z-matrix:
 Charge =  0 Multiplicity = 1

 SCF Done:  E(RB3LYP) =  -423.146914340     A.U. after   13 cycles

 The electronic state is 1-A.
 Alpha  occ. eigenvalues --  -19.14324 -19.13987 -10.23838 -10.23438 -10.23429
 Alpha  occ. eigenvalues --  -10.22007 -10.19703 -10.19159 -10.18480  -1.05253
 Alpha  occ. eigenvalues --   -1.02378  -0.84262  -0.78804  -0.72948  -0.65432
 Alpha  occ. eigenvalues --   -0.62142  -0.56942  -0.55142  -0.50555  -0.49999
 Alpha  occ. eigenvalues --   -0.47880  -0.44452  -0.42676  -0.42208  -0.41159
 Alpha  occ. eigenvalues --   -0.38443  -0.36952  -0.36847  -0.35667  -0.32222
 Alpha  occ. eigenvalues --   -0.31593  -0.28093  -0.25832  -0.22215
 Alpha virt. eigenvalues --    0.08077   0.08540   0.09796   0.11150   0.12799
 Alpha virt. eigenvalues --    0.13149   0.14333   0.15752   0.16607   0.17423
 Alpha virt. eigenvalues --    0.18584   0.19204   0.20372   0.20786   0.22580

 Mulliken charges:
               1
     1  C   -0.401454
     2  C    0.043023
     3  O   -0.278640
     4  C    0.103288
     5  C   -0.294935
     6  C    0.398599
     7  O   -0.312025
     8  C   -0.091519
     9  C   -0.249293
    10  H    0.122366
    11  H    0.126102
    12  H    0.097543
    13  H    0.075987
    14  H    0.109119
    15  H    0.105848
    16  H    0.105001
    17  H    0.111730
    18  H    0.105612
    19  H    0.123648
 Sum of Mulliken charges =   0.00000

 Dipole moment (field-independent basis, Debye):
    X=              1.1725    Y=              0.1685    Z=              0.5802  Tot=              1.3190
 Quadrupole moment (field-independent basis, Debye-Ang):
   XX=            -49.4149   YY=            -58.7274   ZZ=            -51.2874
   XY=              3.3044   XZ=             -0.7356   YZ=              2.5774

 Optimization completed.
    -- Stationary point found.
 Normal termination of Gaussian 09 at Mon Jan 27 11:19:20 2020.

 ----------------------------------------------------------------------
 #N Geom=AllCheck Guess=TCheck SCRF=Check GenChk RB3LYP/6-31G(2df,p) Fr
 eq
 ----------------------------------------------------------------------

 Structure from the checkpoint file:  "/scratch/puck/g09_d29b2c73-54bc-42b1-8a12-f6d512585cec/Gau-164751.chk"
 -----
 titel
 -----
 Charge =  0 Multiplicity = 1

                         Standard orientation:
 ---------------------------------------------------------------------
 Center     Atomic      Atomic             Coordinates (Angstroms)
 Number     Number       Type             X           Y           Z
 ---------------------------------------------------------------------
      1          6           0       -2.002048   -0.780593   -0.025716
      2          6           0       -1.080940    0.156257   -0.816177
      3          8           0       -0.762836    1.497519   -0.515358
      4          6           0        0.396577    1.343469    0.343597
      5          6           0       -0.125189    0.320930    1.352551
      6          6           0       -0.539073   -0.704067    0.278110
      7          8           0        0.461119   -1.621184   -0.034596
      8          6           0        1.703015   -0.886798   -0.164813
      9          6           0        1.574561    0.651291   -0.420750
     10          1           0       -2.688465   -0.410074    0.728717
     11          1           0       -2.380110   -1.608890   -0.617487
     12          1           0       -0.916278   -0.129288   -1.850496
     13          1           0        0.656298    2.337951    0.713120
     14          1           0        0.619537   -0.084377    2.040337
     15          1           0       -0.966969    0.715857    1.924705
     16          1           0        2.280236   -1.040625    0.756064
     17          1           0        2.261814   -1.357983   -0.978975
     18          1           0        2.526331    1.095967   -0.110584
     19          1           0        1.459925    0.867845   -1.486579
 ---------------------------------------------------------------------

 SCF Done:  E(RB3LYP) =  -423.146914340     A.U. after    1 cycles
