 Gaussian 09, Revision D.01,
 Gaussian 09:  ES64L-G09RevD.01 24-Apr-2013

 -----------------------------
 # b3lyp 6-31G(2df,p) opt Freq
 -----------------------------

 -----
 titel
 -----
 Symbolic Z-matrix:
 Charge =  0 Multiplicity = 1

 SCF Done:  E(RB3LYP) =  -423.110757697     A.U. after   13 cycles

 The electronic state is 1-A.
 Alpha  occ. eigenvalues --  -19.15105 -19.15042 -10.23817 -10.23752 -10.23720
 Alpha  occ. eigenvalues --  -10.23358 -10.18741 -10.18740 -10.18686  -1.07858
 Alpha  occ. eigenvalues --   -1.04431  -0.85196  -0.78911  -0.66527  -0.63769
 Alpha  occ. eigenvalues --   -0.60561  -0.59430  -0.55239  -0.53362  -0.51187
 Alpha  occ. eigenvalues --   -0.48997  -0.45534  -0.43010  -0.41789  -0.40146
 Alpha  occ. eigenvalues --   -0.37610  -0.37056  -0.36588  -0.34395  -0.31447
 Alpha  occ. eigenvalues --   -0.29492  -0.28133  -0.26272  -0.24486
 Alpha virt. eigenvalues --    0.08496   0.09158   0.10309   0.11152   0.12479
 Alpha virt. eigenvalues --    0.13202   0.13623   0.14173   0.15176   0.16323
 Alpha virt. eigenvalues --    0.17059   0.18315   0.18629   0.20578   0.22555

 Mulliken charges:
               1
     1  C   -0.283569
     2  C   -0.288373
     3  C    0.139314
     4  O   -0.264348
     5  C    0.113931
     6  C   -0.284886
     7  C    0.034884
     8  O   -0.245474
     9  C   -0.010909
    10  H    0.114880
    11  H    0.122142
    12  H    0.127132
    13  H    0.115156
    14  H    0.086628
    15  H    0.082020
    16  H    0.109451
    17  H    0.123095
    18  H    0.104875
    19  H    0.104050
 Sum of Mulliken charges =   0.00000

 Dipole moment (field-independent basis, Debye):
    X=              1.0744    Y=              0.1536    Z=             -0.6697  Tot=              1.2753
 Quadrupole moment (field-independent basis, Debye-Ang):
   XX=            -54.1504   YY=            -52.3030   ZZ=            -52.5186
   XY=             -5.2499   XZ=              2.7867   YZ=              2.2291

 Optimization completed.
    -- Stationary point found.
 Normal termination of Gaussian 09 at Mon Jan 27 11:13:46 2020.

 ----------------------------------------------------------------------
 #N Geom=AllCheck Guess=TCheck SCRF=Check GenChk RB3LYP/6-31G(2df,p) Fr
 eq
 ----------------------------------------------------------------------

 Structure from the checkpoint file:  "/scratch/puck/g09_3fe3222e-17c3-4524-9a19-ea42f1b55a54/Gau-15877.chk"
 -----
 titel
 -----
 Charge =  0 Multiplicity = 1

                         Standard orientation:
 ---------------------------------------------------------------------
 Center     Atomic      Atomic             Coordinates (Angstroms)
 Number     Number       Type             X           Y           Z
 ---------------------------------------------------------------------
      1          6           0        2.657339   -0.398639    0.835519
      2          6           0        3.094309    0.225938   -0.475919
      3          6           0        1.721283   -0.345451   -0.344691
      4          8           0        0.671513    0.577104   -0.335510
      5          6           0       -0.465780    0.134826    0.369340
      6          6           0       -1.576058    1.232708    0.339507
      7          6           0       -2.470033    0.249695   -0.425861
      8          8           0       -2.591053   -0.930652    0.382775
      9          6           0       -1.424821   -0.783735   -0.432534
     10          1           0        3.076499   -1.355093    1.127541
     11          1           0        2.449633    0.279066    1.655964
     12          1           0        3.162087    1.307253   -0.507586
     13          1           0        3.816558   -0.295557   -1.093501
     14          1           0        1.499843   -1.279695   -0.860132
     15          1           0       -0.193635   -0.261548    1.354876
     16          1           0       -1.962831    1.589543    1.296282
     17          1           0       -1.238792    2.071327   -0.273668
     18          1           0       -3.272274    0.450613   -1.125974
     19          1           0       -1.198210   -1.569585   -1.144080
 ---------------------------------------------------------------------

 SCF Done:  E(RB3LYP) =  -423.110757697     A.U. after    1 cycles
