 Gaussian 09, Revision D.01,
 Gaussian 09:  ES64L-G09RevD.01 24-Apr-2013

 -----------------------------
 # b3lyp 6-31G(2df,p) opt Freq
 -----------------------------

 -----
 titel
 -----
 Symbolic Z-matrix:
 Charge =  0 Multiplicity = 1

 SCF Done:  E(RB3LYP) =  -423.174370770     A.U. after   13 cycles

 The electronic state is 1-A.
 Alpha  occ. eigenvalues --  -19.14765 -19.13815 -10.23550 -10.23388 -10.23038
 Alpha  occ. eigenvalues --  -10.22809 -10.19655 -10.19347 -10.18875  -1.05398
 Alpha  occ. eigenvalues --   -1.02817  -0.85568  -0.76992  -0.72136  -0.67482
 Alpha  occ. eigenvalues --   -0.62737  -0.57302  -0.55075  -0.51247  -0.48276
 Alpha  occ. eigenvalues --   -0.46716  -0.45298  -0.44085  -0.43171  -0.40948
 Alpha  occ. eigenvalues --   -0.39592  -0.38934  -0.37473  -0.33982  -0.32470
 Alpha  occ. eigenvalues --   -0.30615  -0.27749  -0.25721  -0.23241
 Alpha virt. eigenvalues --    0.08190   0.09403   0.10029   0.11771   0.12476
 Alpha virt. eigenvalues --    0.13631   0.14565   0.15489   0.15528   0.16858
 Alpha virt. eigenvalues --    0.17465   0.19270   0.20034   0.20959   0.21425

 Mulliken charges:
               1
     1  C   -0.401491
     2  C    0.226253
     3  C   -0.328586
     4  C   -0.098746
     5  O   -0.304758
     6  C    0.391791
     7  C   -0.154402
     8  O   -0.262398
     9  C   -0.157333
    10  H    0.126764
    11  H    0.115773
    12  H    0.108939
    13  H    0.109298
    14  H    0.104845
    15  H    0.114915
    16  H    0.110952
    17  H    0.099326
    18  H    0.108823
    19  H    0.090033
 Sum of Mulliken charges =   0.00000

 Dipole moment (field-independent basis, Debye):
    X=             -1.4397    Y=              1.3496    Z=              0.0997  Tot=              1.9759
 Quadrupole moment (field-independent basis, Debye-Ang):
   XX=            -55.2329   YY=            -53.4864   ZZ=            -51.6699
   XY=             -2.4571   XZ=              0.3451   YZ=             -0.7570

 Optimization completed.
    -- Stationary point found.
 Normal termination of Gaussian 09 at Mon Jan 27 11:18:33 2020.

 ----------------------------------------------------------------------
 #N Geom=AllCheck Guess=TCheck SCRF=Check GenChk RB3LYP/6-31G(2df,p) Fr
 eq
 ----------------------------------------------------------------------

 Structure from the checkpoint file:  "/scratch/puck/g09_57947702-e0f5-42b2-b62b-3577ff1b5a93/Gau-49389.chk"
 -----
 titel
 -----
 Charge =  0 Multiplicity = 1

                         Standard orientation:
 ---------------------------------------------------------------------
 Center     Atomic      Atomic             Coordinates (Angstroms)
 Number     Number       Type             X           Y           Z
 ---------------------------------------------------------------------
      1          6           0        0.006384   -0.006674    1.543652
      2          6           0        0.002845    0.783510    0.241889
      3          6           0       -1.337642    1.193432   -0.336942
      4          6           0       -2.155348   -0.129261   -0.287462
      5          8           0       -1.211872   -1.209241   -0.300903
      6          6           0       -0.013234   -0.720854    0.219299
      7          6           0        1.301916   -1.160200   -0.380358
      8          8           0        2.154976   -0.021715   -0.232696
      9          6           0        1.357465    1.168389   -0.313459
     10          1           0        0.931558   -0.025585    2.110396
     11          1           0       -0.896960   -0.008971    2.143090
     12          1           0       -1.849569    1.994475    0.204608
     13          1           0       -1.197711    1.526319   -1.371375
     14          1           0       -2.760047   -0.174807    0.628321
     15          1           0       -2.827853   -0.259288   -1.139749
     16          1           0        1.797854   -1.995171    0.122982
     17          1           0        1.138241   -1.425899   -1.436555
     18          1           0        1.896130    1.940615    0.244873
     19          1           0        1.249215    1.505917   -1.357527
 ---------------------------------------------------------------------

 SCF Done:  E(RB3LYP) =  -423.174370770     A.U. after    1 cycles
