 Gaussian 09, Revision D.01,
 Gaussian 09:  ES64L-G09RevD.01 24-Apr-2013

 -----------------------------
 # b3lyp 6-31G(2df,p) opt Freq
 -----------------------------

 -----
 titel
 -----
 Symbolic Z-matrix:
 Charge =  0 Multiplicity = 1

 SCF Done:  E(RB3LYP) =  -423.217137797     A.U. after   14 cycles

 The electronic state is 1-A.
 Alpha  occ. eigenvalues --  -19.14141 -19.12473 -10.27176 -10.23790 -10.23743
 Alpha  occ. eigenvalues --  -10.21420 -10.19326 -10.18902 -10.18694  -1.04238
 Alpha  occ. eigenvalues --   -1.03384  -0.82096  -0.77072  -0.72966  -0.69901
 Alpha  occ. eigenvalues --   -0.62523  -0.59193  -0.51151  -0.49070  -0.49028
 Alpha  occ. eigenvalues --   -0.44374  -0.44240  -0.43344  -0.42556  -0.41958
 Alpha  occ. eigenvalues --   -0.40445  -0.40123  -0.38363  -0.36501  -0.36157
 Alpha  occ. eigenvalues --   -0.32164  -0.27585  -0.24569  -0.23908
 Alpha virt. eigenvalues --   -0.05210   0.06807   0.08198   0.09817   0.10623
 Alpha virt. eigenvalues --    0.13032   0.13825   0.15610   0.16799   0.16904
 Alpha virt. eigenvalues --    0.17283   0.17602   0.21540   0.21848   0.22783

 Mulliken charges:
               1
     1  C   -0.487127
     2  C    0.299160
     3  O   -0.317121
     4  C    0.100768
     5  C    0.187251
     6  C   -0.509738
     7  C   -0.136082
     8  O   -0.265702
     9  C   -0.171179
    10  H    0.140235
    11  H    0.141486
    12  H    0.140186
    13  H    0.132860
    14  H    0.132906
    15  H    0.176824
    16  H    0.110492
    17  H    0.110486
    18  H    0.107147
    19  H    0.107149
 Sum of Mulliken charges =   0.00000

 Dipole moment (field-independent basis, Debye):
    X=             -0.6617    Y=             -0.6342    Z=              0.0007  Tot=              0.9166
 Quadrupole moment (field-independent basis, Debye-Ang):
   XX=            -55.0489   YY=            -55.5791   ZZ=            -52.1190
   XY=            -10.2665   XZ=              0.0007   YZ=              0.0020

 Optimization completed.
    -- Stationary point found.
 Normal termination of Gaussian 09 at Mon Jan 27 11:18:05 2020.

 ----------------------------------------------------------------------
 #N Geom=AllCheck Guess=TCheck SCRF=Check GenChk RB3LYP/6-31G(2df,p) Fr
 eq
 ----------------------------------------------------------------------

 Structure from the checkpoint file:  "/scratch/puck/g09_d2162636-ed58-4e1a-97a0-8dd05b2538a3/Gau-70226.chk"
 -----
 titel
 -----
 Charge =  0 Multiplicity = 1

                         Standard orientation:
 ---------------------------------------------------------------------
 Center     Atomic      Atomic             Coordinates (Angstroms)
 Number     Number       Type             X           Y           Z
 ---------------------------------------------------------------------
      1          6           0        2.542988   -0.993770    0.000304
      2          6           0        1.574406    0.177481   -0.000058
      3          8           0        1.986093    1.323405   -0.000401
      4          6           0        0.130332   -0.160429   -0.000016
      5          6           0       -0.909011    0.693817    0.000003
      6          6           0       -0.932224    2.185042    0.000232
      7          6           0       -2.188096   -0.097803   -0.000065
      8          8           0       -1.814704   -1.465917   -0.000050
      9          6           0       -0.396439   -1.580102   -0.000069
     10          1           0        2.384367   -1.626598   -0.880519
     11          1           0        3.565956   -0.616999    0.001257
     12          1           0        2.382921   -1.627549    0.880157
     13          1           0       -1.478141    2.555121   -0.877184
     14          1           0       -1.476384    2.554785    0.878898
     15          1           0        0.074942    2.595654   -0.000579
     16          1           0       -2.805187    0.131444    0.884748
     17          1           0       -2.804990    0.131487   -0.885012
     18          1           0       -0.073176   -2.151348    0.884569
     19          1           0       -0.073155   -2.151319   -0.884713
 ---------------------------------------------------------------------

 SCF Done:  E(RB3LYP) =  -423.217137797     A.U. after    1 cycles
