 Gaussian 09, Revision D.01,
 Gaussian 09:  ES64L-G09RevD.01 24-Apr-2013

 -----------------------------
 # b3lyp 6-31G(2df,p) opt Freq
 -----------------------------

 -----
 titel
 -----
 Symbolic Z-matrix:
 Charge =  0 Multiplicity = 1

 SCF Done:  E(RB3LYP) =  -423.189442305     A.U. after   13 cycles

 The electronic state is 1-A.
 Alpha  occ. eigenvalues --  -19.14856 -19.13168 -10.27306 -10.23458 -10.22188
 Alpha  occ. eigenvalues --  -10.19271 -10.19017 -10.18602 -10.18476  -1.07131
 Alpha  occ. eigenvalues --   -1.00404  -0.85682  -0.77336  -0.72737  -0.67376
 Alpha  occ. eigenvalues --   -0.60136  -0.56870  -0.54356  -0.53585  -0.49514
 Alpha  occ. eigenvalues --   -0.45525  -0.45192  -0.43684  -0.42584  -0.40579
 Alpha  occ. eigenvalues --   -0.38407  -0.37509  -0.35960  -0.34034  -0.33329
 Alpha  occ. eigenvalues --   -0.30765  -0.27464  -0.24809  -0.24083
 Alpha virt. eigenvalues --    0.07624   0.10631   0.11751   0.12649   0.13857
 Alpha virt. eigenvalues --    0.14536   0.15397   0.16146   0.16759   0.17288
 Alpha virt. eigenvalues --    0.17996   0.19175   0.19807   0.20701   0.22626

 Mulliken charges:
               1
     1  C   -0.257444
     2  C   -0.108149
     3  C   -0.066087
     4  C   -0.251077
     5  C   -0.069754
     6  O   -0.263711
     7  C    0.173297
     8  O   -0.248046
     9  C    0.078658
    10  H    0.107286
    11  H    0.114986
    12  H    0.087713
    13  H    0.086998
    14  H    0.106451
    15  H    0.103025
    16  H    0.103256
    17  H    0.108444
    18  H    0.094579
    19  H    0.099575
 Sum of Mulliken charges =   0.00000

 Dipole moment (field-independent basis, Debye):
    X=             -1.0249    Y=              1.4820    Z=             -0.6966  Tot=              1.9318
 Quadrupole moment (field-independent basis, Debye-Ang):
   XX=            -51.5077   YY=            -51.5392   ZZ=            -54.5645
   XY=              1.9282   XZ=              0.6687   YZ=              1.6381

 Optimization completed.
    -- Stationary point found.
 Normal termination of Gaussian 09 at Mon Jan 27 11:18:39 2020.

 ----------------------------------------------------------------------
 #N Geom=AllCheck Guess=TCheck SCRF=Check GenChk RB3LYP/6-31G(2df,p) Fr
 eq
 ----------------------------------------------------------------------

 Structure from the checkpoint file:  "/scratch/puck/g09_af9e7d09-9418-4234-aa5a-2fd99a46fc4c/Gau-150497.chk"
 -----
 titel
 -----
 Charge =  0 Multiplicity = 1

                         Standard orientation:
 ---------------------------------------------------------------------
 Center     Atomic      Atomic             Coordinates (Angstroms)
 Number     Number       Type             X           Y           Z
 ---------------------------------------------------------------------
      1          6           0       -0.939417   -0.855142   -1.090681
      2          6           0       -1.484587    0.454974   -0.553877
      3          6           0       -0.470178    1.449269   -0.003897
      4          6           0        1.007494    1.414316   -0.378283
      5          6           0        1.803096    0.235065    0.191675
      6          8           0        1.364116   -1.046398   -0.236130
      7          6           0        0.008594   -1.348267    0.029599
      8          8           0       -0.449482   -0.747787    1.226310
      9          6           0       -1.137485    0.442812    0.907654
     10          1           0       -1.758437   -1.568233   -1.230768
     11          1           0       -0.391027   -0.774785   -2.032215
     12          1           0       -2.438192    0.817454   -0.919060
     13          1           0       -0.873122    2.453862    0.097592
     14          1           0        1.116308    1.436808   -1.470252
     15          1           0        1.484365    2.327221   -0.001136
     16          1           0        2.842865    0.299319   -0.141946
     17          1           0        1.794629    0.287339    1.287306
     18          1           0       -0.019860   -2.432472    0.167521
     19          1           0       -1.799691    0.748804    1.708372
 ---------------------------------------------------------------------

 SCF Done:  E(RB3LYP) =  -423.189442305     A.U. after    1 cycles
