 Gaussian 09, Revision D.01,
 Gaussian 09:  ES64L-G09RevD.01 24-Apr-2013

 -----------------------------
 # b3lyp 6-31G(2df,p) opt Freq
 -----------------------------

 -----
 titel
 -----
 Symbolic Z-matrix:
 Charge =  0 Multiplicity = 1

 SCF Done:  E(RB3LYP) =  -423.179744823     A.U. after   13 cycles

 The electronic state is 1-A.
 Alpha  occ. eigenvalues --  -19.14039 -19.13062 -10.23583 -10.23143 -10.22342
 Alpha  occ. eigenvalues --  -10.21985 -10.19348 -10.18753 -10.18672  -1.04663
 Alpha  occ. eigenvalues --   -1.01645  -0.84512  -0.76319  -0.70631  -0.65414
 Alpha  occ. eigenvalues --   -0.62683  -0.58671  -0.53791  -0.52154  -0.48236
 Alpha  occ. eigenvalues --   -0.46964  -0.44672  -0.42250  -0.42053  -0.41035
 Alpha  occ. eigenvalues --   -0.39615  -0.37844  -0.36518  -0.33192  -0.31649
 Alpha  occ. eigenvalues --   -0.30619  -0.28175  -0.25668  -0.23607
 Alpha virt. eigenvalues --    0.08070   0.09947   0.12089   0.12751   0.13008
 Alpha virt. eigenvalues --    0.13939   0.14434   0.14754   0.15522   0.16943
 Alpha virt. eigenvalues --    0.17866   0.18828   0.19248   0.21184   0.21755

 Mulliken charges:
               1
     1  C   -0.266598
     2  C    0.109841
     3  O   -0.272853
     4  C   -0.097636
     5  C    0.084531
     6  O   -0.271399
     7  C   -0.100804
     8  C   -0.051904
     9  C   -0.060027
    10  H    0.104162
    11  H    0.102564
    12  H    0.077987
    13  H    0.091892
    14  H    0.117050
    15  H    0.081125
    16  H    0.100289
    17  H    0.107000
    18  H    0.075012
    19  H    0.069768
 Sum of Mulliken charges =   0.00000

 Dipole moment (field-independent basis, Debye):
    X=              1.1399    Y=             -1.1513    Z=              0.9457  Tot=              1.8760
 Quadrupole moment (field-independent basis, Debye-Ang):
   XX=            -56.3173   YY=            -50.1927   ZZ=            -53.2106
   XY=             -0.1229   XZ=              1.8552   YZ=              2.7727

 Optimization completed.
    -- Stationary point found.
 Normal termination of Gaussian 09 at Mon Jan 27 11:19:52 2020.

 ----------------------------------------------------------------------
 #N Geom=AllCheck Guess=TCheck SCRF=Check GenChk RB3LYP/6-31G(2df,p) Fr
 eq
 ----------------------------------------------------------------------

 Structure from the checkpoint file:  "/scratch/puck/g09_4bf4ca4c-eb70-42cb-ba0d-1c6fbbd477c0/Gau-32376.chk"
 -----
 titel
 -----
 Charge =  0 Multiplicity = 1

                         Standard orientation:
 ---------------------------------------------------------------------
 Center     Atomic      Atomic             Coordinates (Angstroms)
 Number     Number       Type             X           Y           Z
 ---------------------------------------------------------------------
      1          6           0        1.680329   -0.522163    0.675055
      2          6           0        1.144986   -0.409094   -0.777390
      3          8           0        0.772831    0.920664   -1.104223
      4          6           0        0.204491    1.613488    0.009869
      5          6           0       -0.602725    0.659736    0.900592
      6          8           0       -1.811382    0.269494    0.251168
      7          6           0       -1.489523   -0.747709   -0.707335
      8          6           0       -0.103224   -1.245929   -0.313763
      9          6           0        0.194732   -0.655744    1.094109
     10          1           0        2.216997   -1.462860    0.821242
     11          1           0        2.285378    0.297587    1.069761
     12          1           0        1.750005   -0.776600   -1.607901
     13          1           0        0.993957    2.100379    0.601407
     14          1           0       -0.445675    2.390992   -0.399047
     15          1           0       -0.883080    1.158343    1.832775
     16          1           0       -2.250294   -1.533015   -0.637655
     17          1           0       -1.502915   -0.331939   -1.722828
     18          1           0        0.049735   -2.320750   -0.419529
     19          1           0       -0.080100   -1.198925    1.999391
 ---------------------------------------------------------------------

 SCF Done:  E(RB3LYP) =  -423.179744823     A.U. after    1 cycles
