 Gaussian 09, Revision D.01,
 Gaussian 09:  ES64L-G09RevD.01 24-Apr-2013

 -----------------------------
 # b3lyp 6-31G(2df,p) opt Freq
 -----------------------------

 -----
 titel
 -----
 Symbolic Z-matrix:
 Charge =  0 Multiplicity = 1

 SCF Done:  E(RB3LYP) =  -423.083577828     A.U. after   14 cycles

 The electronic state is 1-A.
 Alpha  occ. eigenvalues --  -19.13659 -19.12808 -10.25402 -10.25398 -10.22826
 Alpha  occ. eigenvalues --  -10.22826 -10.20462 -10.19852 -10.19110  -1.06045
 Alpha  occ. eigenvalues --   -1.03351  -0.80616  -0.75786  -0.68938  -0.66332
 Alpha  occ. eigenvalues --   -0.65563  -0.56334  -0.54134  -0.52588  -0.49793
 Alpha  occ. eigenvalues --   -0.47509  -0.44524  -0.44349  -0.40973  -0.40712
 Alpha  occ. eigenvalues --   -0.39995  -0.36184  -0.35300  -0.32952  -0.32798
 Alpha  occ. eigenvalues --   -0.30122  -0.29720  -0.24841  -0.24085
 Alpha virt. eigenvalues --    0.08202   0.09042   0.09563   0.10244   0.11163
 Alpha virt. eigenvalues --    0.12191   0.12871   0.13213   0.13607   0.16375
 Alpha virt. eigenvalues --    0.16952   0.17795   0.18322   0.18698   0.19727

 Mulliken charges:
               1
     1  C   -0.085999
     2  O   -0.271146
     3  C   -0.086073
     4  C   -0.069593
     5  C    0.017219
     6  C    0.032460
     7  C   -0.223328
     8  C    0.032377
     9  O   -0.312891
    10  H    0.093476
    11  H    0.101109
    12  H    0.101090
    13  H    0.093476
    14  H    0.098989
    15  H    0.075154
    16  H    0.096543
    17  H    0.098403
    18  H    0.112195
    19  H    0.096540
 Sum of Mulliken charges =   0.00000

 Dipole moment (field-independent basis, Debye):
    X=              1.4507    Y=             -0.0038    Z=             -1.1078  Tot=              1.8253
 Quadrupole moment (field-independent basis, Debye-Ang):
   XX=            -61.9762   YY=            -48.7046   ZZ=            -54.9785
   XY=             -0.0027   XZ=             -5.7203   YZ=             -0.0077

 Optimization completed.
    -- Stationary point found.
 Normal termination of Gaussian 09 at Mon Jan 27 11:26:26 2020.

 ----------------------------------------------------------------------
 #N Geom=AllCheck Guess=TCheck SCRF=Check GenChk RB3LYP/6-31G(2df,p) Fr
 eq
 ----------------------------------------------------------------------

 Structure from the checkpoint file:  "/scratch/puck/g09_a26c96ff-d12a-47a0-bb47-993ccb8f4c6a/Gau-61532.chk"
 -----
 titel
 -----
 Charge =  0 Multiplicity = 1

                         Standard orientation:
 ---------------------------------------------------------------------
 Center     Atomic      Atomic             Coordinates (Angstroms)
 Number     Number       Type             X           Y           Z
 ---------------------------------------------------------------------
      1          6           0       -1.955804    1.035619    0.027154
      2          8           0       -2.896112    0.000642   -0.321400
      3          6           0       -1.957218   -1.035465    0.027561
      4          6           0       -0.870673   -0.000600    0.408735
      5          6           0        0.386014   -0.001412   -0.427760
      6          6           0        1.587358    0.893284    0.000809
      7          6           0        2.540608   -0.000740   -0.825290
      8          6           0        1.588478   -0.893313    0.003666
      9          8           0        1.813642    0.001927    1.164884
     10          1           0       -1.715766    1.679017   -0.830741
     11          1           0       -2.322320    1.665245    0.847552
     12          1           0       -2.324618   -1.664256    0.848205
     13          1           0       -1.718055   -1.679537   -0.830072
     14          1           0       -0.604088   -0.000502    1.465573
     15          1           0        0.167014   -0.003243   -1.501834
     16          1           0        1.623396    1.968569    0.179407
     17          1           0        2.438896   -0.002526   -1.913335
     18          1           0        3.576910    0.000443   -0.487501
     19          1           0        1.625812   -1.967991    0.185616
 ---------------------------------------------------------------------
