 Gaussian 09, Revision D.01,
 Gaussian 09:  ES64L-G09RevD.01 24-Apr-2013

 -----------------------------
 # b3lyp 6-31G(2df,p) opt Freq
 -----------------------------

 -----
 titel
 -----
 Symbolic Z-matrix:
 Charge =  0 Multiplicity = 1

 SCF Done:  E(RB3LYP) =  -423.146930193     A.U. after   13 cycles

 The electronic state is 1-A.
 Alpha  occ. eigenvalues --  -19.14801 -19.14800 -10.23583 -10.23557 -10.22943
 Alpha  occ. eigenvalues --  -10.22926 -10.18404 -10.18124 -10.18106  -1.06203
 Alpha  occ. eigenvalues --   -1.02222  -0.85530  -0.81041  -0.67616  -0.66310
 Alpha  occ. eigenvalues --   -0.60851  -0.59786  -0.53483  -0.51321  -0.50372
 Alpha  occ. eigenvalues --   -0.50340  -0.43247  -0.42392  -0.41991  -0.40310
 Alpha  occ. eigenvalues --   -0.39679  -0.37899  -0.35346  -0.34540  -0.32035
 Alpha  occ. eigenvalues --   -0.30687  -0.27224  -0.24329  -0.24029
 Alpha virt. eigenvalues --    0.06339   0.08419   0.09991   0.12340   0.12800
 Alpha virt. eigenvalues --    0.13971   0.14057   0.15570   0.17106   0.18327
 Alpha virt. eigenvalues --    0.18403   0.19216   0.19718   0.21847   0.24051

 Mulliken charges:
               1
     1  C   -0.333020
     2  C    0.065985
     3  O   -0.255940
     4  C    0.100233
     5  C   -0.254229
     6  C   -0.254237
     7  C    0.100253
     8  O   -0.255934
     9  C    0.065994
    10  H    0.112642
    11  H    0.133062
    12  H    0.091706
    13  H    0.085325
    14  H    0.103443
    15  H    0.107122
    16  H    0.103440
    17  H    0.107122
    18  H    0.085326
    19  H    0.091707
 Sum of Mulliken charges =   0.00000

 Dipole moment (field-independent basis, Debye):
    X=             -0.8548    Y=              0.0001    Z=              1.1408  Tot=              1.4255
 Quadrupole moment (field-independent basis, Debye-Ang):
   XX=            -49.3176   YY=            -57.8030   ZZ=            -50.9784
   XY=             -0.0004   XZ=              3.0794   YZ=              0.0003

 Optimization completed.
    -- Stationary point found.
 Normal termination of Gaussian 09 at Mon Jan 27 11:24:28 2020.

 ----------------------------------------------------------------------
 #N Geom=AllCheck Guess=TCheck SCRF=Check GenChk RB3LYP/6-31G(2df,p) Fr
 eq
 ----------------------------------------------------------------------

 Structure from the checkpoint file:  "/scratch/puck/g09_4a40bea4-e900-451b-b9a8-02b284a925ac/Gau-22519.chk"
 -----
 titel
 -----
 Charge =  0 Multiplicity = 1

                         Standard orientation:
 ---------------------------------------------------------------------
 Center     Atomic      Atomic             Coordinates (Angstroms)
 Number     Number       Type             X           Y           Z
 ---------------------------------------------------------------------
      1          6           0        2.407749   -0.000124    0.037410
      2          6           0        1.186142   -0.753355    0.496225
      3          8           0        0.410332   -1.368822   -0.490844
      4          6           0       -0.866776   -0.782865   -0.660390
      5          6           0       -1.846367   -0.778919    0.550613
      6          6           0       -1.846090    0.779014    0.550839
      7          6           0       -0.866695    0.782939   -0.660324
      8          8           0        0.410488    1.368782   -0.491013
      9          6           0        1.186258    0.753354    0.496114
     10          1           0        3.285223   -0.000137    0.674442
     11          1           0        2.595662   -0.000227   -1.029805
     12          1           0        1.224123   -1.290569    1.442047
     13          1           0       -1.270518   -1.236721   -1.567852
     14          1           0       -2.811392   -1.248564    0.347370
     15          1           0       -1.429209   -1.233792    1.451642
     16          1           0       -2.810968    1.249125    0.347982
     17          1           0       -1.428537    1.233400    1.451928
     18          1           0       -1.270608    1.236851   -1.567683
     19          1           0        1.224337    1.290695    1.441860
 ---------------------------------------------------------------------

 SCF Done:  E(RB3LYP) =  -423.146930193     A.U. after    1 cycles
