 Gaussian 09, Revision D.01,
 Gaussian 09:  ES64L-G09RevD.01 24-Apr-2013

 -----------------------------
 # b3lyp 6-31G(2df,p) opt Freq
 -----------------------------

 -----
 titel
 -----
 Symbolic Z-matrix:
 Charge =  0 Multiplicity = 1

 SCF Done:  E(RB3LYP) =  -423.230915697     A.U. after   14 cycles
 Optimization completed.
    -- Stationary point found.
 Normal termination of Gaussian 09 at Mon Jan 27 10:21:36 2020.

 ----------------------------------------------------------------------
 #N Geom=AllCheck Guess=TCheck SCRF=Check GenChk RB3LYP/6-31G(2df,p) Fr
 eq
 ----------------------------------------------------------------------

 Structure from the checkpoint file:  "/scratch/puck/g09_fd2d6d2e-fd4b-4f4f-8e47-856150981acf/Gau-14483.chk"
 -----
 titel
 -----
 Charge =  0 Multiplicity = 1

                         Standard orientation:
 ---------------------------------------------------------------------
 Center     Atomic      Atomic             Coordinates (Angstroms)
 Number     Number       Type             X           Y           Z
 ---------------------------------------------------------------------
      1          6           0       -2.287656   -1.499083    0.000031
      2          6           0       -1.033257   -0.700770   -0.000010
      3          6           0       -0.774724    0.637519   -0.000087
      4          6           0       -1.727172    1.790531   -0.000082
      5          6           0        0.659328    0.743042    0.000041
      6          8           0        1.290575    1.952567    0.000075
      7          6           0        1.174488   -0.516833    0.000104
      8          6           0        2.553181   -1.068106   -0.000117
      9          8           0        0.131495   -1.412253    0.000072
     10          1           0       -2.352442   -2.145859    0.882934
     11          1           0       -3.157741   -0.839098   -0.000156
     12          1           0       -2.352253   -2.146180   -0.882647
     13          1           0       -2.766701    1.452469   -0.000738
     14          1           0       -1.582034    2.427942    0.879549
     15          1           0       -1.581146    2.428684   -0.879020
     16          1           0        2.242635    1.812282    0.000270
     17          1           0        2.749396   -1.687382   -0.883962
     18          1           0        3.288453   -0.256514   -0.000763
     19          1           0        2.750153   -1.686656    0.884076
 ---------------------------------------------------------------------

 SCF Done:  E(RB3LYP) =  -423.230915697     A.U. after    1 cycles

 The electronic state is 1-A.
 Alpha  occ. eigenvalues --  -19.17989 -19.16256 -10.21837 -10.21804 -10.21065
 Alpha  occ. eigenvalues --  -10.19102 -10.18380 -10.17615 -10.17002  -1.08496
 Alpha  occ. eigenvalues --   -1.04609  -0.79598  -0.77808  -0.72821  -0.69686
 Alpha  occ. eigenvalues --   -0.63691  -0.58933  -0.55415  -0.49297  -0.45812
 Alpha  occ. eigenvalues --   -0.45028  -0.42605  -0.41552  -0.40575  -0.40318
 Alpha  occ. eigenvalues --   -0.39516  -0.38303  -0.38016  -0.37549  -0.36193
 Alpha  occ. eigenvalues --   -0.36138  -0.32548  -0.22831  -0.18724
 Alpha virt. eigenvalues --    0.03381   0.05752   0.09966   0.10262   0.13134
 Alpha virt. eigenvalues --    0.13452   0.14114   0.15538   0.17659   0.18723
 Alpha virt. eigenvalues --    0.20267   0.20604   0.21166   0.23497   0.24165

 Mulliken charges:
               1
     1  C   -0.494017
     2  C    0.265261
     3  C    0.100169
     4  C   -0.503254
     5  C    0.134979
     6  O   -0.443247
     7  C    0.207405
     8  C   -0.502786
     9  O   -0.226049
    10  H    0.134599
    11  H    0.131918
    12  H    0.134598
    13  H    0.118254
    14  H    0.131972
    15  H    0.131982
    16  H    0.293542
    17  H    0.137527
    18  H    0.109642
    19  H    0.137505
 Sum of Mulliken charges =   0.00000

 Dipole moment (field-independent basis, Debye):
    X=              0.7578    Y=             -0.1931    Z=              0.0001  Tot=              0.7820
 Quadrupole moment (field-independent basis, Debye-Ang):
   XX=            -43.3435   YY=            -55.2280   ZZ=            -54.2024
   XY=              1.4838   XZ=              0.0004   YZ=              0.0007

  Exact polarizability: 101.621  -1.325  91.066   0.001   0.000  51.130
 Approx polarizability: 135.904  -0.881 144.792   0.004  -0.002  78.442

                      1                      2                      3
                      A                      A                      A
 Frequencies --     84.4427                97.9852               111.6909
 Red. masses --      1.0183                 1.0176                 1.0491
 Frc consts  --      0.0043                 0.0058                 0.0077
 IR Inten    --      0.2413                 0.6501                 0.2324

                      4                      5                      6
                      A                      A                      A
 Frequencies --    141.3203               171.5226               244.2093
 Red. masses --      2.7333                 3.2970                 2.9220
 Frc consts  --      0.0322                 0.0571                 0.1027
 IR Inten    --      0.3338                 3.8283                 3.8037

                      7                      8                      9
                      A                      A                      A
 Frequencies --    249.8506               254.4541               285.9514
 Red. masses --      2.5728                 1.1872                 3.0881
 Frc consts  --      0.0946                 0.0453                 0.1488
 IR Inten    --      0.5514                83.2150                 4.7283

                     10                     11                     12
                      A                      A                      A
 Frequencies --    318.5748               372.3424               526.4584
 Red. masses --      2.9404                 7.3466                 3.6875
 Frc consts  --      0.1758                 0.6001                 0.6022
 IR Inten    --      9.4496                 2.2297                 4.9033

                     13                     14                     15
                      A                      A                      A
 Frequencies --    573.4644               602.3851               618.8618
 Red. masses --      3.8013                 4.3067                 5.6266
 Frc consts  --      0.7365                 0.9208                 1.2697
 IR Inten    --      1.8271                 2.4303                 0.0345

                     16                     17                     18
                      A                      A                      A
 Frequencies --    688.7710               733.9489               847.8591
 Red. masses --      5.9343                 5.6052                 3.2029
 Frc consts  --      1.6587                 1.7790                 1.3566
 IR Inten    --      1.0281                 4.8844                 6.0276

                     19                     20                     21
                      A                      A                      A
 Frequencies --    937.2556              1003.3152              1044.7400
 Red. masses --      1.8395                 1.6999                 1.7390
 Frc consts  --      0.9521                 1.0082                 1.1183
 IR Inten    --      3.4342                 8.4828                33.5663

                     22                     23                     24
                      A                      A                      A
 Frequencies --   1054.3585              1061.4156              1066.8286
 Red. masses --      1.3949                 1.4234                 1.4887
 Frc consts  --      0.9136                 0.9448                 0.9982
 IR Inten    --      0.0867                 1.8214                 0.1368

                     25                     26                     27
                      A                      A                      A
 Frequencies --   1153.3830              1191.9249              1250.4348
 Red. masses --      2.7215                 6.3736                 2.1986
 Frc consts  --      2.1330                 5.3349                 2.0255
 IR Inten    --     12.1803                56.2534               173.9411

                     28                     29                     30
                      A                      A                      A
 Frequencies --   1292.6341              1320.0566              1412.0700
 Red. masses --      2.6977                 4.2025                 1.3522
 Frc consts  --      2.6558                 4.3146                 1.5885
 IR Inten    --     14.3067                12.8795                 2.2869

                     31                     32                     33
                      A                      A                      A
 Frequencies --   1417.9209              1425.9915              1463.8587
 Red. masses --      1.2925                 1.2857                 1.0413
 Frc consts  --      1.5311                 1.5404                 1.3147
 IR Inten    --      0.8059                 1.0387                 4.2023

                     34                     35                     36
                      A                      A                      A
 Frequencies --   1471.3430              1479.1180              1483.7631
 Red. masses --      1.0427                 1.0423                 1.5482
 Frc consts  --      1.3300                 1.3435                 2.0082
 IR Inten    --      2.5013                 5.7574                 1.8561

                     37                     38                     39
                      A                      A                      A
 Frequencies --   1490.6958              1496.6301              1509.3879
 Red. masses --      1.0932                 1.0784                 1.8611
 Frc consts  --      1.4313                 1.4231                 2.4982
 IR Inten    --      5.4855                 2.4889                12.6586

                     40                     41                     42
                      A                      A                      A
 Frequencies --   1649.1517              1712.0193              3015.5203
 Red. masses --      7.5938                 8.2553                 1.0365
 Frc consts  --     12.1683                14.2562                 5.5534
 IR Inten    --      4.2405                60.9350                55.1021

                     43                     44                     45
                      A                      A                      A
 Frequencies --   3026.4702              3030.0358              3064.1612
 Red. masses --      1.0389                 1.0373                 1.1010
 Frc consts  --      5.6065                 5.6112                 6.0904
 IR Inten    --     40.1350                28.7633                18.9878

                     46                     47                     48
                      A                      A                      A
 Frequencies --   3073.4659              3077.9193              3092.8583
 Red. masses --      1.1002                 1.0997                 1.0981
 Frc consts  --      6.1231                 6.1384                 6.1888
 IR Inten    --     16.4163                19.3811                23.2313

                     49                     50                     51
                      A                      A                      A
 Frequencies --   3112.7844              3130.2971              3827.1100
 Red. masses --      1.0993                 1.0962                 1.0658
 Frc consts  --      6.2757                 6.3287                 9.1971
 IR Inten    --     20.7732                13.3639                29.3813

 - Thermochemistry -
 -------------------
 Temperature   298.150 Kelvin.  Pressure   1.00000 Atm.
 Atom     1 has atomic number  6 and mass  12.00000

 Molecular mass:   126.06808 amu.
 Principal axes and moments of inertia in atomic units:
                           1         2         3
     Eigenvalues --   821.857831127.112811915.37100
           X            0.99832  -0.05796   0.00000
           Y            0.05796   0.99832   0.00000
           Z            0.00000   0.00000   1.00000
 This molecule is an asymmetric top.
 Rotational symmetry number  1.
 Warning -- assumption of classical behavior for rotation
           may cause significant error
 Rotational temperatures (Kelvin)      0.10539     0.07685     0.04522
 Rotational constants (GHZ):           2.19593     1.60121     0.94224
 Zero-point vibrational energy     411294.1 (Joules/Mol)
                                   98.30166 (Kcal/Mol)
 Warning -- explicit consideration of  15 degrees of freedom as
           vibrations may cause significant error
 Vibrational temperatures:    121.49   140.98   160.70   203.33   246.78
          (Kelvin)            351.36   359.48   366.10   411.42   458.36
                              535.72   757.46   825.09   866.70   890.40
                              990.99  1055.99  1219.88  1348.50  1443.54
                             1503.15  1516.98  1527.14  1534.93  1659.46
                             1714.91  1799.09  1859.81  1899.26  2031.65
                             2040.07  2051.68  2106.16  2116.93  2128.12
                             2134.80  2144.78  2153.31  2171.67  2372.76
                             2463.21  4338.66  4354.41  4359.54  4408.64
                             4422.03  4428.43  4449.93  4478.60  4503.79
                             5506.35

 Zero-point correction=                           0.156654 (Hartree/Particle)
 Thermal correction to Energy=                    0.166910
 Thermal correction to Enthalpy=                  0.167854
 Thermal correction to Gibbs Free Energy=         0.121415
 Sum of electronic and zero-point Energies=           -423.074262
 Sum of electronic and thermal Energies=              -423.064006
 Sum of electronic and thermal Enthalpies=            -423.063062
 Sum of electronic and thermal Free Energies=         -423.109500

                     E (Thermal)             CV                S
                      KCal/Mol        Cal/Mol-Kelvin    Cal/Mol-Kelvin
 Total                  104.737             36.194             97.738
 Electronic               0.000              0.000              0.000
 Translational            0.889              2.981             40.409
 Rotational               0.889              2.981             28.963
 Vibrational            102.960             30.232             28.366
 Vibration     1          0.601              1.960              3.785
 Vibration     2          0.603              1.951              3.494
 Vibration     3          0.607              1.940              3.239
 Vibration     4          0.615              1.912              2.786
 Vibration     5          0.626              1.878              2.419
 Vibration     6          0.660              1.772              1.772
 Vibration     7          0.663              1.763              1.732
 Vibration     8          0.665              1.755              1.700
 Vibration     9          0.684              1.700              1.498
 Vibration    10          0.705              1.638              1.317
 Vibration    11          0.744              1.529              1.070
 Vibration    12          0.881              1.191              0.595
 Vibration    13          0.930              1.089              0.498
 Vibration    14          0.961              1.027              0.446
 Vibration    15          0.979              0.992              0.418

 Optimization completed.
    -- Stationary point found.
 Normal termination of Gaussian 09 at Mon Jan 27 11:00:45 2020.
