 Gaussian 09, Revision D.01,
 Gaussian 09:  ES64L-G09RevD.01 24-Apr-2013

 -----------------------------
 # b3lyp 6-31G(2df,p) opt Freq
 -----------------------------

 -----
 titel
 -----
 Symbolic Z-matrix:
 Charge =  0 Multiplicity = 1

 SCF Done:  E(RB3LYP) =  -423.208243603     A.U. after   14 cycles

 The electronic state is 1-A.
 Alpha  occ. eigenvalues --  -19.19970 -19.13234 -10.22588 -10.22539 -10.22153
 Alpha  occ. eigenvalues --  -10.19309 -10.18473 -10.18317 -10.17733  -1.10224
 Alpha  occ. eigenvalues --   -1.01337  -0.81729  -0.76835  -0.73826  -0.67685
 Alpha  occ. eigenvalues --   -0.60803  -0.57739  -0.56232  -0.51926  -0.49741
 Alpha  occ. eigenvalues --   -0.46298  -0.44565  -0.43932  -0.42292  -0.41635
 Alpha  occ. eigenvalues --   -0.39075  -0.38573  -0.36196  -0.35860  -0.33923
 Alpha  occ. eigenvalues --   -0.31979  -0.27186  -0.25876  -0.22143
 Alpha virt. eigenvalues --    0.02079   0.06870   0.07952   0.09880   0.11957
 Alpha virt. eigenvalues --    0.12701   0.13829   0.14976   0.15501   0.16522
 Alpha virt. eigenvalues --    0.17372   0.18800   0.20351   0.20646   0.22127

 Mulliken charges:
               1
     1  O   -0.419214
     2  C   -0.055119
     3  C   -0.188306
     4  C   -0.336572
     5  C    0.255774
     6  C   -0.103598
     7  O   -0.142098
     8  C    0.006714
     9  C   -0.278874
    10  H    0.280079
    11  H    0.110500
    12  H    0.083980
    13  H    0.091217
    14  H    0.110370
    15  H    0.109992
    16  H    0.102183
    17  H    0.130240
    18  H    0.134305
    19  H    0.108427
 Sum of Mulliken charges =   0.00000

 Dipole moment (field-independent basis, Debye):
    X=              0.4178    Y=             -0.6021    Z=             -0.3630  Tot=              0.8178
 Quadrupole moment (field-independent basis, Debye-Ang):
   XX=            -62.3416   YY=            -50.1316   ZZ=            -51.6249
   XY=              5.7488   XZ=              2.3898   YZ=              1.3657

 Optimization completed.
    -- Stationary point found.
 Normal termination of Gaussian 09 at Mon Jan 27 11:12:26 2020.

 ----------------------------------------------------------------------
 #N Geom=AllCheck Guess=TCheck SCRF=Check GenChk RB3LYP/6-31G(2df,p) Fr
 eq
 ----------------------------------------------------------------------

 Structure from the checkpoint file:  "/scratch/puck/g09_a6d5c231-7353-4343-8ac4-4c26d430a600/Gau-94782.chk"
 -----
 titel
 -----
 Charge =  0 Multiplicity = 1

                         Standard orientation:
 ---------------------------------------------------------------------
 Center     Atomic      Atomic             Coordinates (Angstroms)
 Number     Number       Type             X           Y           Z
 ---------------------------------------------------------------------
      1          8           0       -3.932231    0.447278   -0.503209
      2          6           0       -2.943880   -0.231394    0.254889
      3          6           0       -1.518566    0.124637   -0.167797
      4          6           0       -0.450122   -0.557033    0.706172
      5          6           0        0.953933   -0.218733    0.301334
      6          6           0        1.883395   -1.055294   -0.234368
      7          8           0        3.047161   -0.397891   -0.491605
      8          6           0        2.857156    0.891897   -0.110835
      9          6           0        1.603771    1.064624    0.379221
     10          1           0       -3.828018    0.183469   -1.422994
     11          1           0       -3.112903    0.070183    1.294985
     12          1           0       -3.086318   -1.324270    0.211951
     13          1           0       -1.363896   -0.166656   -1.215866
     14          1           0       -1.402137    1.213733   -0.127169
     15          1           0       -0.612116   -0.268479    1.753486
     16          1           0       -0.585422   -1.644716    0.665485
     17          1           0        1.873914   -2.104832   -0.480138
     18          1           0        3.699472    1.549561   -0.249205
     19          1           0        1.183861    1.984686    0.756281
 ---------------------------------------------------------------------

 SCF Done:  E(RB3LYP) =  -423.208243603     A.U. after    1 cycles
