 Gaussian 09, Revision D.01,
 Gaussian 09:  ES64L-G09RevD.01 24-Apr-2013

 -----------------------------
 # b3lyp 6-31G(2df,p) opt Freq
 -----------------------------

 -----
 titel
 -----
 Symbolic Z-matrix:
 Charge =  0 Multiplicity = 1

 SCF Done:  E(RB3LYP) =  -423.181261171     A.U. after   13 cycles

 The electronic state is 1-A.
 Alpha  occ. eigenvalues --  -19.15296 -19.13826 -10.23545 -10.23349 -10.23199
 Alpha  occ. eigenvalues --  -10.22947 -10.19599 -10.18990 -10.17725  -1.07602
 Alpha  occ. eigenvalues --   -1.02726  -0.81946  -0.77037  -0.67869  -0.67393
 Alpha  occ. eigenvalues --   -0.63574  -0.57180  -0.55201  -0.52654  -0.48732
 Alpha  occ. eigenvalues --   -0.46196  -0.45730  -0.43398  -0.42074  -0.39263
 Alpha  occ. eigenvalues --   -0.39003  -0.37883  -0.36903  -0.34118  -0.33037
 Alpha  occ. eigenvalues --   -0.30379  -0.29396  -0.27302  -0.23987
 Alpha virt. eigenvalues --    0.08301   0.08656   0.11218   0.11983   0.13166
 Alpha virt. eigenvalues --    0.14018   0.14181   0.15748   0.16172   0.16521
 Alpha virt. eigenvalues --    0.17499   0.18906   0.19669   0.20284   0.22133

 Mulliken charges:
               1
     1  C   -0.234351
     2  C   -0.064326
     3  C   -0.230230
     4  C   -0.063887
     5  O   -0.276927
     6  C    0.081691
     7  C    0.020456
     8  O   -0.265781
     9  C    0.061106
    10  H    0.116771
    11  H    0.098354
    12  H    0.070573
    13  H    0.107170
    14  H    0.097805
    15  H    0.109107
    16  H    0.095774
    17  H    0.080837
    18  H    0.100847
    19  H    0.095011
 Sum of Mulliken charges =   0.00000

 Dipole moment (field-independent basis, Debye):
    X=             -1.1212    Y=              1.2086    Z=             -0.5458  Tot=              1.7366
 Quadrupole moment (field-independent basis, Debye-Ang):
   XX=            -58.4239   YY=            -52.5737   ZZ=            -50.4153
   XY=             -2.9727   XZ=              0.2579   YZ=             -0.3609

 Optimization completed.
    -- Stationary point found.
 Normal termination of Gaussian 09 at Mon Jan 27 11:19:09 2020.

 ----------------------------------------------------------------------
 #N Geom=AllCheck Guess=TCheck SCRF=Check GenChk RB3LYP/6-31G(2df,p) Fr
 eq
 ----------------------------------------------------------------------

 Structure from the checkpoint file:  "/scratch/puck/g09_3c8d4fa5-73be-4f1b-b821-1412579e6762/Gau-162684.chk"
 -----
 titel
 -----
 Charge =  0 Multiplicity = 1

                         Standard orientation:
 ---------------------------------------------------------------------
 Center     Atomic      Atomic             Coordinates (Angstroms)
 Number     Number       Type             X           Y           Z
 ---------------------------------------------------------------------
      1          6           0        0.205080    0.042986    1.452483
      2          6           0        0.094447    1.210088    0.446184
      3          6           0       -1.358777    1.208695   -0.079254
      4          6           0       -1.714793   -0.156360   -0.708822
      5          8           0       -1.221544   -1.290703    0.007438
      6          6           0        0.117255   -1.154012    0.489857
      7          6           0        1.037191   -0.725182   -0.654970
      8          8           0        2.184794    0.028734   -0.242301
      9          6           0        1.022027    0.744296   -0.676346
     10          1           0        1.158641    0.053256    1.980656
     11          1           0       -0.612602    0.027352    2.175949
     12          1           0        0.366742    2.182253    0.865893
     13          1           0       -2.030699    1.429388    0.757328
     14          1           0       -1.519148    1.988177   -0.834020
     15          1           0       -2.799955   -0.288209   -0.747129
     16          1           0       -1.349610   -0.184206   -1.744926
     17          1           0        0.368813   -2.116410    0.940505
     18          1           0        1.157487   -1.341678   -1.540946
     19          1           0        1.139744    1.322761   -1.589194
 ---------------------------------------------------------------------

 SCF Done:  E(RB3LYP) =  -423.181261171     A.U. after    1 cycles
