 Gaussian 09, Revision D.01,
 Gaussian 09:  ES64L-G09RevD.01 24-Apr-2013

 -----------------------------
 # b3lyp 6-31G(2df,p) opt Freq
 -----------------------------

 -----
 titel
 -----
 Symbolic Z-matrix:
 Charge =  0 Multiplicity = 1

 SCF Done:  E(RB3LYP) =  -423.106369475     A.U. after   13 cycles

 The electronic state is 1-A.
 Alpha  occ. eigenvalues --  -19.14084 -19.13025 -10.24395 -10.23962 -10.23028
 Alpha  occ. eigenvalues --  -10.22985 -10.20237 -10.20200 -10.20075  -1.05470
 Alpha  occ. eigenvalues --   -1.03595  -0.84816  -0.74837  -0.70157  -0.69055
 Alpha  occ. eigenvalues --   -0.60563  -0.56576  -0.55461  -0.52067  -0.50844
 Alpha  occ. eigenvalues --   -0.47545  -0.46137  -0.44386  -0.43955  -0.40753
 Alpha  occ. eigenvalues --   -0.40305  -0.36763  -0.35939  -0.33583  -0.31643
 Alpha  occ. eigenvalues --   -0.30856  -0.27409  -0.24685  -0.23637
 Alpha virt. eigenvalues --    0.07495   0.08119   0.08830   0.09665   0.11174
 Alpha virt. eigenvalues --    0.11831   0.12751   0.14585   0.15199   0.16335
 Alpha virt. eigenvalues --    0.17501   0.18210   0.18877   0.19051   0.20905

 Mulliken charges:
               1
     1  C   -0.098118
     2  O   -0.289658
     3  C    0.088409
     4  C   -0.146783
     5  C   -0.053110
     6  C   -0.053966
     7  C   -0.084353
     8  O   -0.270465
     9  C   -0.089696
    10  H    0.107544
    11  H    0.112187
    12  H    0.106564
    13  H    0.100652
    14  H    0.090823
    15  H    0.077909
    16  H    0.097424
    17  H    0.101442
    18  H    0.100394
    19  H    0.102802
 Sum of Mulliken charges =   0.00000

 Dipole moment (field-independent basis, Debye):
    X=             -0.8978    Y=              1.1856    Z=              1.3200  Tot=              1.9885
 Quadrupole moment (field-independent basis, Debye-Ang):
   XX=            -64.4654   YY=            -51.3183   ZZ=            -51.4981
   XY=             -4.5825   XZ=              0.6885   YZ=             -1.1471

 Optimization completed.
    -- Stationary point found.
 Normal termination of Gaussian 09 at Mon Jan 27 11:24:47 2020.

 ----------------------------------------------------------------------
 #N Geom=AllCheck Guess=TCheck SCRF=Check GenChk RB3LYP/6-31G(2df,p) Fr
 eq
 ----------------------------------------------------------------------

 Structure from the checkpoint file:  "/scratch/puck/g09_77edf58c-949c-4ad1-b843-c9643c2f5023/Gau-61533.chk"
 -----
 titel
 -----
 Charge =  0 Multiplicity = 1

                         Standard orientation:
 ---------------------------------------------------------------------
 Center     Atomic      Atomic             Coordinates (Angstroms)
 Number     Number       Type             X           Y           Z
 ---------------------------------------------------------------------
      1          6           0       -2.704314    0.649647   -0.336474
      2          8           0       -2.595911   -0.801798   -0.344991
      3          6           0       -1.432771   -0.727313    0.479795
      4          6           0       -1.413473    0.783411    0.463359
      5          6           0       -0.314106   -0.014129   -0.222541
      6          6           0        1.039831   -0.006266    0.430134
      7          6           0        2.077961    1.044129   -0.038212
      8          8           0        3.050755    0.020232   -0.324006
      9          6           0        2.095717   -1.026884   -0.061491
     10          1           0       -2.725971    1.072519   -1.347939
     11          1           0       -3.597967    0.961282    0.215780
     12          1           0       -1.315270   -1.463007    1.267965
     13          1           0       -1.218701    1.499051    1.250940
     14          1           0       -0.308293   -0.054575   -1.311804
     15          1           0        0.933922   -0.017742    1.519308
     16          1           0        1.783835    1.596937   -0.941359
     17          1           0        2.437485    1.756527    0.713463
     18          1           0        1.811786   -1.565022   -0.976500
     19          1           0        2.467342   -1.749021    0.674696
 ---------------------------------------------------------------------

 SCF Done:  E(RB3LYP) =  -423.106369475     A.U. after    1 cycles
