 Gaussian 09, Revision D.01,
 Gaussian 09:  ES64L-G09RevD.01 24-Apr-2013

 -----------------------------
 # b3lyp 6-31G(2df,p) opt Freq
 -----------------------------

 -----
 titel
 -----
 Symbolic Z-matrix:
 Charge =  0 Multiplicity = 1

 SCF Done:  E(RB3LYP) =  -423.155576057     A.U. after   13 cycles

 The electronic state is 1-A.
 Alpha  occ. eigenvalues --  -19.15290 -19.14818 -10.27425 -10.24008 -10.23300
 Alpha  occ. eigenvalues --  -10.19186 -10.19163 -10.19038 -10.18603  -1.07934
 Alpha  occ. eigenvalues --   -1.01373  -0.89317  -0.76047  -0.71940  -0.64163
 Alpha  occ. eigenvalues --   -0.63200  -0.58592  -0.54426  -0.51822  -0.50560
 Alpha  occ. eigenvalues --   -0.48304  -0.44954  -0.43958  -0.43066  -0.40896
 Alpha  occ. eigenvalues --   -0.38675  -0.38438  -0.36036  -0.32411  -0.31700
 Alpha  occ. eigenvalues --   -0.31220  -0.29291  -0.25987  -0.23223
 Alpha virt. eigenvalues --    0.09602   0.09853   0.10483   0.11522   0.12209
 Alpha virt. eigenvalues --    0.13801   0.14153   0.15000   0.16051   0.16445
 Alpha virt. eigenvalues --    0.18048   0.18849   0.19505   0.21711   0.22175

 Mulliken charges:
               1
     1  C   -0.347026
     2  C   -0.143345
     3  C   -0.255209
     4  C   -0.088585
     5  C   -0.107953
     6  O   -0.228364
     7  C    0.000002
     8  O   -0.279166
     9  C    0.460784
    10  H    0.103025
    11  H    0.120931
    12  H    0.091022
    13  H    0.102562
    14  H    0.100220
    15  H    0.071308
    16  H    0.088950
    17  H    0.113442
    18  H    0.079019
    19  H    0.118383
 Sum of Mulliken charges =   0.00000

 Dipole moment (field-independent basis, Debye):
    X=              0.8488    Y=              0.9590    Z=              0.9422  Tot=              1.5900
 Quadrupole moment (field-independent basis, Debye-Ang):
   XX=            -54.7765   YY=            -52.4793   ZZ=            -52.3716
   XY=              0.5064   XZ=             -2.0736   YZ=             -1.2433

 Optimization completed.
    -- Stationary point found.
 Normal termination of Gaussian 09 at Mon Jan 27 11:16:03 2020.

 ----------------------------------------------------------------------
 #N Geom=AllCheck Guess=TCheck SCRF=Check GenChk RB3LYP/6-31G(2df,p) Fr
 eq
 ----------------------------------------------------------------------

 Structure from the checkpoint file:  "/scratch/puck/g09_83151394-3b0d-450c-83be-684b2a4a532f/Gau-149630.chk"
 -----
 titel
 -----
 Charge =  0 Multiplicity = 1

                         Standard orientation:
 ---------------------------------------------------------------------
 Center     Atomic      Atomic             Coordinates (Angstroms)
 Number     Number       Type             X           Y           Z
 ---------------------------------------------------------------------
      1          6           0        1.877361   -1.014194   -0.459667
      2          6           0        1.621174   -0.142675    0.757207
      3          6           0        1.475041    1.314095    0.297441
      4          6           0        0.253227    0.905382   -0.595563
      5          6           0       -1.100794    1.335811   -0.018748
      6          8           0       -2.078237    0.319559   -0.232524
      7          6           0       -1.715966   -0.860953    0.419925
      8          8           0       -0.552339   -1.456409   -0.128396
      9          6           0        0.490391   -0.555255   -0.211413
     10          1           0        2.458531   -0.642263   -1.302324
     11          1           0        2.032381   -2.064494   -0.232000
     12          1           0        1.870496   -0.479396    1.755462
     13          1           0        1.202958    2.013623    1.091915
     14          1           0        2.337070    1.719433   -0.242051
     15          1           0        0.310128    1.132740   -1.665500
     16          1           0       -1.008335    1.521335    1.064044
     17          1           0       -1.483608    2.243734   -0.490816
     18          1           0       -1.552283   -0.664358    1.495504
     19          1           0       -2.525336   -1.578825    0.278044
 ---------------------------------------------------------------------

 SCF Done:  E(RB3LYP) =  -423.155576057     A.U. after    1 cycles
