 Gaussian 09, Revision D.01,
 Gaussian 09:  ES64L-G09RevD.01 24-Apr-2013

 -----------------------------
 # b3lyp 6-31G(2df,p) opt Freq
 -----------------------------

 -----
 titel
 -----
 Symbolic Z-matrix:
 Charge =  0 Multiplicity = 1

 SCF Done:  E(RB3LYP) =  -423.190425958     A.U. after   14 cycles

 The electronic state is 1-A.
 Alpha  occ. eigenvalues --  -19.14966 -19.12673 -10.23509 -10.23436 -10.22965
 Alpha  occ. eigenvalues --  -10.21496 -10.19384 -10.18356 -10.18283  -1.07181
 Alpha  occ. eigenvalues --   -1.02298  -0.80207  -0.77117  -0.70180  -0.66449
 Alpha  occ. eigenvalues --   -0.59975  -0.57168  -0.56015  -0.52689  -0.48751
 Alpha  occ. eigenvalues --   -0.47022  -0.44061  -0.42945  -0.41846  -0.39063
 Alpha  occ. eigenvalues --   -0.38533  -0.37305  -0.35052  -0.34650  -0.33007
 Alpha  occ. eigenvalues --   -0.31201  -0.28754  -0.26177  -0.23949
 Alpha virt. eigenvalues --    0.08014   0.09693   0.11176   0.12364   0.13153
 Alpha virt. eigenvalues --    0.13528   0.14147   0.15801   0.16142   0.16967
 Alpha virt. eigenvalues --    0.17945   0.18276   0.19760   0.20321   0.21202

 Mulliken charges:
               1
     1  C   -0.072116
     2  C   -0.230813
     3  C   -0.082122
     4  C    0.030973
     5  O   -0.254335
     6  C    0.043175
     7  C   -0.262511
     8  C    0.109740
     9  O   -0.269551
    10  H    0.097276
    11  H    0.114355
    12  H    0.106327
    13  H    0.103702
    14  H    0.076242
    15  H    0.092415
    16  H    0.094132
    17  H    0.125781
    18  H    0.098859
    19  H    0.078472
 Sum of Mulliken charges =   0.00000

 Dipole moment (field-independent basis, Debye):
    X=             -0.7635    Y=             -0.7450    Z=              2.0178  Tot=              2.2825
 Quadrupole moment (field-independent basis, Debye-Ang):
   XX=            -50.4464   YY=            -53.7447   ZZ=            -53.5746
   XY=             -3.4940   XZ=             -1.3957   YZ=             -0.7492

 Optimization completed.
    -- Stationary point found.
 Normal termination of Gaussian 09 at Mon Jan 27 11:16:37 2020.

 ----------------------------------------------------------------------
 #N Geom=AllCheck Guess=TCheck SCRF=Check GenChk RB3LYP/6-31G(2df,p) Fr
 eq
 ----------------------------------------------------------------------

 Structure from the checkpoint file:  "/scratch/puck/g09_0f273e46-e5ba-4a14-be2c-84d4ce9a9c5a/Gau-149631.chk"
 -----
 titel
 -----
 Charge =  0 Multiplicity = 1

                         Standard orientation:
 ---------------------------------------------------------------------
 Center     Atomic      Atomic             Coordinates (Angstroms)
 Number     Number       Type             X           Y           Z
 ---------------------------------------------------------------------
      1          6           0        1.764898   -0.050384   -0.795800
      2          6           0        1.534207   -1.045807    0.348524
      3          6           0        0.225210   -0.532272    0.981050
      4          6           0       -1.049031   -1.079768    0.362977
      5          8           0       -1.143686   -0.846422   -1.051773
      6          6           0       -1.873549    0.014716   -0.166570
      7          6           0       -1.190084    1.340647    0.088271
      8          6           0        0.225118    0.989715    0.625738
      9          8           0        1.261851    1.198890   -0.326462
     10          1           0        2.822230    0.090568   -1.040445
     11          1           0        1.228507   -0.367270   -1.697478
     12          1           0        1.461223   -2.078828   -0.001496
     13          1           0        2.349886   -0.989143    1.075884
     14          1           0        0.199774   -0.699504    2.062011
     15          1           0       -1.464536   -2.026271    0.702019
     16          1           0       -2.955774   -0.050586   -0.252352
     17          1           0       -1.111355    1.955185   -0.812831
     18          1           0       -1.759322    1.908614    0.833283
     19          1           0        0.463425    1.616406    1.492140
 ---------------------------------------------------------------------

 SCF Done:  E(RB3LYP) =  -423.190425958     A.U. after    1 cycles
