 Gaussian 09, Revision D.01,
 Gaussian 09:  ES64L-G09RevD.01 24-Apr-2013

 -----------------------------
 # b3lyp 6-31G(2df,p) opt Freq
 -----------------------------

 -----
 titel
 -----
 Symbolic Z-matrix:
 Charge =  0 Multiplicity = 1

 SCF Done:  E(RB3LYP) =  -423.126500000     A.U. after   13 cycles

 The electronic state is 1-A.
 Alpha  occ. eigenvalues --  -19.14481 -19.13668 -10.27097 -10.23856 -10.22582
 Alpha  occ. eigenvalues --  -10.20299 -10.19869 -10.19379 -10.19124  -1.06916
 Alpha  occ. eigenvalues --   -1.00165  -0.91158  -0.73805  -0.69705  -0.64240
 Alpha  occ. eigenvalues --   -0.63130  -0.58839  -0.55457  -0.50253  -0.49829
 Alpha  occ. eigenvalues --   -0.48299  -0.46670  -0.44108  -0.42676  -0.39264
 Alpha  occ. eigenvalues --   -0.37237  -0.36212  -0.34110  -0.32195  -0.31778
 Alpha  occ. eigenvalues --   -0.29937  -0.28777  -0.27293  -0.24517
 Alpha virt. eigenvalues --    0.09643   0.10317   0.11272   0.12571   0.13848
 Alpha virt. eigenvalues --    0.14310   0.14479   0.15467   0.15896   0.17183
 Alpha virt. eigenvalues --    0.17770   0.18114   0.18866   0.19411   0.21160

 Mulliken charges:
               1
     1  C   -0.248036
     2  C   -0.082540
     3  C    0.010319
     4  C   -0.130517
     5  O   -0.244639
     6  C    0.004557
     7  O   -0.268224
     8  C    0.152317
     9  C   -0.086618
    10  H    0.098785
    11  H    0.093330
    12  H    0.073202
    13  H    0.065357
    14  H    0.103256
    15  H    0.106972
    16  H    0.100056
    17  H    0.096310
    18  H    0.074398
    19  H    0.081715
 Sum of Mulliken charges =   0.00000

 Dipole moment (field-independent basis, Debye):
    X=             -1.0060    Y=              0.2606    Z=              0.0010  Tot=              1.0392
 Quadrupole moment (field-independent basis, Debye-Ang):
   XX=            -53.0822   YY=            -52.5347   ZZ=            -53.5051
   XY=             -0.9124   XZ=             -0.7630   YZ=             -2.5742

 Optimization completed.
    -- Stationary point found.
 Normal termination of Gaussian 09 at Mon Jan 27 11:18:19 2020.

 ----------------------------------------------------------------------
 #N Geom=AllCheck Guess=TCheck SCRF=Check GenChk RB3LYP/6-31G(2df,p) Fr
 eq
 ----------------------------------------------------------------------

 Structure from the checkpoint file:  "/scratch/puck/g09_10868d82-4166-4d7d-9120-128c79f2a8e3/Gau-150501.chk"
 -----
 titel
 -----
 Charge =  0 Multiplicity = 1

                         Standard orientation:
 ---------------------------------------------------------------------
 Center     Atomic      Atomic             Coordinates (Angstroms)
 Number     Number       Type             X           Y           Z
 ---------------------------------------------------------------------
      1          6           0       -2.328296   -0.051035    0.336879
      2          6           0       -1.360441   -0.067383   -0.876336
      3          6           0       -0.574908    1.087889   -0.165898
      4          6           0        0.918684    1.362451   -0.414621
      5          8           0        1.736578    0.646889    0.505680
      6          6           0        1.874492   -0.724065    0.218309
      7          8           0        0.814098   -1.247061   -0.527417
      8          6           0       -0.506277   -1.068497   -0.057661
      9          6           0       -0.906493    0.053611    0.955603
     10          1           0       -2.961043    0.832393    0.441769
     11          1           0       -2.887056   -0.969809    0.534753
     12          1           0       -1.616659   -0.143853   -1.933721
     13          1           0       -1.141895    2.022522   -0.105362
     14          1           0        1.204813    1.153532   -1.454480
     15          1           0        1.135258    2.415267   -0.213736
     16          1           0        2.762143   -0.912146   -0.403139
     17          1           0        1.993605   -1.222312    1.192169
     18          1           0       -0.949015   -2.053285    0.126981
     19          1           0       -0.646112    0.121243    2.011016
 ---------------------------------------------------------------------

 SCF Done:  E(RB3LYP) =  -423.126500000     A.U. after    1 cycles
