 Gaussian 09, Revision D.01,
 Gaussian 09:  ES64L-G09RevD.01 24-Apr-2013

 -----------------------------
 # b3lyp 6-31G(2df,p) opt Freq
 -----------------------------

 -----
 titel
 -----
 Symbolic Z-matrix:
 Charge =  0 Multiplicity = 1

 SCF Done:  E(RB3LYP) =  -423.159303961     A.U. after   13 cycles

 The electronic state is 1-A.
 Alpha  occ. eigenvalues --  -19.13790 -19.12693 -10.23857 -10.23472 -10.22947
 Alpha  occ. eigenvalues --  -10.22425 -10.19374 -10.19115 -10.19081  -1.03779
 Alpha  occ. eigenvalues --   -1.03066  -0.79590  -0.77811  -0.70418  -0.68752
 Alpha  occ. eigenvalues --   -0.60368  -0.56986  -0.55129  -0.51858  -0.49679
 Alpha  occ. eigenvalues --   -0.48025  -0.44944  -0.44221  -0.42433  -0.40726
 Alpha  occ. eigenvalues --   -0.39548  -0.37654  -0.36487  -0.33459  -0.31898
 Alpha  occ. eigenvalues --   -0.29844  -0.27991  -0.24671  -0.23517
 Alpha virt. eigenvalues --    0.00984   0.08436   0.09778   0.10620   0.11362
 Alpha virt. eigenvalues --    0.12441   0.13577   0.15019   0.16036   0.16735
 Alpha virt. eigenvalues --    0.17063   0.18280   0.18690   0.19830   0.20751

 Mulliken charges:
               1
     1  C   -0.089871
     2  O   -0.273834
     3  C   -0.084023
     4  C   -0.033487
     5  C    0.074437
     6  O   -0.281224
     7  C   -0.116977
     8  C   -0.096484
     9  C   -0.101103
    10  H    0.098543
    11  H    0.095958
    12  H    0.112716
    13  H    0.098038
    14  H    0.078389
    15  H    0.086143
    16  H    0.107030
    17  H    0.107894
    18  H    0.108944
    19  H    0.108910
 Sum of Mulliken charges =   0.00000

 Dipole moment (field-independent basis, Debye):
    X=             -2.2711    Y=              1.3636    Z=              0.9013  Tot=              2.7982
 Quadrupole moment (field-independent basis, Debye-Ang):
   XX=            -56.1651   YY=            -51.7119   ZZ=            -52.9111
   XY=             -0.5086   XZ=              1.1978   YZ=             -0.5858

 Optimization completed.
    -- Stationary point found.
 Normal termination of Gaussian 09 at Mon Jan 27 11:24:53 2020.

 ----------------------------------------------------------------------
 #N Geom=AllCheck Guess=TCheck SCRF=Check GenChk RB3LYP/6-31G(2df,p) Fr
 eq
 ----------------------------------------------------------------------

 Structure from the checkpoint file:  "/scratch/puck/g09_97a5af9c-21af-4cef-8877-2f0c1bf9327a/Gau-61535.chk"
 -----
 titel
 -----
 Charge =  0 Multiplicity = 1

                         Standard orientation:
 ---------------------------------------------------------------------
 Center     Atomic      Atomic             Coordinates (Angstroms)
 Number     Number       Type             X           Y           Z
 ---------------------------------------------------------------------
      1          6           0        1.993033    1.020267    0.120590
      2          8           0        2.853877   -0.059430   -0.288167
      3          6           0        1.893652   -1.047738    0.147023
      4          6           0        0.854566    0.042034    0.487856
      5          6           0       -0.369877    0.078190   -0.423624
      6          8           0       -1.159436   -1.097443   -0.210620
      7          6           0       -2.501525   -0.747868    0.119419
      8          6           0       -2.515566    0.754156    0.158206
      9          6           0       -1.314392    1.221613   -0.159123
     10          1           0        2.411500    1.587015    0.962335
     11          1           0        1.786593    1.716038   -0.704137
     12          1           0        1.615259   -1.738728   -0.657048
     13          1           0        2.261813   -1.625688    1.003672
     14          1           0        0.533371    0.066563    1.531258
     15          1           0       -0.017066    0.085462   -1.470375
     16          1           0       -3.193365   -1.151850   -0.637158
     17          1           0       -2.779110   -1.200640    1.083817
     18          1           0       -3.397240    1.332676    0.403400
     19          1           0       -1.016631    2.260201   -0.227544
 ---------------------------------------------------------------------

 SCF Done:  E(RB3LYP) =  -423.159303961     A.U. after    1 cycles
