 Gaussian 09, Revision D.01,
 Gaussian 09:  ES64L-G09RevD.01 24-Apr-2013

 -----------------------------
 # b3lyp 6-31G(2df,p) opt Freq
 -----------------------------

 -----
 titel
 -----
 Symbolic Z-matrix:
 Charge =  0 Multiplicity = 1

 SCF Done:  E(RB3LYP) =  -423.146551612     A.U. after   14 cycles

 The electronic state is 1-A.
 Alpha  occ. eigenvalues --  -19.15179 -19.13546 -10.23880 -10.23443 -10.22765
 Alpha  occ. eigenvalues --  -10.22497 -10.20168 -10.19316 -10.18266  -1.07807
 Alpha  occ. eigenvalues --   -1.03286  -0.82144  -0.74944  -0.71463  -0.65099
 Alpha  occ. eigenvalues --   -0.60913  -0.59426  -0.54482  -0.52535  -0.49465
 Alpha  occ. eigenvalues --   -0.46230  -0.44873  -0.43733  -0.43046  -0.40817
 Alpha  occ. eigenvalues --   -0.38698  -0.37408  -0.34469  -0.34414  -0.32075
 Alpha  occ. eigenvalues --   -0.30961  -0.29234  -0.25595  -0.24930
 Alpha virt. eigenvalues --    0.07812   0.09479   0.10554   0.11480   0.11620
 Alpha virt. eigenvalues --    0.12206   0.13565   0.14389   0.16023   0.16243
 Alpha virt. eigenvalues --    0.18142   0.18445   0.19203   0.19391   0.20541

 Mulliken charges:
               1
     1  C   -0.352808
     2  C    0.038276
     3  O   -0.252678
     4  C   -0.023710
     5  C    0.334009
     6  C   -0.319725
     7  C   -0.071712
     8  O   -0.256490
     9  C   -0.148888
    10  H    0.111329
    11  H    0.107944
    12  H    0.105659
    13  H    0.105297
    14  H    0.124921
    15  H    0.104565
    16  H    0.109698
    17  H    0.093898
    18  H    0.106397
    19  H    0.084018
 Sum of Mulliken charges =   0.00000

 Dipole moment (field-independent basis, Debye):
    X=              0.3267    Y=              1.1325    Z=              0.8891  Tot=              1.4764
 Quadrupole moment (field-independent basis, Debye-Ang):
   XX=            -56.7202   YY=            -53.0886   ZZ=            -51.9885
   XY=              6.1411   XZ=             -2.4737   YZ=              0.1725

 Optimization completed.
    -- Stationary point found.
 Normal termination of Gaussian 09 at Mon Jan 27 11:18:07 2020.

 ----------------------------------------------------------------------
 #N Geom=AllCheck Guess=TCheck SCRF=Check GenChk RB3LYP/6-31G(2df,p) Fr
 eq
 ----------------------------------------------------------------------

 Structure from the checkpoint file:  "/scratch/puck/g09_76a54b5e-bd7e-4c6f-a073-87e5da8c0cfa/Gau-42114.chk"
 -----
 titel
 -----
 Charge =  0 Multiplicity = 1

                         Standard orientation:
 ---------------------------------------------------------------------
 Center     Atomic      Atomic             Coordinates (Angstroms)
 Number     Number       Type             X           Y           Z
 ---------------------------------------------------------------------
      1          6           0        1.282903    0.728377    1.033158
      2          6           0        2.164776    0.335731   -0.159534
      3          8           0        1.983303   -1.069436   -0.382479
      4          6           0        1.008802   -0.166976   -0.914814
      5          6           0        0.042648    0.191395    0.235949
      6          6           0       -0.822209   -0.949350    0.791682
      7          6           0       -2.183854   -0.749008    0.080505
      8          8           0       -2.075664    0.447555   -0.697389
      9          6           0       -1.017980    1.218062   -0.156674
     10          1           0        1.521334    0.227773    1.974816
     11          1           0        1.233050    1.809346    1.196009
     12          1           0        3.097983    0.772314   -0.494905
     13          1           0        0.807591   -0.213244   -1.979460
     14          1           0       -0.370562   -1.924139    0.596888
     15          1           0       -0.930517   -0.848386    1.876180
     16          1           0       -2.434622   -1.563444   -0.605801
     17          1           0       -3.003208   -0.654563    0.807129
     18          1           0       -0.689488    1.928151   -0.922701
     19          1           0       -1.343186    1.791848    0.729153
 ---------------------------------------------------------------------

 SCF Done:  E(RB3LYP) =  -423.146551612     A.U. after    1 cycles
