 Gaussian 09, Revision D.01,
 Gaussian 09:  ES64L-G09RevD.01 24-Apr-2013

 -----------------------------
 # b3lyp 6-31G(2df,p) opt Freq
 -----------------------------

 -----
 titel
 -----
 Symbolic Z-matrix:
 Charge =  0 Multiplicity = 1

 SCF Done:  E(RB3LYP) =  -423.123376599     A.U. after   14 cycles
 Optimization completed.
    -- Stationary point found.
 Normal termination of Gaussian 09 at Mon Jan 27 11:16:56 2020.

 ----------------------------------------------------------------------
 #N Geom=AllCheck Guess=TCheck SCRF=Check GenChk RB3LYP/6-31G(2df,p) Fr
 eq
 ----------------------------------------------------------------------

 Structure from the checkpoint file:  "/scratch/puck/g09_cdcf2490-01d1-48ee-ab9c-612fc4cf2271/Gau-49234.chk"
 -----
 titel
 -----
 Charge =  0 Multiplicity = 1

                         Standard orientation:
 ---------------------------------------------------------------------
 Center     Atomic      Atomic             Coordinates (Angstroms)
 Number     Number       Type             X           Y           Z
 ---------------------------------------------------------------------
      1          6           0        0.623545   -0.696499    0.669117
      2          6           0        1.752858   -0.386608   -0.289815
      3          6           0        3.104931   -0.059987    0.174882
      4          8           0        2.226068    0.964584   -0.293921
      5          6           0       -0.694845   -0.211534    0.146988
      6          6           0       -1.190382    1.237183   -0.021697
      7          6           0       -2.658076    0.704642    0.139955
      8          6           0       -2.076093   -0.707969    0.286274
      9          8           0       -1.317379   -0.974786   -0.902567
     10          1           0        0.566270   -1.780143    0.825749
     11          1           0        0.836560   -0.223380    1.634576
     12          1           0        1.642179   -0.818259   -1.285202
     13          1           0        3.314655   -0.042680    1.244125
     14          1           0        3.963709   -0.268526   -0.461458
     15          1           0       -0.887804    1.893746    0.797111
     16          1           0       -0.930623    1.702819   -0.974243
     17          1           0       -3.139147    1.070045    1.050394
     18          1           0       -3.331903    0.839246   -0.709259
     19          1           0       -2.475032   -1.566624    0.815885
 ---------------------------------------------------------------------

 SCF Done:  E(RB3LYP) =  -423.123376599     A.U. after    1 cycles

 The electronic state is 1-A.
 Alpha  occ. eigenvalues --  -19.15030 -19.14420 -10.23998 -10.23753 -10.23461
 Alpha  occ. eigenvalues --  -10.23199 -10.19661 -10.18678 -10.18386  -1.07196
 Alpha  occ. eigenvalues --   -1.06902  -0.79827  -0.77032  -0.67090  -0.65087
 Alpha  occ. eigenvalues --   -0.62490  -0.59016  -0.54431  -0.51887  -0.48256
 Alpha  occ. eigenvalues --   -0.47546  -0.45541  -0.44921  -0.42279  -0.39134
 Alpha  occ. eigenvalues --   -0.38153  -0.37079  -0.35336  -0.34255  -0.32944
 Alpha  occ. eigenvalues --   -0.30867  -0.28337  -0.26804  -0.24758
 Alpha virt. eigenvalues --    0.08027   0.10469   0.10988   0.11229   0.11881
 Alpha virt. eigenvalues --    0.12620   0.13026   0.13724   0.14673   0.15355
 Alpha virt. eigenvalues --    0.16426   0.16958   0.18305   0.19540   0.20149

 Mulliken charges:
               1
     1  C   -0.364323
     2  C    0.105332
     3  C   -0.182757
     4  O   -0.235126
     5  C    0.443431
     6  C   -0.277385
     7  C   -0.238910
     8  C   -0.051904
     9  O   -0.296020
    10  H    0.114448
    11  H    0.108037
    12  H    0.109117
    13  H    0.111611
    14  H    0.116147
    15  H    0.109166
    16  H    0.115491
    17  H    0.104441
    18  H    0.111513
    19  H    0.097690
 Sum of Mulliken charges =   0.00000

 Dipole moment (field-independent basis, Debye):
    X=              0.2207    Y=             -0.8338    Z=              1.9727  Tot=              2.1530
 Quadrupole moment (field-independent basis, Debye-Ang):
   XX=            -48.4700   YY=            -55.0464   ZZ=            -52.9144
   XY=             -4.4070   XZ=             -1.3657   YZ=             -1.0326

  Exact polarizability:  95.988   0.585  67.986   0.223  -0.086  63.505
 Approx polarizability: 119.667   4.108 105.762   0.947   2.892 100.739

                      1                      2                      3
                      A                      A                      A
 Frequencies --     58.7651                67.2258               121.8341
 Red. masses --      3.9356                 4.2547                 3.0737
 Frc consts  --      0.0080                 0.0113                 0.0269
 IR Inten    --      2.9331                 2.4944                 2.4727

                      4                      5                      6
                      A                      A                      A
 Frequencies --    238.7885               286.4243               341.5368
 Red. masses --      2.1703                 3.2461                 3.1286
 Frc consts  --      0.0729                 0.1569                 0.2150
 IR Inten    --      0.0394                 1.2424                 0.7800

                      7                      8                      9
                      A                      A                      A
 Frequencies --    380.4196               460.5117               495.6580
 Red. masses --      2.1586                 2.2516                 3.6336
 Frc consts  --      0.1841                 0.2813                 0.5260
 IR Inten    --      2.8051                 7.4974                 9.8193

                     10                     11                     12
                      A                      A                      A
 Frequencies --    708.8396               728.5865               769.6286
 Red. masses --      3.8178                 5.3982                 1.3510
 Frc consts  --      1.1302                 1.6884                 0.4715
 IR Inten    --      3.5989                 3.0094                 1.1118

                     13                     14                     15
                      A                      A                      A
 Frequencies --    789.5820               854.8444               879.4482
 Red. masses --      3.7222                 1.9494                 2.6087
 Frc consts  --      1.3673                 0.8393                 1.1888
 IR Inten    --     11.3761                24.5407                 4.7638

                     16                     17                     18
                      A                      A                      A
 Frequencies --    901.1379               919.3007               947.6431
 Red. masses --      2.2029                 2.2141                 3.3455
 Frc consts  --      1.0540                 1.1024                 1.7701
 IR Inten    --     17.7681                 0.9586                18.6015

                     19                     20                     21
                      A                      A                      A
 Frequencies --    953.5690               969.3475              1018.2571
 Red. masses --      2.3385                 2.8154                 1.6308
 Frc consts  --      1.2528                 1.5586                 0.9962
 IR Inten    --      6.9091                 9.5150                 5.8613

                     22                     23                     24
                      A                      A                      A
 Frequencies --   1041.4753              1092.1757              1106.7455
 Red. masses --      1.7375                 1.2875                 1.9365
 Frc consts  --      1.1104                 0.9049                 1.3976
 IR Inten    --      2.4370                 0.4203                 1.4691

                     25                     26                     27
                      A                      A                      A
 Frequencies --   1152.9984              1159.0264              1167.3909
 Red. masses --      1.6184                 1.3736                 1.4897
 Frc consts  --      1.2676                 1.0872                 1.1961
 IR Inten    --      5.7671                 1.4102                 8.2924

                     28                     29                     30
                      A                      A                      A
 Frequencies --   1187.7966              1210.2393              1218.6958
 Red. masses --      1.8366                 1.1723                 1.4347
 Frc consts  --      1.5267                 1.0117                 1.2554
 IR Inten    --      8.4446                 0.4985                 6.1496

                     31                     32                     33
                      A                      A                      A
 Frequencies --   1249.4257              1259.6418              1292.5180
 Red. masses --      1.2623                 1.5196                 1.5803
 Frc consts  --      1.1610                 1.4206                 1.5554
 IR Inten    --      6.3901                 2.5523                 3.5854

                     34                     35                     36
                      A                      A                      A
 Frequencies --   1307.0238              1323.4523              1440.4719
 Red. masses --      1.8379                 1.4467                 1.5990
 Frc consts  --      1.8499                 1.4929                 1.9548
 IR Inten    --     12.3244                 7.9919                 2.0151

                     37                     38                     39
                      A                      A                      A
 Frequencies --   1448.2755              1460.2214              1464.0355
 Red. masses --      1.5531                 1.6754                 1.0909
 Frc consts  --      1.9194                 2.1047                 1.3777
 IR Inten    --     11.7433                12.2403                 0.2287

                     40                     41                     42
                      A                      A                      A
 Frequencies --   1493.2950              1530.4998              3033.5244
 Red. masses --      1.4699                 1.3584                 1.0588
 Frc consts  --      1.9312                 1.8748                 5.7406
 IR Inten    --      3.8793                 2.8987                14.8074

                     43                     44                     45
                      A                      A                      A
 Frequencies --   3065.9106              3075.9038              3079.8639
 Red. masses --      1.0568                 1.0606                 1.0819
 Frc consts  --      5.8527                 5.9122                 6.0464
 IR Inten    --     38.7795                16.8550                15.9068

                     46                     47                     48
                      A                      A                      A
 Frequencies --   3081.5013              3112.1413              3117.8494
 Red. masses --      1.0675                 1.0900                 1.1089
 Frc consts  --      5.9724                 6.2201                 6.3509
 IR Inten    --     26.3804                19.0098                 2.9192

                     49                     50                     51
                      A                      A                      A
 Frequencies --   3135.5630              3167.2284              3175.2769
 Red. masses --      1.1081                 1.1191                 1.0939
 Frc consts  --      6.4187                 6.6139                 6.4983
 IR Inten    --     29.1189                29.1546                23.4201

 - Thermochemistry -
 -------------------
 Temperature   298.150 Kelvin.  Pressure   1.00000 Atm.
 Atom     1 has atomic number  6 and mass  12.00000

 Molecular mass:   126.06808 amu.
 Principal axes and moments of inertia in atomic units:
                           1         2         3
     Eigenvalues --   416.195161844.826022023.67757
           X            0.99973  -0.02305  -0.00100
           Y            0.02301   0.99925  -0.03120
           Z            0.00172   0.03116   0.99951
 This molecule is an asymmetric top.
 Rotational symmetry number  1.
 Rotational temperatures (Kelvin)      0.20811     0.04695     0.04280
 Rotational constants (GHZ):           4.33629     0.97827     0.89181
 Zero-point vibrational energy     415950.6 (Joules/Mol)
                                   99.41459 (Kcal/Mol)
 Warning -- explicit consideration of   9 degrees of freedom as
           vibrations may cause significant error
 Vibrational temperatures:     84.55    96.72   175.29   343.56   412.10
          (Kelvin)            491.39   547.34   662.57   713.14  1019.86
                             1048.27  1107.32  1136.03  1229.93  1265.33
                             1296.53  1322.67  1363.45  1371.97  1394.67
                             1465.04  1498.45  1571.40  1592.36  1658.91
                             1667.58  1679.61  1708.97  1741.26  1753.43
                             1797.64  1812.34  1859.64  1880.51  1904.15
                             2072.52  2083.74  2100.93  2106.42  2148.52
                             2202.05  4364.56  4411.16  4425.53  4431.23
                             4433.59  4477.67  4485.88  4511.37  4556.93
                             4568.51

 Zero-point correction=                           0.158427 (Hartree/Particle)
 Thermal correction to Energy=                    0.166745
 Thermal correction to Enthalpy=                  0.167689
 Thermal correction to Gibbs Free Energy=         0.124571
 Sum of electronic and zero-point Energies=           -422.964949
 Sum of electronic and thermal Energies=              -422.956632
 Sum of electronic and thermal Enthalpies=            -422.955688
 Sum of electronic and thermal Free Energies=         -422.998806

                     E (Thermal)             CV                S
                      KCal/Mol        Cal/Mol-Kelvin    Cal/Mol-Kelvin
 Total                  104.634             31.153             90.750
 Electronic               0.000              0.000              0.000
 Translational            0.889              2.981             40.409
 Rotational               0.889              2.981             28.831
 Vibrational            102.856             25.192             21.510
 Vibration     1          0.596              1.974              4.498
 Vibration     2          0.598              1.970              4.233
 Vibration     3          0.609              1.931              3.071
 Vibration     4          0.657              1.781              1.812
 Vibration     5          0.684              1.699              1.495
 Vibration     6          0.721              1.592              1.205
 Vibration     7          0.750              1.512              1.037
 Vibration     8          0.818              1.338              0.765
 Vibration     9          0.851              1.260              0.669

 Optimization completed.
    -- Stationary point found.
 Normal termination of Gaussian 09 at Mon Jan 27 11:59:46 2020.
