 Gaussian 09, Revision D.01,
 Gaussian 09:  ES64L-G09RevD.01 24-Apr-2013

 -----------------------------
 # b3lyp 6-31G(2df,p) opt Freq
 -----------------------------

 -----
 titel
 -----
 Symbolic Z-matrix:
 Charge =  0 Multiplicity = 1

 SCF Done:  E(RB3LYP) =  -423.134541724     A.U. after   12 cycles
 Optimization completed.
    -- Stationary point found.
 Normal termination of Gaussian 09 at Mon Jan 27 17:56:14 2020.

 ----------------------------------------------------------------------
 #N Geom=AllCheck Guess=TCheck SCRF=Check GenChk RB3LYP/6-31G(2df,p) Fr
 eq
 ----------------------------------------------------------------------

 Structure from the checkpoint file:  "/scratch/puck/g09_14da34ef-c4bf-4618-8003-84f853be1cdf/Gau-180649.chk"
 -----
 titel
 -----
 Charge =  0 Multiplicity = 1

                         Standard orientation:
 ---------------------------------------------------------------------
 Center     Atomic      Atomic             Coordinates (Angstroms)
 Number     Number       Type             X           Y           Z
 ---------------------------------------------------------------------
      1          6           0        2.035022   -1.423522    0.037412
      2          6           0        0.714973   -0.717569   -0.047966
      3          6           0       -0.578972   -1.241809   -0.681264
      4          6           0       -1.278687   -0.056910    0.032031
      5          8           0       -2.629443   -0.048110    0.329335
      6          6           0       -0.723990    1.197155   -0.683413
      7          6           0        0.609448    0.812415   -0.048310
      8          8           0        1.771265    1.556795   -0.015657
      9          6           0       -0.047432    0.006334    1.053869
     10          1           0        1.935017   -2.396647    0.531131
     11          1           0        2.454219   -1.597178   -0.960565
     12          1           0        2.758475   -0.825273    0.597637
     13          1           0       -0.663158   -1.299406   -1.773502
     14          1           0       -0.859580   -2.204876   -0.236983
     15          1           0       -2.859118   -0.897692    0.720819
     16          1           0       -0.811021    1.239966   -1.774946
     17          1           0       -1.134747    2.106937   -0.233543
     18          1           0        1.610678    2.343840    0.516203
     19          1           0        0.052489    0.004273    2.130174
 ---------------------------------------------------------------------

 SCF Done:  E(RB3LYP) =  -423.134541724     A.U. after    1 cycles

 The electronic state is 1-A.
 Alpha  occ. eigenvalues --  -19.14933 -19.14602 -10.24373 -10.23566 -10.19383
 Alpha  occ. eigenvalues --  -10.17910 -10.17656 -10.17573 -10.17309  -1.03748
 Alpha  occ. eigenvalues --   -1.03068  -0.91555  -0.74438  -0.70513  -0.68183
 Alpha  occ. eigenvalues --   -0.61356  -0.56235  -0.53399  -0.51392  -0.47728
 Alpha  occ. eigenvalues --   -0.46040  -0.43643  -0.41699  -0.40836  -0.39243
 Alpha  occ. eigenvalues --   -0.38820  -0.37624  -0.36689  -0.35443  -0.31416
 Alpha  occ. eigenvalues --   -0.28372  -0.27411  -0.24391  -0.22938
 Alpha virt. eigenvalues --    0.07431   0.07657   0.11062   0.12420   0.13252
 Alpha virt. eigenvalues --    0.14047   0.14453   0.15274   0.16240   0.17172
 Alpha virt. eigenvalues --    0.18243   0.19449   0.21055   0.21273   0.22607

 Mulliken charges:
               1
     1  C   -0.499824
     2  C    0.303065
     3  C   -0.348905
     4  C    0.395878
     5  O   -0.473601
     6  C   -0.334171
     7  C    0.360125
     8  O   -0.462605
     9  C   -0.320378
    10  H    0.111077
    11  H    0.120404
    12  H    0.131683
    13  H    0.090014
    14  H    0.083237
    15  H    0.280363
    16  H    0.092076
    17  H    0.095855
    18  H    0.286206
    19  H    0.089500
 Sum of Mulliken charges =   0.00000

 Dipole moment (field-independent basis, Debye):
    X=             -0.1710    Y=             -0.5633    Z=              1.2025  Tot=              1.3388
 Quadrupole moment (field-independent basis, Debye-Ang):
   XX=            -57.7614   YY=            -47.7760   ZZ=            -51.5883
   XY=              3.6458   XZ=              0.2851   YZ=              1.0121

  Exact polarizability:  80.503  -0.576  78.924   0.466   0.447  67.118
 Approx polarizability: 111.796   1.844 113.473  -2.482   0.433 106.091

                      1                      2                      3
                      A                      A                      A
 Frequencies --    181.9436               202.9303               227.7696
 Red. masses --      1.0697                 2.6187                 2.8891
 Frc consts  --      0.0209                 0.0635                 0.0883
 IR Inten    --      0.4241                 0.5525                 9.6532

                      4                      5                      6
                      A                      A                      A
 Frequencies --    245.8283               288.7999               306.5801
 Red. masses --      2.3463                 1.5797                 1.8971
 Frc consts  --      0.0835                 0.0776                 0.1051
 IR Inten    --     10.6886                14.2902                27.5581

                      7                      8                      9
                      A                      A                      A
 Frequencies --    333.8212               388.1031               450.0318
 Red. masses --      1.4536                 2.3228                 2.2635
 Frc consts  --      0.0954                 0.2061                 0.2701
 IR Inten    --    131.7205                 6.6061                 0.5570

                     10                     11                     12
                      A                      A                      A
 Frequencies --    459.6257               475.8210               588.2419
 Red. masses --      2.7439                 2.3415                 5.9601
 Frc consts  --      0.3415                 0.3123                 1.2151
 IR Inten    --      2.8446                 0.6144                 6.2553

                     13                     14                     15
                      A                      A                      A
 Frequencies --    613.7486               662.0793               737.0286
 Red. masses --      3.8901                 2.9413                 3.1165
 Frc consts  --      0.8634                 0.7596                 0.9974
 IR Inten    --     10.9102                 4.0206                 3.5187

                     16                     17                     18
                      A                      A                      A
 Frequencies --    759.8861               859.1384               890.3273
 Red. masses --      2.5801                 1.6412                 3.0445
 Frc consts  --      0.8778                 0.7137                 1.4219
 IR Inten    --      1.0639                 3.1737                 2.1267

                     19                     20                     21
                      A                      A                      A
 Frequencies --    897.3056               951.1286               983.1884
 Red. masses --      2.1461                 1.9415                 2.7434
 Frc consts  --      1.0181                 1.0348                 1.5625
 IR Inten    --      4.8203                 1.3312                25.1047

                     22                     23                     24
                      A                      A                      A
 Frequencies --   1008.6439              1044.6118              1064.5414
 Red. masses --      1.4394                 1.7522                 1.8538
 Frc consts  --      0.8628                 1.1265                 1.2378
 IR Inten    --      5.2623                 5.0092                23.8869

                     25                     26                     27
                      A                      A                      A
 Frequencies --   1093.7348              1111.6176              1118.8226
 Red. masses --      1.3149                 2.3531                 1.5917
 Frc consts  --      0.9267                 1.7132                 1.1739
 IR Inten    --      7.9099                62.4257                 2.0023

                     28                     29                     30
                      A                      A                      A
 Frequencies --   1161.8589              1183.5635              1203.4469
 Red. masses --      1.7861                 1.9123                 1.5340
 Frc consts  --      1.4206                 1.5783                 1.3089
 IR Inten    --      3.9912                54.7023                 2.4959

                     31                     32                     33
                      A                      A                      A
 Frequencies --   1251.6942              1295.3825              1324.0534
 Red. masses --      2.8574                 1.5646                 2.3858
 Frc consts  --      2.6377                 1.5468                 2.4643
 IR Inten    --     20.2640               121.0189               153.8893

                     34                     35                     36
                      A                      A                      A
 Frequencies --   1360.0520              1397.2831              1417.4458
 Red. masses --      3.0388                 2.0583                 1.4223
 Frc consts  --      3.3118                 2.3677                 1.6837
 IR Inten    --     76.5351                 0.9609                 3.8430

                     37                     38                     39
                      A                      A                      A
 Frequencies --   1441.0018              1487.8542              1489.4111
 Red. masses --      2.9708                 1.0659                 1.1532
 Frc consts  --      3.6345                 1.3902                 1.5073
 IR Inten    --      7.3665                 3.7520                 3.6977

                     40                     41                     42
                      A                      A                      A
 Frequencies --   1497.0874              1516.9635              3014.1463
 Red. masses --      1.0707                 1.3068                 1.0555
 Frc consts  --      1.4139                 1.7717                 5.6501
 IR Inten    --      6.6428                 2.4105                49.5662

                     43                     44                     45
                      A                      A                      A
 Frequencies --   3026.6436              3033.1684              3067.9397
 Red. masses --      1.0378                 1.0568                 1.1077
 Frc consts  --      5.6015                 5.7286                 6.1426
 IR Inten    --     54.0134                37.2545                32.2949

                     46                     47                     48
                      A                      A                      A
 Frequencies --   3081.7310              3092.7284              3115.5167
 Red. masses --      1.1008                 1.1075                 1.0983
 Frc consts  --      6.1597                 6.2411                 6.2813
 IR Inten    --     27.9078                30.4905                13.0060

                     49                     50                     51
                      A                      A                      A
 Frequencies --   3217.2731              3797.5059              3806.5343
 Red. masses --      1.0966                 1.0660                 1.0657
 Frc consts  --      6.6876                 9.0578                 9.0979
 IR Inten    --      3.8479                23.0687                20.5673

 - Thermochemistry -
 -------------------
 Temperature   298.150 Kelvin.  Pressure   1.00000 Atm.
 Atom     1 has atomic number  6 and mass  12.00000

 Molecular mass:   126.06808 amu.
 Principal axes and moments of inertia in atomic units:
                           1         2         3
     Eigenvalues --   644.204771151.279711511.96537
           X            0.99930  -0.03632   0.00919
           Y            0.03628   0.99933   0.00431
           Z           -0.00934  -0.00397   0.99995
 This molecule is an asymmetric top.
 Rotational symmetry number  1.
 Warning -- assumption of classical behavior for rotation
           may cause significant error
 Rotational temperatures (Kelvin)      0.13445     0.07523     0.05729
 Rotational constants (GHZ):           2.80150     1.56760     1.19364
 Zero-point vibrational energy     414060.9 (Joules/Mol)
                                   98.96294 (Kcal/Mol)
 Warning -- explicit consideration of  13 degrees of freedom as
           vibrations may cause significant error
 Vibrational temperatures:    261.78   291.97   327.71   353.69   415.52
          (Kelvin)            441.10   480.29   558.39   647.49   661.30
                              684.60   846.35   883.05   952.58  1060.42
                             1093.31  1236.11  1280.98  1291.02  1368.46
                             1414.59  1451.21  1502.96  1531.64  1573.64
                             1599.37  1609.73  1671.65  1702.88  1731.49
                             1800.91  1863.76  1905.02  1956.81  2010.38
                             2039.39  2073.28  2140.69  2142.93  2153.97
                             2182.57  4336.68  4354.66  4364.05  4414.08
                             4433.92  4449.74  4482.53  4628.93  5463.76
                             5476.75

 Zero-point correction=                           0.157707 (Hartree/Particle)
 Thermal correction to Energy=                    0.166207
 Thermal correction to Enthalpy=                  0.167151
 Thermal correction to Gibbs Free Energy=         0.125546
 Sum of electronic and zero-point Energies=           -422.976834
 Sum of electronic and thermal Energies=              -422.968335
 Sum of electronic and thermal Enthalpies=            -422.967391
 Sum of electronic and thermal Free Energies=         -423.008996

                     E (Thermal)             CV                S
                      KCal/Mol        Cal/Mol-Kelvin    Cal/Mol-Kelvin
 Total                  104.296             34.204             87.566
 Electronic               0.000              0.000              0.000
 Translational            0.889              2.981             40.409
 Rotational               0.889              2.981             28.507
 Vibrational            102.519             28.243             18.650
 Vibration     1          0.630              1.864              2.308
 Vibration     2          0.639              1.836              2.106
 Vibration     3          0.651              1.799              1.896
 Vibration     4          0.660              1.770              1.760
 Vibration     5          0.685              1.695              1.481
 Vibration     6          0.697              1.661              1.381
 Vibration     7          0.715              1.608              1.242
 Vibration     8          0.756              1.496              1.007
 Vibration     9          0.809              1.361              0.796
 Vibration    10          0.818              1.340              0.767
 Vibration    11          0.832              1.304              0.721
 Vibration    12          0.945              1.057              0.470
 Vibration    13          0.973              1.003              0.427

 Normal termination of Gaussian 09 at Mon Jan 27 18:38:45 2020.
