 Gaussian 09, Revision D.01,
 Gaussian 09:  ES64L-G09RevD.01 24-Apr-2013

 -----------------------------
 # b3lyp 6-31G(2df,p) opt Freq
 -----------------------------

 -----
 titel
 -----
 Symbolic Z-matrix:
 Charge =  0 Multiplicity = 1

 SCF Done:  E(RB3LYP) =  -423.091206657     A.U. after   14 cycles
 Optimization completed.
    -- Stationary point found.
 Normal termination of Gaussian 09 at Tue Jan 28 14:09:17 2020.

 ----------------------------------------------------------------------
 #N Geom=AllCheck Guess=TCheck SCRF=Check GenChk RB3LYP/6-31G(2df,p) Fr
 eq
 ----------------------------------------------------------------------

 Structure from the checkpoint file:  "/scratch/puck/g09_63b6e369-4738-478c-8b61-3e9ca23380a0/Gau-3962.chk"
 -----
 titel
 -----
 Charge =  0 Multiplicity = 1

                         Standard orientation:
 ---------------------------------------------------------------------
 Center     Atomic      Atomic             Coordinates (Angstroms)
 Number     Number       Type             X           Y           Z
 ---------------------------------------------------------------------
      1          6           0        3.607412   -0.229905   -0.036180
      2          6           0        2.137845   -0.359408    0.369651
      3          6           0        1.192466    0.409195   -0.568171
      4          6           0       -0.241743    0.274618   -0.172856
      5          8           0       -0.739634    0.979624    0.967019
      6          6           0       -1.421197    1.136580   -0.278897
      7          6           0       -2.342226   -0.130711   -0.494237
      8          8           0       -2.185373   -0.992402    0.630467
      9          6           0       -1.175170   -1.002051   -0.375643
     10          1           0        4.257729   -0.783317    0.647878
     11          1           0        3.777530   -0.619676   -1.046236
     12          1           0        3.929588    0.817257   -0.027895
     13          1           0        1.850022   -1.418325    0.385750
     14          1           0        1.995667    0.011316    1.391098
     15          1           0        1.455826    1.473514   -0.574305
     16          1           0        1.314001    0.045446   -1.597759
     17          1           0       -1.554671    2.135594   -0.676220
     18          1           0       -3.243253   -0.208021   -1.089478
     19          1           0       -0.926699   -1.941474   -0.854723
 ---------------------------------------------------------------------

 SCF Done:  E(RB3LYP) =  -423.091206657     A.U. after    1 cycles

 The electronic state is 1-A.
 Alpha  occ. eigenvalues --  -19.15754 -19.15464 -10.24459 -10.24268 -10.24084
 Alpha  occ. eigenvalues --  -10.23954 -10.19441 -10.18606 -10.17758  -1.10717
 Alpha  occ. eigenvalues --   -1.05116  -0.79973  -0.75075  -0.71006  -0.64723
 Alpha  occ. eigenvalues --   -0.60843  -0.58749  -0.56209  -0.52319  -0.48756
 Alpha  occ. eigenvalues --   -0.46372  -0.45916  -0.42625  -0.41063  -0.39448
 Alpha  occ. eigenvalues --   -0.38743  -0.36871  -0.35676  -0.34379  -0.33944
 Alpha  occ. eigenvalues --   -0.33147  -0.29195  -0.25055  -0.24633
 Alpha virt. eigenvalues --    0.04535   0.08518   0.08960   0.11535   0.12076
 Alpha virt. eigenvalues --    0.12834   0.13582   0.13952   0.15253   0.16448
 Alpha virt. eigenvalues --    0.17504   0.17759   0.18847   0.18926   0.21692

 Mulliken charges:
               1
     1  C   -0.384354
     2  C   -0.162329
     3  C   -0.329243
     4  C    0.432747
     5  O   -0.261189
     6  C   -0.124286
     7  C   -0.010926
     8  O   -0.210049
     9  C   -0.065456
    10  H    0.116197
    11  H    0.112889
    12  H    0.117208
    13  H    0.100963
    14  H    0.120699
    15  H    0.112327
    16  H    0.101691
    17  H    0.110279
    18  H    0.112764
    19  H    0.110068
 Sum of Mulliken charges =   0.00000

 Dipole moment (field-independent basis, Debye):
    X=              0.9933    Y=              0.1991    Z=             -2.9999  Tot=              3.1663
 Quadrupole moment (field-independent basis, Debye-Ang):
   XX=            -51.9251   YY=            -51.7686   ZZ=            -55.0967
   XY=             -2.4941   XZ=              5.2363   YZ=             -0.1860

  Exact polarizability:  92.499  -2.680  71.815   2.555  -0.227  60.825
 Approx polarizability: 116.201  -6.047 110.253   1.403   0.061 101.264

                      1                      2                      3
                      A                      A                      A
 Frequencies --     69.8424                91.4745               108.0199
 Red. masses --      3.1815                 1.7389                 4.0802
 Frc consts  --      0.0091                 0.0086                 0.0281
 IR Inten    --      0.9495                 0.4157                 2.5767

                      4                      5                      6
                      A                      A                      A
 Frequencies --    244.5411               287.1592               295.5355
 Red. masses --      1.1400                 2.5984                 3.0277
 Frc consts  --      0.0402                 0.1262                 0.1558
 IR Inten    --      0.1106                 0.8766                 0.9868

                      7                      8                      9
                      A                      A                      A
 Frequencies --    331.8879               427.3508               488.0496
 Red. masses --      3.7290                 8.4458                 3.4796
 Frc consts  --      0.2420                 0.9088                 0.4883
 IR Inten    --      0.3218                 0.1941                 2.6595

                     10                     11                     12
                      A                      A                      A
 Frequencies --    646.3739               698.6401               738.8714
 Red. masses --      4.5696                 3.5347                 1.3841
 Frc consts  --      1.1248                 1.0165                 0.4452
 IR Inten    --     17.6947                17.7291                 0.6776

                     13                     14                     15
                      A                      A                      A
 Frequencies --    768.2047               782.4872               826.0572
 Red. masses --      3.2330                 3.0525                 3.5740
 Frc consts  --      1.1241                 1.1012                 1.4369
 IR Inten    --      3.5166                 5.3131                 1.9008

                     16                     17                     18
                      A                      A                      A
 Frequencies --    855.8432               860.4295               895.6674
 Red. masses --      1.6621                 2.3233                 1.8700
 Frc consts  --      0.7173                 1.0134                 0.8838
 IR Inten    --     13.4245                 1.8451                 9.9928

                     19                     20                     21
                      A                      A                      A
 Frequencies --    907.4888               948.5988               983.6363
 Red. masses --      1.9519                 2.2916                 2.9981
 Frc consts  --      0.9471                 1.2149                 1.7091
 IR Inten    --      1.1729                23.0525                23.7409

                     22                     23                     24
                      A                      A                      A
 Frequencies --    993.7156              1024.6561              1044.7118
 Red. masses --      2.0393                 1.2800                 2.9117
 Frc consts  --      1.1865                 0.7918                 1.8724
 IR Inten    --      4.1239                 1.4054                 2.1417

                     25                     26                     27
                      A                      A                      A
 Frequencies --   1073.0788              1119.6135              1167.9834
 Red. masses --      2.3600                 2.0885                 1.6171
 Frc consts  --      1.6011                 1.5425                 1.2997
 IR Inten    --      3.6614                 3.1819                 5.5143

                     28                     29                     30
                      A                      A                      A
 Frequencies --   1194.8190              1227.2866              1246.6252
 Red. masses --      1.2579                 1.5444                 1.4443
 Frc consts  --      1.0580                 1.3706                 1.3224
 IR Inten    --      8.2871                 4.0105                 1.5378

                     31                     32                     33
                      A                      A                      A
 Frequencies --   1280.4338              1303.0225              1332.7372
 Red. masses --      1.4354                 1.4024                 1.1188
 Frc consts  --      1.3865                 1.4029                 1.1708
 IR Inten    --      3.4489                 8.0837                 0.1573

                     34                     35                     36
                      A                      A                      A
 Frequencies --   1363.7594              1387.4810              1414.5823
 Red. masses --      4.7939                 1.5921                 1.2382
 Frc consts  --      5.2531                 1.8059                 1.4598
 IR Inten    --     17.1909                 2.4708                 0.5588

                     37                     38                     39
                      A                      A                      A
 Frequencies --   1461.8547              1479.3462              1492.8968
 Red. masses --      1.5026                 2.2360                 1.0949
 Frc consts  --      1.8919                 2.8831                 1.4378
 IR Inten    --      3.4510                 5.8488                 1.6167

                     40                     41                     42
                      A                      A                      A
 Frequencies --   1500.1340              1509.4530              3015.3348
 Red. masses --      1.0400                 1.0908                 1.0609
 Frc consts  --      1.3790                 1.4644                 5.6834
 IR Inten    --      5.7806                 4.1241                11.3844

                     43                     44                     45
                      A                      A                      A
 Frequencies --   3027.6338              3030.6332              3056.1370
 Red. masses --      1.0571                 1.0442                 1.0933
 Frc consts  --      5.7092                 5.6507                 6.0162
 IR Inten    --     10.1349                46.6017                 6.6766

                     46                     47                     48
                      A                      A                      A
 Frequencies --   3073.4086              3098.3846              3105.3892
 Red. masses --      1.1018                 1.1026                 1.1007
 Frc consts  --      6.1319                 6.2363                 6.2538
 IR Inten    --      8.6243                54.6473                32.1158

                     49                     50                     51
                      A                      A                      A
 Frequencies --   3185.9769              3191.3174              3205.6291
 Red. masses --      1.0884                 1.0935                 1.1022
 Frc consts  --      6.5092                 6.5616                 6.6732
 IR Inten    --      5.0239                16.6021                13.6700

 - Thermochemistry -
 -------------------
 Temperature   298.150 Kelvin.  Pressure   1.00000 Atm.
 Atom     1 has atomic number  6 and mass  12.00000

 Molecular mass:   126.06808 amu.
 Principal axes and moments of inertia in atomic units:
                           1         2         3
     Eigenvalues --   427.856871908.113312039.33947
           X            0.99992  -0.00872   0.00959
           Y            0.00895   0.99966  -0.02459
           Z           -0.00937   0.02468   0.99965
 This molecule is an asymmetric top.
 Rotational symmetry number  1.
 Rotational temperatures (Kelvin)      0.20244     0.04539     0.04247
 Rotational constants (GHZ):           4.21810     0.94582     0.88496
 Zero-point vibrational energy     411899.4 (Joules/Mol)
                                   98.44631 (Kcal/Mol)
 Warning -- explicit consideration of   9 degrees of freedom as
           vibrations may cause significant error
 Vibrational temperatures:    100.49   131.61   155.42   351.84   413.16
          (Kelvin)            425.21   477.51   614.86   702.19   929.99
                             1005.19  1063.07  1105.27  1125.82  1188.51
                             1231.37  1237.96  1288.66  1305.67  1364.82
                             1415.23  1429.73  1474.25  1503.11  1543.92
                             1610.87  1680.47  1719.08  1765.79  1793.61
                             1842.26  1874.76  1917.51  1962.14  1996.27
                             2035.27  2103.28  2128.45  2147.94  2158.36
                             2171.76  4338.39  4356.08  4360.40  4397.09
                             4421.94  4457.88  4467.96  4583.90  4591.59
                             4612.18

 Zero-point correction=                           0.156884 (Hartree/Particle)
 Thermal correction to Energy=                    0.165445
 Thermal correction to Enthalpy=                  0.166389
 Thermal correction to Gibbs Free Energy=         0.123120
 Sum of electronic and zero-point Energies=           -422.934322
 Sum of electronic and thermal Energies=              -422.925762
 Sum of electronic and thermal Enthalpies=            -422.924818
 Sum of electronic and thermal Free Energies=         -422.968087

                     E (Thermal)             CV                S
                      KCal/Mol        Cal/Mol-Kelvin    Cal/Mol-Kelvin
 Total                  103.818             32.336             91.067
 Electronic               0.000              0.000              0.000
 Translational            0.889              2.981             40.409
 Rotational               0.889              2.981             28.900
 Vibrational            102.041             26.374             21.758
 Vibration     1          0.598              1.969              4.158
 Vibration     2          0.602              1.955              3.628
 Vibration     3          0.606              1.943              3.304
 Vibration     4          0.660              1.772              1.770
 Vibration     5          0.684              1.698              1.491
 Vibration     6          0.690              1.682              1.442
 Vibration     7          0.714              1.612              1.251
 Vibration     8          0.789              1.411              0.867
 Vibration     9          0.844              1.277              0.689

 Optimization completed.
    -- Stationary point found.
 Normal termination of Gaussian 09 at Tue Jan 28 14:55:51 2020.
