 Gaussian 09, Revision D.01,
 Gaussian 09:  ES64L-G09RevD.01 24-Apr-2013

 -----------------------------
 # b3lyp 6-31G(2df,p) opt Freq
 -----------------------------

 -----
 titel
 -----
 Symbolic Z-matrix:
 Charge =  0 Multiplicity = 1

 SCF Done:  E(RB3LYP) =  -423.114434660     A.U. after   14 cycles
 Optimization completed.
    -- Stationary point found.
 Normal termination of Gaussian 09 at Mon Jan 27 22:00:32 2020.

 ----------------------------------------------------------------------
 #N Geom=AllCheck Guess=TCheck SCRF=Check GenChk RB3LYP/6-31G(2df,p) Fr
 eq
 ----------------------------------------------------------------------

 Structure from the checkpoint file:  "/scratch/puck/g09_244b3caa-0cea-4a1f-8e31-14af326be1c5/Gau-125535.chk"
 -----
 titel
 -----
 Charge =  0 Multiplicity = 1

                         Standard orientation:
 ---------------------------------------------------------------------
 Center     Atomic      Atomic             Coordinates (Angstroms)
 Number     Number       Type             X           Y           Z
 ---------------------------------------------------------------------
      1          8           0       -0.693978    1.854231   -0.584345
      2          6           0       -0.243725    0.758491    0.171279
      3          6           0        1.174555    0.895919    0.759964
      4          6           0        2.042480   -0.219939    0.063663
      5          6           0        1.145447   -0.962944   -0.988339
      6          6           0       -0.213913   -0.669514   -0.433989
      7          6           0       -1.749400   -0.646768   -0.607579
      8          6           0       -1.383587   -0.079510    0.805998
      9          8           0       -0.420808   -1.179398    0.960239
     10          1           0        0.044317    2.202990   -1.094065
     11          1           0        1.556902    1.899114    0.544746
     12          1           0        1.194584    0.774946    1.843454
     13          1           0        2.938867    0.195224   -0.405496
     14          1           0        2.375051   -0.939071    0.813881
     15          1           0        1.240330   -0.519832   -1.986596
     16          1           0        1.388230   -2.025655   -1.065692
     17          1           0       -2.164528    0.041293   -1.343677
     18          1           0       -2.240411   -1.619970   -0.585343
     19          1           0       -2.046191    0.137886    1.645660
 ---------------------------------------------------------------------

 SCF Done:  E(RB3LYP) =  -423.114434660     A.U. after    1 cycles

 The electronic state is 1-A.
 Alpha  occ. eigenvalues --  -19.14573 -19.12725 -10.24277 -10.23437 -10.23390
 Alpha  occ. eigenvalues --  -10.19083 -10.18872 -10.18642 -10.18393  -1.06040
 Alpha  occ. eigenvalues --   -1.02186  -0.81088  -0.76854  -0.71852  -0.65566
 Alpha  occ. eigenvalues --   -0.62390  -0.58078  -0.54391  -0.49428  -0.48056
 Alpha  occ. eigenvalues --   -0.46788  -0.45199  -0.41299  -0.40661  -0.39772
 Alpha  occ. eigenvalues --   -0.36863  -0.35195  -0.34528  -0.33478  -0.32564
 Alpha  occ. eigenvalues --   -0.31345  -0.30942  -0.25875  -0.22946
 Alpha virt. eigenvalues --    0.06380   0.08272   0.10740   0.11574   0.13076
 Alpha virt. eigenvalues --    0.13862   0.14719   0.14930   0.15536   0.16257
 Alpha virt. eigenvalues --    0.17416   0.18155   0.19220   0.20119   0.22407

 Mulliken charges:
               1
     1  O   -0.483450
     2  C    0.432521
     3  C   -0.325163
     4  C   -0.192248
     5  C   -0.364214
     6  C    0.371596
     7  C   -0.324215
     8  C   -0.005330
     9  O   -0.352226
    10  H    0.279866
    11  H    0.090260
    12  H    0.123918
    13  H    0.095225
    14  H    0.123742
    15  H    0.104249
    16  H    0.115938
    17  H    0.114951
    18  H    0.105023
    19  H    0.089556
 Sum of Mulliken charges =   0.00000

 Dipole moment (field-independent basis, Debye):
    X=              1.2061    Y=              0.8531    Z=             -1.3021  Tot=              1.9693
 Quadrupole moment (field-independent basis, Debye-Ang):
   XX=            -51.5830   YY=            -54.8817   ZZ=            -51.8938
   XY=              2.4513   XZ=             -1.7251   YZ=              0.8279

  Exact polarizability:  83.571   2.234  71.489  -1.421   0.963  68.925
 Approx polarizability: 113.936  -0.281 109.881  -3.065  -3.985 108.204

                      1                      2                      3
                      A                      A                      A
 Frequencies --    107.1180               210.8499               263.0295
 Red. masses --      1.8471                 2.6668                 1.1138
 Frc consts  --      0.0125                 0.0699                 0.0454
 IR Inten    --      0.3701                 0.8624                69.3934

                      4                      5                      6
                      A                      A                      A
 Frequencies --    299.1339               333.5761               397.2544
 Red. masses --      3.2204                 3.2646                 3.3253
 Frc consts  --      0.1698                 0.2140                 0.3092
 IR Inten    --     25.4341                 8.4996                 7.4875

                      7                      8                      9
                      A                      A                      A
 Frequencies --    465.6852               519.9605               604.2085
 Red. masses --      3.2094                 2.6416                 3.2736
 Frc consts  --      0.4101                 0.4208                 0.7041
 IR Inten    --      2.1165                 3.5120                 5.4736

                     10                     11                     12
                      A                      A                      A
 Frequencies --    611.4759               671.9904               729.9483
 Red. masses --      5.1273                 2.4547                 2.4161
 Frc consts  --      1.1295                 0.6531                 0.7585
 IR Inten    --      1.6657                 7.9095                 5.6637

                     13                     14                     15
                      A                      A                      A
 Frequencies --    764.2711               784.0643               840.0868
 Red. masses --      3.0184                 3.1909                 2.3659
 Frc consts  --      1.0388                 1.1558                 0.9838
 IR Inten    --      5.0994                12.3521                15.4789

                     16                     17                     18
                      A                      A                      A
 Frequencies --    857.1045               880.0179               928.2352
 Red. masses --      2.5062                 2.5335                 2.9721
 Frc consts  --      1.0848                 1.1560                 1.5088
 IR Inten    --      5.7702                 2.5438                 1.1785

                     19                     20                     21
                      A                      A                      A
 Frequencies --    966.0719               985.3842               993.2576
 Red. masses --      2.7041                 2.3731                 2.7098
 Frc consts  --      1.4869                 1.3576                 1.5751
 IR Inten    --      5.5130                 3.0144                 2.5487

                     22                     23                     24
                      A                      A                      A
 Frequencies --   1012.7806              1048.0806              1095.0395
 Red. masses --      1.5205                 2.0743                 1.2753
 Frc consts  --      0.9189                 1.3425                 0.9010
 IR Inten    --      9.6007                 7.3387                 1.1644

                     25                     26                     27
                      A                      A                      A
 Frequencies --   1109.6170              1147.6042              1184.1250
 Red. masses --      2.1465                 1.7012                 1.5098
 Frc consts  --      1.5571                 1.3201                 1.2473
 IR Inten    --     37.6262                11.2889                10.6411

                     28                     29                     30
                      A                      A                      A
 Frequencies --   1196.2889              1209.4181              1227.4073
 Red. masses --      1.6932                 1.4537                 1.5869
 Frc consts  --      1.4277                 1.2528                 1.4086
 IR Inten    --     33.0183                28.7170                 2.0484

                     31                     32                     33
                      A                      A                      A
 Frequencies --   1235.3222              1247.5230              1273.7294
 Red. masses --      1.6004                 1.4205                 1.4869
 Frc consts  --      1.4390                 1.3025                 1.4213
 IR Inten    --     70.8267                 2.8780                 3.6206

                     34                     35                     36
                      A                      A                      A
 Frequencies --   1304.3497              1323.9174              1361.0531
 Red. masses --      1.3683                 1.5926                 2.3712
 Frc consts  --      1.3716                 1.6446                 2.5880
 IR Inten    --     24.3344                12.0066                 6.9108

                     37                     38                     39
                      A                      A                      A
 Frequencies --   1387.7540              1473.0132              1477.4041
 Red. masses --      1.9319                 1.1130                 1.1311
 Frc consts  --      2.1920                 1.4228                 1.4546
 IR Inten    --     16.8635                 2.9956                 3.7209

                     40                     41                     42
                      A                      A                      A
 Frequencies --   1481.4999              1498.6393              3043.6873
 Red. masses --      1.1829                 1.1053                 1.0637
 Frc consts  --      1.5297                 1.4625                 5.8060
 IR Inten    --      1.8952                 2.5090                21.5385

                     43                     44                     45
                      A                      A                      A
 Frequencies --   3053.2831              3069.0301              3085.2084
 Red. masses --      1.0677                 1.0638                 1.0561
 Frc consts  --      5.8643                 5.9033                 5.9227
 IR Inten    --     28.4671                49.4759                29.5088

                     46                     47                     48
                      A                      A                      A
 Frequencies --   3097.6680              3103.9444              3112.5877
 Red. masses --      1.0999                 1.0902                 1.0990
 Frc consts  --      6.2182                 6.1885                 6.2730
 IR Inten    --     11.0199                62.1415                 7.1008

                     49                     50                     51
                      A                      A                      A
 Frequencies --   3129.1847              3167.6358              3813.5813
 Red. masses --      1.1007                 1.1129                 1.0660
 Frc consts  --      6.3503                 6.5792                 9.1342
 IR Inten    --     27.0424                16.0275                16.2456

 - Thermochemistry -
 -------------------
 Temperature   298.150 Kelvin.  Pressure   1.00000 Atm.
 Atom     1 has atomic number  8 and mass  15.99491

 Molecular mass:   126.06808 amu.
 Principal axes and moments of inertia in atomic units:
                           1         2         3
     Eigenvalues --   723.20693 924.444701152.60503
           X            0.99930   0.03682   0.00588
           Y           -0.03709   0.99782   0.05467
           Z           -0.00386  -0.05485   0.99849
 This molecule is an asymmetric top.
 Rotational symmetry number  1.
 Warning -- assumption of classical behavior for rotation
           may cause significant error
 Rotational temperatures (Kelvin)      0.11976     0.09369     0.07515
 Rotational constants (GHZ):           2.49547     1.95224     1.56579
 Zero-point vibrational energy     419788.2 (Joules/Mol)
                                  100.33178 (Kcal/Mol)
 Warning -- explicit consideration of  10 degrees of freedom as
           vibrations may cause significant error
 Vibrational temperatures:    154.12   303.37   378.44   430.39   479.94
          (Kelvin)            571.56   670.02   748.11   869.32   879.78
                              966.84  1050.23  1099.61  1128.09  1208.70
                             1233.18  1266.15  1335.52  1389.96  1417.75
                             1429.07  1457.16  1507.95  1575.52  1596.49
                             1651.14  1703.69  1721.19  1740.08  1765.96
                             1777.35  1794.91  1832.61  1876.67  1904.82
                             1958.25  1996.67  2119.33  2125.65  2131.55
                             2156.21  4379.18  4392.99  4415.64  4438.92
                             4456.85  4465.88  4478.31  4502.19  4557.52
                             5486.89

 Zero-point correction=                           0.159889 (Hartree/Particle)
 Thermal correction to Energy=                    0.167396
 Thermal correction to Enthalpy=                  0.168340
 Thermal correction to Gibbs Free Energy=         0.128357
 Sum of electronic and zero-point Energies=           -422.954546
 Sum of electronic and thermal Energies=              -422.947039
 Sum of electronic and thermal Enthalpies=            -422.946094
 Sum of electronic and thermal Free Energies=         -422.986078

                     E (Thermal)             CV                S
                      KCal/Mol        Cal/Mol-Kelvin    Cal/Mol-Kelvin
 Total                  105.043             30.822             84.151
 Electronic               0.000              0.000              0.000
 Translational            0.889              2.981             40.409
 Rotational               0.889              2.981             28.135
 Vibrational            103.265             24.860             15.608
 Vibration     1          0.606              1.944              3.320
 Vibration     2          0.643              1.824              2.036
 Vibration     3          0.670              1.741              1.642
 Vibration     4          0.692              1.675              1.422
 Vibration     5          0.715              1.608              1.243
 Vibration     6          0.764              1.476              0.973
 Vibration     7          0.823              1.326              0.750
 Vibration     8          0.875              1.206              0.610
 Vibration     9          0.963              1.023              0.442
 Vibration    10          0.971              1.008              0.430

 Optimization completed.
    -- Stationary point found.
 Normal termination of Gaussian 09 at Mon Jan 27 22:45:49 2020.
