 Gaussian 09, Revision D.01,
 Gaussian 09:  ES64L-G09RevD.01 24-Apr-2013

 -----------------------------
 # b3lyp 6-31G(2df,p) opt Freq
 -----------------------------

 -----
 titel
 -----
 Symbolic Z-matrix:
 Charge =  0 Multiplicity = 1

 SCF Done:  E(RB3LYP) =  -423.149535388     A.U. after   13 cycles
 Optimization completed.
    -- Stationary point found.
 Normal termination of Gaussian 09 at Tue Jan 28 01:57:57 2020.

 ----------------------------------------------------------------------
 #N Geom=AllCheck Guess=TCheck SCRF=Check GenChk RB3LYP/6-31G(2df,p) Fr
 eq
 ----------------------------------------------------------------------

 Structure from the checkpoint file:  "/scratch/puck/g09_998c7ed8-cf23-456d-b04d-d9cada3ebee0/Gau-64381.chk"
 -----
 titel
 -----
 Charge =  0 Multiplicity = 1

                         Standard orientation:
 ---------------------------------------------------------------------
 Center     Atomic      Atomic             Coordinates (Angstroms)
 Number     Number       Type             X           Y           Z
 ---------------------------------------------------------------------
      1          8           0       -2.605143   -0.802096   -0.328717
      2          6           0       -1.889570    0.385840   -0.203902
      3          6           0       -1.262369    0.768350    1.128193
      4          6           0       -0.405781    0.310170   -0.032566
      5          6           0        0.640314    1.173002   -0.737078
      6          6           0        1.915462    0.355630   -0.588245
      7          6           0        2.266827   -0.129535    0.809471
      8          6           0        1.471252   -1.001184   -0.124222
      9          8           0        0.072434   -1.026727    0.030243
     10          1           0       -1.951615   -1.510614   -0.395943
     11          1           0       -2.296691    1.184802   -0.819572
     12          1           0       -1.239825    1.816075    1.413379
     13          1           0       -1.393768    0.060256    1.939498
     14          1           0        0.401708    1.293879   -1.800167
     15          1           0        0.703927    2.170385   -0.291881
     16          1           0        2.705337    0.480582   -1.319078
     17          1           0        3.299116   -0.409000    0.990729
     18          1           0        1.759702    0.311400    1.660828
     19          1           0        1.856968   -1.940835   -0.499907
 ---------------------------------------------------------------------

 SCF Done:  E(RB3LYP) =  -423.149535388     A.U. after    1 cycles

 The electronic state is 1-A.
 Alpha  occ. eigenvalues --  -19.15634 -19.13085 -10.24083 -10.24051 -10.22999
 Alpha  occ. eigenvalues --  -10.19791 -10.19605 -10.18873 -10.17668  -1.06115
 Alpha  occ. eigenvalues --   -1.01516  -0.85651  -0.83769  -0.72969  -0.62728
 Alpha  occ. eigenvalues --   -0.60163  -0.58566  -0.55855  -0.53641  -0.48881
 Alpha  occ. eigenvalues --   -0.47553  -0.45126  -0.44217  -0.41288  -0.40240
 Alpha  occ. eigenvalues --   -0.38497  -0.38042  -0.36211  -0.35578  -0.33333
 Alpha  occ. eigenvalues --   -0.29287  -0.28583  -0.24064  -0.22674
 Alpha virt. eigenvalues --    0.07512   0.09290   0.11029   0.11745   0.11937
 Alpha virt. eigenvalues --    0.13330   0.13701   0.15679   0.15850   0.16963
 Alpha virt. eigenvalues --    0.18527   0.19373   0.20768   0.21635   0.22579

 Mulliken charges:
               1
     1  O   -0.437216
     2  C    0.060808
     3  C   -0.378175
     4  C    0.375730
     5  C   -0.317004
     6  C   -0.072764
     7  C   -0.320212
     8  C    0.107559
     9  O   -0.308210
    10  H    0.297827
    11  H    0.097622
    12  H    0.107303
    13  H    0.123070
    14  H    0.111945
    15  H    0.111464
    16  H    0.094001
    17  H    0.114517
    18  H    0.127933
    19  H    0.103801
 Sum of Mulliken charges =   0.00000

 Dipole moment (field-independent basis, Debye):
    X=              2.5832    Y=              0.9056    Z=             -0.3607  Tot=              2.7610
 Quadrupole moment (field-independent basis, Debye-Ang):
   XX=            -57.4699   YY=            -50.6922   ZZ=            -52.2423
   XY=             -3.1127   XZ=             -1.0914   YZ=              0.2145

  Exact polarizability:  85.260  -2.948  70.450   0.389   0.305  68.018
 Approx polarizability: 111.331  -0.905 107.770   1.705   1.414 102.624

                      1                      2                      3
                      A                      A                      A
 Frequencies --     75.4672               166.5886               212.5197
 Red. masses --      3.9241                 4.2888                 4.0267
 Frc consts  --      0.0132                 0.0701                 0.1072
 IR Inten    --      0.4062                 1.7967                 3.5398

                      4                      5                      6
                      A                      A                      A
 Frequencies --    303.9989               311.3757               359.8859
 Red. masses --      1.5735                 1.9464                 1.9405
 Frc consts  --      0.0857                 0.1112                 0.1481
 IR Inten    --     29.9779                10.0584                20.0637

                      7                      8                      9
                      A                      A                      A
 Frequencies --    432.5936               453.2371               490.1228
 Red. masses --      2.2884                 2.4002                 2.8649
 Frc consts  --      0.2523                 0.2905                 0.4055
 IR Inten    --      7.3733                 1.9217                 2.0103

                     10                     11                     12
                      A                      A                      A
 Frequencies --    624.1027               678.4252               753.0459
 Red. masses --      3.3256                 3.5851                 3.2644
 Frc consts  --      0.7632                 0.9722                 1.0907
 IR Inten    --     13.4366                 1.5058                 3.6789

                     13                     14                     15
                      A                      A                      A
 Frequencies --    777.9935               808.4804               831.0997
 Red. masses --      2.3660                 1.4394                 2.5890
 Frc consts  --      0.8437                 0.5543                 1.0536
 IR Inten    --     15.1471                15.4321                16.3435

                     16                     17                     18
                      A                      A                      A
 Frequencies --    871.4050               898.1504               918.4743
 Red. masses --      1.8773                 1.8211                 1.9721
 Frc consts  --      0.8399                 0.8655                 0.9802
 IR Inten    --      9.2985                 6.1481                13.1750

                     19                     20                     21
                      A                      A                      A
 Frequencies --    962.0343               999.8121              1009.0610
 Red. masses --      2.6124                 2.3430                 2.0495
 Frc consts  --      1.4245                 1.3799                 1.2295
 IR Inten    --      9.1684                22.6465                 8.2706

                     22                     23                     24
                      A                      A                      A
 Frequencies --   1021.6791              1040.5760              1073.8792
 Red. masses --      1.4152                 1.4790                 1.8407
 Frc consts  --      0.8704                 0.9435                 1.2507
 IR Inten    --      4.1865                11.8747                 9.9202

                     25                     26                     27
                      A                      A                      A
 Frequencies --   1087.5232              1097.6131              1104.2341
 Red. masses --      1.3203                 1.3439                 1.6715
 Frc consts  --      0.9200                 0.9540                 1.2008
 IR Inten    --      3.9625                 3.1175                 4.3464

                     28                     29                     30
                      A                      A                      A
 Frequencies --   1149.6686              1161.9940              1198.2499
 Red. masses --      2.8188                 2.4662                 1.7635
 Frc consts  --      2.1951                 1.9620                 1.4919
 IR Inten    --    101.9706                85.4203                18.6105

                     31                     32                     33
                      A                      A                      A
 Frequencies --   1201.2873              1216.4873              1279.4537
 Red. masses --      2.2331                 1.4292                 1.5156
 Frc consts  --      1.8986                 1.2461                 1.4618
 IR Inten    --     23.4996                17.9393                11.3361

                     34                     35                     36
                      A                      A                      A
 Frequencies --   1316.8642              1342.3320              1376.3365
 Red. masses --      1.5534                 1.6865                 1.5984
 Frc consts  --      1.5872                 1.7904                 1.7839
 IR Inten    --      4.2134                 1.9074                63.7242

                     37                     38                     39
                      A                      A                      A
 Frequencies --   1390.2793              1419.4673              1473.4120
 Red. masses --      1.6799                 1.1608                 1.3625
 Frc consts  --      1.9131                 1.3781                 1.7428
 IR Inten    --      8.7201                36.5008                28.4815

                     40                     41                     42
                      A                      A                      A
 Frequencies --   1483.7626              1497.0690              3036.2242
 Red. masses --      1.8692                 1.1279                 1.0619
 Frc consts  --      2.4246                 1.4894                 5.7678
 IR Inten    --     25.9739                 0.5088                29.8327

                     43                     44                     45
                      A                      A                      A
 Frequencies --   3082.7992              3118.9271              3130.5557
 Red. masses --      1.1020                 1.0545                 1.0890
 Frc consts  --      6.1707                 6.0440                 6.2883
 IR Inten    --     17.2076                 7.4118                23.3498

                     46                     47                     48
                      A                      A                      A
 Frequencies --   3133.5786              3178.9774              3191.7574
 Red. masses --      1.0539                 1.0899                 1.0953
 Frc consts  --      6.0973                 6.4896                 6.5744
 IR Inten    --      8.8560                11.1798                18.2433

                     49                     50                     51
                      A                      A                      A
 Frequencies --   3219.5849              3223.4404              3761.6695
 Red. masses --      1.1167                 1.1158                 1.0655
 Frc consts  --      6.8198                 6.8309                 8.8833
 IR Inten    --      6.2178                10.4438                46.2518

 - Thermochemistry -
 -------------------
 Temperature   298.150 Kelvin.  Pressure   1.00000 Atm.
 Atom     1 has atomic number  8 and mass  15.99491

 Molecular mass:   126.06808 amu.
 Principal axes and moments of inertia in atomic units:
                           1         2         3
     Eigenvalues --   489.538801426.140511544.26110
           X            0.99993  -0.01157  -0.00332
           Y            0.01155   0.99992  -0.00505
           Z            0.00338   0.00501   0.99998
 This molecule is an asymmetric top.
 Rotational symmetry number  1.
 Warning -- assumption of classical behavior for rotation
           may cause significant error
 Rotational temperatures (Kelvin)      0.17693     0.06073     0.05609
 Rotational constants (GHZ):           3.68662     1.26547     1.16868
 Zero-point vibrational energy     418379.3 (Joules/Mol)
                                   99.99505 (Kcal/Mol)
 Warning -- explicit consideration of   9 degrees of freedom as
           vibrations may cause significant error
 Vibrational temperatures:    108.58   239.68   305.77   437.39   448.00
          (Kelvin)            517.79   622.40   652.11   705.18   897.94
                              976.10  1083.46  1119.36  1163.22  1195.77
                             1253.76  1292.24  1321.48  1384.15  1438.50
                             1451.81  1469.97  1497.15  1545.07  1564.70
                             1579.22  1588.74  1654.11  1671.85  1724.01
                             1728.38  1750.25  1840.85  1894.67  1931.31
                             1980.24  2000.30  2042.29  2119.91  2134.80
                             2153.95  4368.44  4435.45  4487.43  4504.17
                             4508.52  4573.83  4592.22  4632.26  4637.81
                             5412.20

 Zero-point correction=                           0.159352 (Hartree/Particle)
 Thermal correction to Energy=                    0.167269
 Thermal correction to Enthalpy=                  0.168213
 Thermal correction to Gibbs Free Energy=         0.127015
 Sum of electronic and zero-point Energies=           -422.990183
 Sum of electronic and thermal Energies=              -422.982267
 Sum of electronic and thermal Enthalpies=            -422.981323
 Sum of electronic and thermal Free Energies=         -423.022520

                     E (Thermal)             CV                S
                      KCal/Mol        Cal/Mol-Kelvin    Cal/Mol-Kelvin
 Total                  104.963             31.628             86.707
 Electronic               0.000              0.000              0.000
 Translational            0.889              2.981             40.409
 Rotational               0.889              2.981             28.468
 Vibrational            103.185             25.666             17.830
 Vibration     1          0.599              1.965              4.005
 Vibration     2          0.624              1.884              2.474
 Vibration     3          0.644              1.822              2.022
 Vibration     4          0.695              1.666              1.395
 Vibration     5          0.700              1.652              1.355
 Vibration     6          0.734              1.555              1.123
 Vibration     7          0.793              1.399              0.850
 Vibration     8          0.812              1.354              0.786
 Vibration     9          0.846              1.272              0.683

 Optimization completed.
    -- Stationary point found.
 Normal termination of Gaussian 09 at Tue Jan 28 02:45:21 2020.
 Normal termination of Gaussian 09 at Tue Jan 28 01:49:02 2020.
