 Gaussian 09, Revision D.01,
 Gaussian 09:  ES64L-G09RevD.01 24-Apr-2013

 -----------------------------
 # b3lyp 6-31G(2df,p) opt Freq
 -----------------------------

 -----
 titel
 -----
 Symbolic Z-matrix:
 Charge =  0 Multiplicity = 1

 SCF Done:  E(RB3LYP) =  -423.179398962     A.U. after   14 cycles
 Optimization completed.
    -- Stationary point found.
 Normal termination of Gaussian 09 at Mon Jan 27 17:54:38 2020.

 ----------------------------------------------------------------------
 #N Geom=AllCheck Guess=TCheck SCRF=Check GenChk RB3LYP/6-31G(2df,p) Fr
 eq
 ----------------------------------------------------------------------

 Structure from the checkpoint file:  "/scratch/puck/g09_4012ef4f-d07d-4805-8d6b-ef190abf4eea/Gau-16446.chk"
 -----
 titel
 -----
 Charge =  0 Multiplicity = 1

                         Standard orientation:
 ---------------------------------------------------------------------
 Center     Atomic      Atomic             Coordinates (Angstroms)
 Number     Number       Type             X           Y           Z
 ---------------------------------------------------------------------
      1          6           0       -0.490481    2.098622   -0.398493
      2          6           0       -0.493958    0.634022   -0.065336
      3          8           0       -1.418647    0.226251    0.961789
      4          6           0       -1.561794   -0.322203   -0.382215
      5          6           0       -0.938564   -1.674158   -0.518482
      6          6           0        0.367003   -1.596910   -0.259876
      7          6           0        0.825142   -0.176555    0.067643
      8          6           0        1.950230    0.298383   -0.844572
      9          8           0        1.316638   -0.092816    1.401777
     10          1           0        0.102873    2.652601    0.337040
     11          1           0       -0.061901    2.283469   -1.387903
     12          1           0       -1.510340    2.490366   -0.379631
     13          1           0       -2.483918   -0.047786   -0.885690
     14          1           0       -1.500513   -2.572216   -0.744451
     15          1           0        1.061591   -2.428029   -0.205563
     16          1           0        2.255702    1.314083   -0.578869
     17          1           0        2.818244   -0.356630   -0.727688
     18          1           0        1.641791    0.279693   -1.893672
     19          1           0        0.547075   -0.250234    1.965887
 ---------------------------------------------------------------------

 SCF Done:  E(RB3LYP) =  -423.179398962     A.U. after    1 cycles

 The electronic state is 1-A.
 Alpha  occ. eigenvalues --  -19.15069 -19.13053 -10.24195 -10.23857 -10.23771
 Alpha  occ. eigenvalues --  -10.19100 -10.18699 -10.18497 -10.17771  -1.07069
 Alpha  occ. eigenvalues --   -1.01196  -0.81752  -0.75954  -0.72616  -0.65904
 Alpha  occ. eigenvalues --   -0.63937  -0.56514  -0.55041  -0.51643  -0.48480
 Alpha  occ. eigenvalues --   -0.44452  -0.43339  -0.43299  -0.40747  -0.40332
 Alpha  occ. eigenvalues --   -0.38660  -0.38141  -0.37537  -0.36486  -0.32812
 Alpha  occ. eigenvalues --   -0.31149  -0.28762  -0.25386  -0.24656
 Alpha virt. eigenvalues --   -0.00839   0.09129   0.10463   0.11567   0.12464
 Alpha virt. eigenvalues --    0.13563   0.14805   0.15085   0.16189   0.16390
 Alpha virt. eigenvalues --    0.17183   0.18594   0.18994   0.21630   0.22170

 Mulliken charges:
               1
     1  C   -0.503064
     2  C    0.355037
     3  O   -0.313044
     4  C   -0.069998
     5  C   -0.100391
     6  C   -0.132275
     7  C    0.301576
     8  C   -0.433319
     9  O   -0.470487
    10  H    0.137233
    11  H    0.126500
    12  H    0.129521
    13  H    0.098281
    14  H    0.107585
    15  H    0.107522
    16  H    0.127034
    17  H    0.127012
    18  H    0.118238
    19  H    0.287039
 Sum of Mulliken charges =   0.00000

 Dipole moment (field-independent basis, Debye):
    X=             -0.5694    Y=             -0.1971    Z=             -2.0103  Tot=              2.0987
 Quadrupole moment (field-independent basis, Debye-Ang):
   XX=            -54.1592   YY=            -49.7880   ZZ=            -54.4186
   XY=              0.4497   XZ=              0.4705   YZ=             -0.5885

  Exact polarizability:  84.746   2.195  79.237   2.747   1.893  61.013
 Approx polarizability: 132.342   4.465 107.226   5.782   5.311  99.996

                      1                      2                      3
                      A                      A                      A
 Frequencies --    125.2078               210.7364               228.0578
 Red. masses --      3.6162                 1.0818                 1.8369
 Frc consts  --      0.0334                 0.0283                 0.0563
 IR Inten    --      1.8686                 0.1839                 1.3659

                      4                      5                      6
                      A                      A                      A
 Frequencies --    248.5767               255.0228               293.8764
 Red. masses --      1.4190                 2.5638                 2.7015
 Frc consts  --      0.0517                 0.0982                 0.1375
 IR Inten    --      0.7412                 0.0325                 1.9909

                      7                      8                      9
                      A                      A                      A
 Frequencies --    347.6256               380.7092               462.2753
 Red. masses --      3.2840                 3.1095                 2.6029
 Frc consts  --      0.2338                 0.2655                 0.3277
 IR Inten    --      5.8074                 4.0787                 0.4037

                     10                     11                     12
                      A                      A                      A
 Frequencies --    502.5270               516.0077               591.3543
 Red. masses --      1.8793                 1.6712                 3.8110
 Frc consts  --      0.2796                 0.2622                 0.7852
 IR Inten    --     33.0826                54.4499                 6.2770

                     13                     14                     15
                      A                      A                      A
 Frequencies --    609.7720               642.8565               735.6866
 Red. masses --      4.8463                 3.6258                 5.0456
 Frc consts  --      1.0617                 0.8828                 1.6090
 IR Inten    --      8.5876                 4.6632                 8.2232

                     16                     17                     18
                      A                      A                      A
 Frequencies --    784.0245               817.3450               871.1983
 Red. masses --      1.8599                 2.8293                 2.6049
 Frc consts  --      0.6736                 1.1136                 1.1649
 IR Inten    --     17.6159                18.8061                25.8849

                     19                     20                     21
                      A                      A                      A
 Frequencies --    919.1565               944.3653               966.6127
 Red. masses --      1.9699                 2.0954                 1.4334
 Frc consts  --      0.9806                 1.1011                 0.7891
 IR Inten    --     10.4319                17.3077                 5.1915

                     22                     23                     24
                      A                      A                      A
 Frequencies --    976.7579              1003.5804              1054.2566
 Red. masses --      2.2049                 1.5438                 1.6511
 Frc consts  --      1.2394                 0.9161                 1.0812
 IR Inten    --      1.3246                 6.3941                 1.8451

                     25                     26                     27
                      A                      A                      A
 Frequencies --   1085.6872              1109.9401              1136.5639
 Red. masses --      2.1811                 1.6191                 1.6015
 Frc consts  --      1.5148                 1.1752                 1.2189
 IR Inten    --     67.1178                 1.0320                27.6153

                     28                     29                     30
                      A                      A                      A
 Frequencies --   1169.0222              1185.5370              1268.3894
 Red. masses --      1.9974                 2.8173                 3.2149
 Frc consts  --      1.6083                 2.3330                 3.0474
 IR Inten    --     17.3376                24.8154                 4.4847

                     31                     32                     33
                      A                      A                      A
 Frequencies --   1274.2043              1355.4535              1392.4823
 Red. masses --      1.3696                 1.5988                 1.3865
 Frc consts  --      1.3101                 1.7307                 1.5839
 IR Inten    --      4.8883                 6.5523                46.9673

                     34                     35                     36
                      A                      A                      A
 Frequencies --   1404.9316              1415.5118              1447.2123
 Red. masses --      1.2942                 1.5092                 2.9698
 Frc consts  --      1.5051                 1.7816                 3.6647
 IR Inten    --     18.9542                42.5943                 8.5333

                     37                     38                     39
                      A                      A                      A
 Frequencies --   1479.4850              1488.5557              1489.6993
 Red. masses --      1.1504                 1.1011                 1.0481
 Frc consts  --      1.4837                 1.4375                 1.3705
 IR Inten    --      5.0958                 3.4906                 5.4136

                     40                     41                     42
                      A                      A                      A
 Frequencies --   1502.6803              1665.8973              3038.9211
 Red. masses --      1.0820                 6.6241                 1.0358
 Frc consts  --      1.4395                10.8311                 5.6360
 IR Inten    --      1.8485                 0.3134                11.4082

                     43                     44                     45
                      A                      A                      A
 Frequencies --   3044.6409              3105.1155              3118.6502
 Red. masses --      1.0346                 1.1000                 1.1017
 Frc consts  --      5.6504                 6.2489                 6.3133
 IR Inten    --     17.3404                10.3942                21.1621

                     46                     47                     48
                      A                      A                      A
 Frequencies --   3122.9239              3125.8350              3162.8747
 Red. masses --      1.1022                 1.1016                 1.0906
 Frc consts  --      6.3332                 6.3420                 6.4283
 IR Inten    --     17.0731                10.5484                21.6824

                     49                     50                     51
                      A                      A                      A
 Frequencies --   3189.7498              3215.9690              3757.0497
 Red. masses --      1.0862                 1.1047                 1.0651
 Frc consts  --      6.5112                 6.7319                 8.8578
 IR Inten    --      8.0083                15.5331                23.4499

 - Thermochemistry -
 -------------------
 Temperature   298.150 Kelvin.  Pressure   1.00000 Atm.
 Atom     1 has atomic number  6 and mass  12.00000

 Molecular mass:   126.06808 amu.
 Principal axes and moments of inertia in atomic units:
                           1         2         3
     Eigenvalues --   832.27974 940.474631242.02416
           X            0.99989   0.00256  -0.01469
           Y           -0.00297   0.99960  -0.02829
           Z            0.01462   0.02833   0.99949
 This molecule is an asymmetric top.
 Rotational symmetry number  1.
 Warning -- assumption of classical behavior for rotation
           may cause significant error
 Rotational temperatures (Kelvin)      0.10407     0.09210     0.06974
 Rotational constants (GHZ):           2.16843     1.91897     1.45306
 Zero-point vibrational energy     414150.6 (Joules/Mol)
                                   98.98437 (Kcal/Mol)
 Warning -- explicit consideration of  13 degrees of freedom as
           vibrations may cause significant error
 Vibrational temperatures:    180.15   303.20   328.12   357.65   366.92
          (Kelvin)            422.82   500.16   547.75   665.11   723.02
                              742.42   850.83   877.32   924.93  1058.49
                             1128.03  1175.98  1253.46  1322.46  1358.73
                             1390.74  1405.34  1443.93  1516.84  1562.06
                             1596.95  1635.26  1681.96  1705.72  1824.93
                             1833.29  1950.19  2003.47  2021.38  2036.60
                             2082.21  2128.65  2141.70  2143.34  2162.02
                             2396.85  4372.32  4380.55  4467.56  4487.04
                             4493.19  4497.37  4550.67  4589.33  4627.06
                             5405.55

 Zero-point correction=                           0.157742 (Hartree/Particle)
 Thermal correction to Energy=                    0.166312
 Thermal correction to Enthalpy=                  0.167256
 Thermal correction to Gibbs Free Energy=         0.125410
 Sum of electronic and zero-point Energies=           -423.021657
 Sum of electronic and thermal Energies=              -423.013087
 Sum of electronic and thermal Enthalpies=            -423.012143
 Sum of electronic and thermal Free Energies=         -423.053989

                     E (Thermal)             CV                S
                      KCal/Mol        Cal/Mol-Kelvin    Cal/Mol-Kelvin
 Total                  104.362             34.097             88.072
 Electronic               0.000              0.000              0.000
 Translational            0.889              2.981             40.409
 Rotational               0.889              2.981             28.366
 Vibrational            102.585             28.135             19.298
 Vibration     1          0.610              1.928              3.018
 Vibration     2          0.643              1.824              2.037
 Vibration     3          0.651              1.798              1.894
 Vibration     4          0.662              1.765              1.741
 Vibration     5          0.665              1.754              1.696
 Vibration     6          0.689              1.685              1.452
 Vibration     7          0.725              1.580              1.177
 Vibration     8          0.750              1.511              1.036
 Vibration     9          0.820              1.334              0.760
 Vibration    10          0.858              1.244              0.652
 Vibration    11          0.871              1.215              0.619
 Vibration    12          0.949              1.050              0.465
 Vibration    13          0.969              1.011              0.433

 Optimization completed.
    -- Stationary point found.
 Normal termination of Gaussian 09 at Mon Jan 27 19:54:19 2020.
