 Gaussian 09, Revision D.01,
 Gaussian 09:  ES64L-G09RevD.01 24-Apr-2013

 -----------------------------
 # b3lyp 6-31G(2df,p) opt Freq
 -----------------------------

 -----
 titel
 -----
 Symbolic Z-matrix:
 Charge =  0 Multiplicity = 1

 SCF Done:  E(RB3LYP) =  -423.157168209     A.U. after   15 cycles
 Optimization completed.
    -- Stationary point found.
 Normal termination of Gaussian 09 at Tue Jan 28 08:11:41 2020.

 ----------------------------------------------------------------------
 #N Geom=AllCheck Guess=TCheck SCRF=Check GenChk RB3LYP/6-31G(2df,p) Fr
 eq
 ----------------------------------------------------------------------

 Structure from the checkpoint file:  "/scratch/puck/g09_ce7d61bc-6b89-4452-929f-691e77f52ae0/Gau-104577.chk"
 -----
 titel
 -----
 Charge =  0 Multiplicity = 1

                         Standard orientation:
 ---------------------------------------------------------------------
 Center     Atomic      Atomic             Coordinates (Angstroms)
 Number     Number       Type             X           Y           Z
 ---------------------------------------------------------------------
      1          6           0        2.883053    1.544092    0.046411
      2          6           0        1.387067    1.297827   -0.159594
      3          6           0        0.911190   -0.074436    0.399059
      4          6           0        1.535160   -1.198546   -0.433522
      5          8           0        2.434423   -1.901441   -0.059770
      6          6           0       -0.541094   -0.198608    0.354709
      7          6           0       -1.735861   -0.334598    0.266396
      8          6           0       -3.193551   -0.437963    0.192138
      9          8           0       -3.809133    0.661850   -0.462805
     10          1           0        3.138698    1.549558    1.111156
     11          1           0        3.492621    0.772504   -0.433230
     12          1           0        3.172957    2.511534   -0.373500
     13          1           0        0.800467    2.078390    0.335070
     14          1           0        1.129421    1.349449   -1.224411
     15          1           0        1.280212   -0.191733    1.424811
     16          1           0        1.090225   -1.299150   -1.448914
     17          1           0       -3.476911   -1.324316   -0.386176
     18          1           0       -3.598363   -0.580536    1.206856
     19          1           0       -3.507433    1.464426   -0.024637
 ---------------------------------------------------------------------

 SCF Done:  E(RB3LYP) =  -423.157168209     A.U. after    1 cycles

 The electronic state is 1-A.
 Alpha  occ. eigenvalues --  -19.14847 -19.14628 -10.27908 -10.25786 -10.22435
 Alpha  occ. eigenvalues --  -10.20590 -10.19019 -10.18601 -10.18551  -1.05610
 Alpha  occ. eigenvalues --   -1.02811  -0.83192  -0.77016  -0.73333  -0.68222
 Alpha  occ. eigenvalues --   -0.62517  -0.58801  -0.53981  -0.50708  -0.47559
 Alpha  occ. eigenvalues --   -0.47454  -0.45879  -0.44934  -0.43209  -0.41568
 Alpha  occ. eigenvalues --   -0.39178  -0.37305  -0.36272  -0.36003  -0.35405
 Alpha  occ. eigenvalues --   -0.29654  -0.27698  -0.26838  -0.24916
 Alpha virt. eigenvalues --   -0.03195   0.02766   0.04695   0.09368   0.10041
 Alpha virt. eigenvalues --    0.11536   0.12537   0.13643   0.15070   0.15677
 Alpha virt. eigenvalues --    0.16157   0.17416   0.18291   0.20885   0.21134

 Mulliken charges:
               1
     1  C   -0.395418
     2  C   -0.184449
     3  C   -0.240260
     4  C    0.172510
     5  O   -0.245337
     6  C   -0.004162
     7  C    0.115511
     8  C   -0.195357
     9  O   -0.399441
    10  H    0.124917
    11  H    0.136469
    12  H    0.119584
    13  H    0.116142
    14  H    0.115272
    15  H    0.120570
    16  H    0.090660
    17  H    0.143956
    18  H    0.121288
    19  H    0.287543
 Sum of Mulliken charges =   0.00000

 Dipole moment (field-independent basis, Debye):
    X=             -0.5497    Y=              2.1323    Z=              0.6646  Tot=              2.3002
 Quadrupole moment (field-independent basis, Debye-Ang):
   XX=            -60.7662   YY=            -53.7739   ZZ=            -52.8080
   XY=              6.7009   XZ=             -4.8740   YZ=              1.6985

  Exact polarizability: 114.192   1.315  72.616   1.869   0.532  61.356
 Approx polarizability: 159.126  -3.874 103.088   8.446  -0.907  93.325

                      1                      2                      3
                      A                      A                      A
 Frequencies --     17.8859                47.4843                72.3353
 Red. masses --      3.1710                 5.1768                 3.5680
 Frc consts  --      0.0006                 0.0069                 0.0110
 IR Inten    --      2.2356                 3.9306                 0.1776

                      4                      5                      6
                      A                      A                      A
 Frequencies --     85.4914               120.0287               180.5415
 Red. masses --      2.6383                 2.2898                 3.9135
 Frc consts  --      0.0114                 0.0194                 0.0752
 IR Inten    --      2.9394                 2.7259                 3.9911

                      7                      8                      9
                      A                      A                      A
 Frequencies --    221.1538               253.4021               304.4493
 Red. masses --      1.2571                 2.0776                 1.9321
 Frc consts  --      0.0362                 0.0786                 0.1055
 IR Inten    --      0.9387                14.4867                36.7682

                     10                     11                     12
                      A                      A                      A
 Frequencies --    338.1017               349.7291               429.6131
 Red. masses --      1.6692                 2.9017                 4.7857
 Frc consts  --      0.1124                 0.2091                 0.5204
 IR Inten    --     91.1126                 1.8241                11.1342

                     13                     14                     15
                      A                      A                      A
 Frequencies --    460.0541               504.8155               597.1926
 Red. masses --      4.3304                 6.7312                 7.5573
 Frc consts  --      0.5400                 1.0107                 1.5880
 IR Inten    --      8.4610                 3.3664                 5.2574

                     16                     17                     18
                      A                      A                      A
 Frequencies --    772.7359               815.0473               874.4345
 Red. masses --      1.2045                 3.6146                 2.0644
 Frc consts  --      0.4237                 1.4147                 0.9300
 IR Inten    --     14.2841                11.2272                 1.7502

                     19                     20                     21
                      A                      A                      A
 Frequencies --    948.8011               983.5865              1012.9341
 Red. masses --      1.7111                 1.5914                 2.2941
 Frc consts  --      0.9076                 0.9071                 1.3869
 IR Inten    --     12.5522                37.7405                 4.1268

                     22                     23                     24
                      A                      A                      A
 Frequencies --   1041.7564              1062.5094              1103.9195
 Red. masses --      4.7520                 3.0613                 2.0645
 Frc consts  --      3.0385                 2.0362                 1.4823
 IR Inten    --     69.9121                20.8877                 4.8164

                     25                     26                     27
                      A                      A                      A
 Frequencies --   1133.9590              1167.4040              1215.1859
 Red. masses --      2.1783                 2.3857                 1.0945
 Frc consts  --      1.6503                 1.9156                 0.9522
 IR Inten    --     15.7390                 3.1272                17.7842

                     28                     29                     30
                      A                      A                      A
 Frequencies --   1247.7773              1294.1741              1318.8889
 Red. masses --      1.4022                 1.4451                 1.1848
 Frc consts  --      1.2863                 1.4261                 1.2143
 IR Inten    --      1.2384                15.9687                 0.2381

                     31                     32                     33
                      A                      A                      A
 Frequencies --   1359.4595              1361.5422              1415.1376
 Red. masses --      1.3848                 1.2192                 1.1890
 Frc consts  --      1.5079                 1.3316                 1.4029
 IR Inten    --      5.2127                 5.7378                 4.8493

                     34                     35                     36
                      A                      A                      A
 Frequencies --   1417.4134              1419.3909              1488.5466
 Red. masses --      1.2377                 1.2286                 1.0628
 Frc consts  --      1.4651                 1.4584                 1.3874
 IR Inten    --     91.4546                 6.4595                 0.8100

                     37                     38                     39
                      A                      A                      A
 Frequencies --   1489.8782              1498.2821              1504.5256
 Red. masses --      1.0772                 1.0382                 1.0654
 Frc consts  --      1.4088                 1.3732                 1.4209
 IR Inten    --      0.5573                 6.1478                 3.0420

                     40                     41                     42
                      A                      A                      A
 Frequencies --   1836.3330              2352.9648              2884.9735
 Red. masses --     10.3208                11.8782                 1.0840
 Frc consts  --     20.5054                38.7465                 5.3155
 IR Inten    --    192.4804                 4.9661                74.4975

                     43                     44                     45
                      A                      A                      A
 Frequencies --   2978.3587              3035.9104              3040.3108
 Red. masses --      1.0712                 1.0666                 1.0376
 Frc consts  --      5.5985                 5.7920                 5.6511
 IR Inten    --     48.3813                 5.4588                15.5999

                     46                     47                     48
                      A                      A                      A
 Frequencies --   3047.1124              3064.3733              3078.2055
 Red. masses --      1.0761                 1.0886                 1.1005
 Frc consts  --      5.8867                 6.0226                 6.1437
 IR Inten    --     24.9694                15.0122                 6.8230

                     49                     50                     51
                      A                      A                      A
 Frequencies --   3109.8133              3117.0640              3816.9714
 Red. masses --      1.1017                 1.1017                 1.0663
 Frc consts  --      6.2777                 6.3068                 9.1529
 IR Inten    --     30.2586                23.4088                19.5579

 - Thermochemistry -
 -------------------
 Temperature   298.150 Kelvin.  Pressure   1.00000 Atm.
 Atom     1 has atomic number  6 and mass  12.00000

 Molecular mass:   126.06808 amu.
 Principal axes and moments of inertia in atomic units:
                           1         2         3
     Eigenvalues --   626.672202660.641093146.28062
           X            0.99946   0.03271  -0.00404
           Y           -0.03269   0.99945   0.00588
           Z            0.00423  -0.00574   0.99997
 This molecule is an asymmetric top.
 Rotational symmetry number  1.
 Warning -- assumption of classical behavior for rotation
           may cause significant error
 Rotational temperatures (Kelvin)      0.13821     0.03255     0.02753
 Rotational constants (GHZ):           2.87988     0.67831     0.57361
 Zero-point vibrational energy     408476.6 (Joules/Mol)
                                   97.62826 (Kcal/Mol)
 Warning -- explicit consideration of  15 degrees of freedom as
           vibrations may cause significant error
 Vibrational temperatures:     25.73    68.32   104.07   123.00   172.69
          (Kelvin)            259.76   318.19   364.59   438.03   486.45
                              503.18   618.12   661.91   726.32   859.23
                             1111.79  1172.67  1258.11  1365.11  1415.16
                             1457.38  1498.85  1528.71  1588.29  1631.51
                             1679.63  1748.38  1795.27  1862.03  1897.58
                             1955.96  1958.95  2036.06  2039.34  2042.18
                             2141.68  2143.60  2155.69  2164.67  2642.07
                             3385.39  4150.83  4285.19  4367.99  4374.32
                             4384.11  4408.94  4428.85  4474.32  4484.75
                             5491.76

 Zero-point correction=                           0.155581 (Hartree/Particle)
 Thermal correction to Energy=                    0.166654
 Thermal correction to Enthalpy=                  0.167598
 Thermal correction to Gibbs Free Energy=         0.116698
 Sum of electronic and zero-point Energies=           -423.001588
 Sum of electronic and thermal Energies=              -422.990514
 Sum of electronic and thermal Enthalpies=            -422.989570
 Sum of electronic and thermal Free Energies=         -423.040471

                     E (Thermal)             CV                S
                      KCal/Mol        Cal/Mol-Kelvin    Cal/Mol-Kelvin
 Total                  104.577             37.070            107.129
 Electronic               0.000              0.000              0.000
 Translational            0.889              2.981             40.409
 Rotational               0.889              2.981             30.040
 Vibrational            102.800             31.109             36.680
 Vibration     1          0.593              1.986              6.856
 Vibration     2          0.595              1.979              4.920
 Vibration     3          0.598              1.967              4.089
 Vibration     4          0.601              1.959              3.761
 Vibration     5          0.609              1.933              3.100
 Vibration     6          0.629              1.866              2.323
 Vibration     7          0.648              1.809              1.950
 Vibration     8          0.665              1.757              1.707
 Vibration     9          0.695              1.665              1.392
 Vibration    10          0.718              1.599              1.221
 Vibration    11          0.727              1.576              1.167
 Vibration    12          0.791              1.406              0.860
 Vibration    13          0.818              1.339              0.766
 Vibration    14          0.860              1.239              0.646
 Vibration    15          0.955              1.038              0.455

 Optimization completed.
    -- Stationary point found.
 Normal termination of Gaussian 09 at Tue Jan 28 08:42:25 2020.
