 Gaussian 09, Revision D.01,
 Gaussian 09:  ES64L-G09RevD.01 24-Apr-2013

 -----------------------------
 # b3lyp 6-31G(2df,p) opt Freq
 -----------------------------

 -----
 titel
 -----
 Symbolic Z-matrix:
 Charge =  0 Multiplicity = 1

 SCF Done:  E(RB3LYP) =  -423.198651228     A.U. after   14 cycles
 Optimization completed.
    -- Stationary point found.
 Normal termination of Gaussian 09 at Tue Jan 28 00:39:06 2020.

 ----------------------------------------------------------------------
 #N Geom=AllCheck Guess=TCheck SCRF=Check GenChk RB3LYP/6-31G(2df,p) Fr
 eq
 ----------------------------------------------------------------------

 Structure from the checkpoint file:  "/scratch/puck/g09_36164451-fb1f-4a32-a5a9-b1c80d7286f4/Gau-893.chk"
 -----
 titel
 -----
 Charge =  0 Multiplicity = 1

                         Standard orientation:
 ---------------------------------------------------------------------
 Center     Atomic      Atomic             Coordinates (Angstroms)
 Number     Number       Type             X           Y           Z
 ---------------------------------------------------------------------
      1          6           0       -2.543280   -0.697748   -0.184468
      2          6           0       -1.220389   -0.349309    0.505194
      3          6           0       -0.089144   -1.338135    0.094204
      4          6           0        1.281779   -0.679655   -0.068890
      5          8           0        2.331910   -1.263013    0.040790
      6          6           0        1.169603    0.810825   -0.363849
      7          6           0        0.535798    1.479339    0.877990
      8          6           0       -0.769321    1.078144    0.161873
      9          8           0       -0.053488    1.043948   -1.113259
     10          1           0       -3.357343   -0.056036    0.168486
     11          1           0       -2.450990   -0.565028   -1.267951
     12          1           0       -2.827915   -1.737326    0.006148
     13          1           0       -1.363875   -0.399982    1.592249
     14          1           0        0.002046   -2.186140    0.776840
     15          1           0       -0.328614   -1.755675   -0.892116
     16          1           0        2.064263    1.225974   -0.829936
     17          1           0        0.744616    1.056780    1.863878
     18          1           0        0.698652    2.557957    0.883207
     19          1           0       -1.598496    1.791232    0.146624
 ---------------------------------------------------------------------

 SCF Done:  E(RB3LYP) =  -423.198651228     A.U. after    1 cycles

 The electronic state is 1-A.
 Alpha  occ. eigenvalues --  -19.14529 -19.13126 -10.26783 -10.24592 -10.24392
 Alpha  occ. eigenvalues --  -10.20329 -10.20275 -10.19330 -10.18294  -1.05746
 Alpha  occ. eigenvalues --   -1.03750  -0.81610  -0.76057  -0.73442  -0.68904
 Alpha  occ. eigenvalues --   -0.61778  -0.57960  -0.52937  -0.50891  -0.48703
 Alpha  occ. eigenvalues --   -0.46229  -0.44400  -0.43565  -0.41768  -0.40940
 Alpha  occ. eigenvalues --   -0.39305  -0.38765  -0.36333  -0.36092  -0.34325
 Alpha  occ. eigenvalues --   -0.32238  -0.31827  -0.28124  -0.22861
 Alpha virt. eigenvalues --   -0.01881   0.07118   0.09961   0.10554   0.11325
 Alpha virt. eigenvalues --    0.12762   0.14273   0.14698   0.15524   0.16314
 Alpha virt. eigenvalues --    0.16598   0.18417   0.18774   0.19779   0.21811

 Mulliken charges:
               1
     1  C   -0.414093
     2  C    0.014636
     3  C   -0.320777
     4  C    0.393240
     5  O   -0.318120
     6  C   -0.009028
     7  C   -0.272507
     8  C    0.098189
     9  O   -0.298980
    10  H    0.113593
    11  H    0.134079
    12  H    0.118213
    13  H    0.080728
    14  H    0.125809
    15  H    0.141694
    16  H    0.099078
    17  H    0.113426
    18  H    0.120604
    19  H    0.080215
 Sum of Mulliken charges =   0.00000

 Dipole moment (field-independent basis, Debye):
    X=             -2.3178    Y=              1.1222    Z=              1.4446  Tot=              2.9527
 Quadrupole moment (field-independent basis, Debye-Ang):
   XX=            -58.1538   YY=            -52.9799   ZZ=            -53.7465
   XY=              5.2334   XZ=             -1.1809   YZ=              2.2370

  Exact polarizability:  85.684  -0.368  75.660  -0.738   0.798  61.646
 Approx polarizability: 120.368  -7.569 106.943  -0.190  -1.185 100.049

                      1                      2                      3
                      A                      A                      A
 Frequencies --     74.7223               145.6166               247.3062
 Red. masses --      2.8692                 3.7731                 1.3060
 Frc consts  --      0.0094                 0.0471                 0.0471
 IR Inten    --      3.0823                 2.4312                 1.2046

                      4                      5                      6
                      A                      A                      A
 Frequencies --    277.1707               302.7412               391.0408
 Red. masses --      2.1569                 2.1990                 3.0209
 Frc consts  --      0.0976                 0.1187                 0.2722
 IR Inten    --      0.1158                 1.9085                 8.3782

                      7                      8                      9
                      A                      A                      A
 Frequencies --    438.5010               462.0790               500.0458
 Red. masses --      3.3795                 3.9851                 6.5686
 Frc consts  --      0.3829                 0.5013                 0.9677
 IR Inten    --      0.5517                13.4607                 0.6895

                     10                     11                     12
                      A                      A                      A
 Frequencies --    567.5758               636.0839               732.4978
 Red. masses --      2.5938                 3.2650                 2.8083
 Frc consts  --      0.4923                 0.7783                 0.8878
 IR Inten    --      3.6638                 1.3338                 1.7667

                     13                     14                     15
                      A                      A                      A
 Frequencies --    794.6268               868.1615               891.0422
 Red. masses --      2.3690                 2.4391                 2.6599
 Frc consts  --      0.8813                 1.0831                 1.2443
 IR Inten    --      2.8529                15.3190                15.1126

                     16                     17                     18
                      A                      A                      A
 Frequencies --    930.6415               936.3604               941.3524
 Red. masses --      2.7737                 3.0719                 2.0657
 Frc consts  --      1.4154                 1.5869                 1.0785
 IR Inten    --      9.1860                16.1626                11.7088

                     19                     20                     21
                      A                      A                      A
 Frequencies --    968.4045              1008.6173              1029.3777
 Red. masses --      3.1841                 1.5760                 2.1105
 Frc consts  --      1.7593                 0.9446                 1.3176
 IR Inten    --     30.4022                20.6414                 9.7481

                     22                     23                     24
                      A                      A                      A
 Frequencies --   1048.2741              1082.0374              1117.9621
 Red. masses --      1.4546                 2.2711                 2.2369
 Frc consts  --      0.9418                 1.5666                 1.6472
 IR Inten    --      2.3694                 1.8358                 4.7231

                     25                     26                     27
                      A                      A                      A
 Frequencies --   1148.0827              1197.0161              1212.5491
 Red. masses --      1.4764                 1.7572                 1.8122
 Frc consts  --      1.1466                 1.4835                 1.5698
 IR Inten    --      2.4906                 7.9555                25.9425

                     28                     29                     30
                      A                      A                      A
 Frequencies --   1239.5471              1253.6057              1281.7346
 Red. masses --      1.5519                 1.3674                 1.5112
 Frc consts  --      1.4049                 1.2661                 1.4627
 IR Inten    --      4.6487                 2.1367                 3.0655

                     31                     32                     33
                      A                      A                      A
 Frequencies --   1295.6242              1307.7448              1321.0692
 Red. masses --      1.5907                 1.5930                 1.3157
 Frc consts  --      1.5733                 1.6051                 1.3529
 IR Inten    --      7.1518                 1.3236                 4.0761

                     34                     35                     36
                      A                      A                      A
 Frequencies --   1354.4964              1376.6321              1408.9244
 Red. masses --      1.4330                 1.6149                 1.2267
 Frc consts  --      1.5490                 1.8032                 1.4348
 IR Inten    --      3.4115                 1.1052                 2.4985

                     37                     38                     39
                      A                      A                      A
 Frequencies --   1452.4543              1491.0251              1497.4307
 Red. masses --      1.0902                 1.1203                 1.0436
 Frc consts  --      1.3550                 1.4674                 1.3788
 IR Inten    --      5.4761                 3.4132                 6.0066

                     40                     41                     42
                      A                      A                      A
 Frequencies --   1502.7328              1831.2825              3020.9447
 Red. masses --      1.0547                12.0941                 1.0834
 Frc consts  --      1.4033                23.8966                 5.8256
 IR Inten    --      2.4714               202.0516                16.0266

                     43                     44                     45
                      A                      A                      A
 Frequencies --   3030.2899              3038.7801              3066.9686
 Red. masses --      1.0350                 1.0661                 1.0712
 Frc consts  --      5.5995                 5.8002                 5.9364
 IR Inten    --     20.5984                 8.0811                30.8397

                     46                     47                     48
                      A                      A                      A
 Frequencies --   3074.3517              3101.5396              3104.4622
 Red. masses --      1.0758                 1.1012                 1.1018
 Frc consts  --      5.9906                 6.2414                 6.2564
 IR Inten    --     36.0567                32.3536                15.5559

                     49                     50                     51
                      A                      A                      A
 Frequencies --   3108.9428              3113.4536              3135.3742
 Red. masses --      1.0956                 1.0912                 1.1078
 Frc consts  --      6.2392                 6.2323                 6.4164
 IR Inten    --     20.7861                19.3285                17.9907

 - Thermochemistry -
 -------------------
 Temperature   298.150 Kelvin.  Pressure   1.00000 Atm.
 Atom     1 has atomic number  6 and mass  12.00000

 Molecular mass:   126.06808 amu.
 Principal axes and moments of inertia in atomic units:
                           1         2         3
     Eigenvalues --   691.670431107.153941476.73876
           X            0.99646   0.08397   0.00392
           Y           -0.08405   0.99593   0.03266
           Z           -0.00116  -0.03288   0.99946
 This molecule is an asymmetric top.
 Rotational symmetry number  1.
 Warning -- assumption of classical behavior for rotation
           may cause significant error
 Rotational temperatures (Kelvin)      0.12522     0.07823     0.05865
 Rotational constants (GHZ):           2.60925     1.63007     1.22211
 Zero-point vibrational energy     420842.1 (Joules/Mol)
                                  100.58367 (Kcal/Mol)
 Warning -- explicit consideration of  10 degrees of freedom as
           vibrations may cause significant error
 Vibrational temperatures:    107.51   209.51   355.82   398.79   435.58
          (Kelvin)            562.62   630.90   664.83   719.45   816.61
                              915.18  1053.90  1143.29  1249.09  1282.01
                             1338.98  1347.21  1354.39  1393.32  1451.17
                             1481.04  1508.23  1556.81  1608.50  1651.83
                             1722.24  1744.59  1783.43  1803.66  1844.13
                             1864.11  1881.55  1900.72  1948.82  1980.66
                             2027.13  2089.76  2145.25  2154.47  2162.09
                             2634.80  4346.46  4359.91  4372.12  4412.68
                             4423.30  4462.42  4466.62  4473.07  4479.56
                             4511.10

 Zero-point correction=                           0.160290 (Hartree/Particle)
 Thermal correction to Energy=                    0.168105
 Thermal correction to Enthalpy=                  0.169049
 Thermal correction to Gibbs Free Energy=         0.127914
 Sum of electronic and zero-point Energies=           -423.038361
 Sum of electronic and thermal Energies=              -423.030546
 Sum of electronic and thermal Enthalpies=            -423.029602
 Sum of electronic and thermal Free Energies=         -423.070737

                     E (Thermal)             CV                S
                      KCal/Mol        Cal/Mol-Kelvin    Cal/Mol-Kelvin
 Total                  105.488             30.630             86.577
 Electronic               0.000              0.000              0.000
 Translational            0.889              2.981             40.409
 Rotational               0.889              2.981             28.516
 Vibrational            103.710             24.668             17.653
 Vibration     1          0.599              1.966              4.025
 Vibration     2          0.617              1.907              2.729
 Vibration     3          0.661              1.767              1.750
 Vibration     4          0.678              1.716              1.551
 Vibration     5          0.694              1.669              1.402
 Vibration     6          0.759              1.489              0.996
 Vibration     7          0.799              1.386              0.831
 Vibration     8          0.820              1.334              0.760
 Vibration     9          0.855              1.250              0.658
 Vibration    10          0.924              1.101              0.509

 Optimization completed.
    -- Stationary point found.
 Normal termination of Gaussian 09 at Tue Jan 28 01:23:29 2020.
