 Gaussian 09, Revision D.01,
 Gaussian 09:  ES64L-G09RevD.01 24-Apr-2013

 -----------------------------
 # b3lyp 6-31G(2df,p) opt Freq
 -----------------------------

 -----
 titel
 -----
 Symbolic Z-matrix:
 Charge =  0 Multiplicity = 1

 SCF Done:  E(RB3LYP) =  -423.192877456     A.U. after   14 cycles
 SCF Done:  E(RB3LYP) =  -423.192877370     A.U. after    8 cycles
 SCF Done:  E(RB3LYP) =  -423.192876292     A.U. after    9 cycles
 SCF Done:  E(RB3LYP) =  -423.192867831     A.U. after   11 cycles
 SCF Done:  E(RB3LYP) =  -423.192866736     A.U. after    7 cycles
 SCF Done:  E(RB3LYP) =  -423.192861340     A.U. after    9 cycles
 SCF Done:  E(RB3LYP) =  -423.192858648     A.U. after   11 cycles
 SCF Done:  E(RB3LYP) =  -423.191961007     A.U. after   11 cycles
 SCF Done:  E(RB3LYP) =  -423.192877378     A.U. after    9 cycles
 SCF Done:  E(RB3LYP) =  -423.192183861     A.U. after   11 cycles
 SCF Done:  E(RB3LYP) =  -423.192877454     A.U. after    8 cycles
 Optimization completed.
    -- Stationary point found.
 Normal termination of Gaussian 09 at Tue Jan 28 08:45:53 2020.

 ----------------------------------------------------------------------
 #N Geom=AllCheck Guess=TCheck SCRF=Check GenChk RB3LYP/6-31G(2df,p) Fr
 eq
 ----------------------------------------------------------------------

 Structure from the checkpoint file:  "/scratch/puck/g09_b983f5d9-89d4-470b-ae8f-2a39ff56cc13/Gau-127956.chk"
 -----
 titel
 -----
 Charge =  0 Multiplicity = 1

                         Standard orientation:
 ---------------------------------------------------------------------
 Center     Atomic      Atomic             Coordinates (Angstroms)
 Number     Number       Type             X           Y           Z
 ---------------------------------------------------------------------
      1          6           0       -3.601394    0.681875    0.459933
      2          8           0       -2.168380    0.691431    0.426744
      3          6           0       -1.610339   -0.350148   -0.223760
      4          8           0       -2.240474   -1.236981   -0.747355
      5          6           0       -0.171678   -0.259150   -0.207555
      6          6           0        1.033745   -0.247470   -0.234348
      7          6           0        2.493916   -0.214581   -0.247132
      8          6           0        3.010004    1.177039   -0.665686
      9          6           0        3.057769   -0.638822    1.125074
     10          1           0       -3.888109    1.576064    1.013170
     11          1           0       -4.011555    0.708968   -0.552848
     12          1           0       -3.970256   -0.215663    0.962986
     13          1           0        2.836764   -0.944107   -0.993492
     14          1           0        2.698761    1.936959    0.057162
     15          1           0        4.103325    1.170908   -0.711488
     16          1           0        2.624138    1.462543   -1.647532
     17          1           0        2.707377   -1.635296    1.405255
     18          1           0        4.151309   -0.652644    1.089005
     19          1           0        2.746928    0.064208    1.903509
 ---------------------------------------------------------------------

 SCF Done:  E(RB3LYP) =  -423.192877454     A.U. after    1 cycles

 The electronic state is 1-A.
 Alpha  occ. eigenvalues --  -19.18374 -19.12605 -10.31911 -10.23679 -10.22389
 Alpha  occ. eigenvalues --  -10.19863 -10.18951 -10.18895 -10.18482  -1.10236
 Alpha  occ. eigenvalues --   -1.01386  -0.82702  -0.76648  -0.72101  -0.69701
 Alpha  occ. eigenvalues --   -0.63895  -0.59976  -0.53936  -0.49514  -0.48071
 Alpha  occ. eigenvalues --   -0.46872  -0.45755  -0.42551  -0.42477  -0.39954
 Alpha  occ. eigenvalues --   -0.39597  -0.38005  -0.36197  -0.35996  -0.35873
 Alpha  occ. eigenvalues --   -0.30103  -0.29271  -0.27568  -0.26195
 Alpha virt. eigenvalues --   -0.02909   0.03839   0.08864   0.11294   0.11779
 Alpha virt. eigenvalues --    0.13275   0.13981   0.14371   0.15465   0.15699
 Alpha virt. eigenvalues --    0.16227   0.17504   0.18202   0.19477   0.20689

 Mulliken charges:
               1
     1  C   -0.239880
     2  O   -0.217651
     3  C    0.252759
     4  O   -0.359893
     5  C   -0.116947
     6  C    0.286672
     7  C   -0.143314
     8  C   -0.377604
     9  C   -0.378461
    10  H    0.133896
    11  H    0.142413
    12  H    0.142373
    13  H    0.116238
    14  H    0.130332
    15  H    0.118240
    16  H    0.129958
    17  H    0.131519
    18  H    0.118953
    19  H    0.130397
 Sum of Mulliken charges =   0.00000

 Dipole moment (field-independent basis, Debye):
    X=              1.5830    Y=              1.5042    Z=              0.9198  Tot=              2.3695
 Quadrupole moment (field-independent basis, Debye-Ang):
   XX=            -41.8226   YY=            -55.7982   ZZ=            -53.4585
   XY=             -5.4282   XZ=             -3.5843   YZ=             -2.1479

  Exact polarizability: 126.170   0.020  66.930  -0.457   1.817  62.313
 Approx polarizability: 169.256   5.331 100.973   1.492   9.278  90.682

                      1                      2                      3
                      A                      A                      A
 Frequencies --     16.3913                70.9915                74.1374
 Red. masses --      3.7927                 3.8617                 3.5531
 Frc consts  --      0.0006                 0.0115                 0.0115
 IR Inten    --      1.2747                 1.6001                 1.2053

                      4                      5                      6
                      A                      A                      A
 Frequencies --    126.2659               156.5088               200.1420
 Red. masses --      1.1195                 3.2153                 2.4783
 Frc consts  --      0.0105                 0.0464                 0.0585
 IR Inten    --      0.1837                 1.7471                 0.5695

                      7                      8                      9
                      A                      A                      A
 Frequencies --    226.2918               264.7037               279.7914
 Red. masses --      1.0293                 1.2902                 4.9758
 Frc consts  --      0.0311                 0.0533                 0.2295
 IR Inten    --      0.0007                 0.0605                 0.6189

                     10                     11                     12
                      A                      A                      A
 Frequencies --    297.8259               331.8057               431.7037
 Red. masses --      4.1483                 3.1625                 3.1486
 Frc consts  --      0.2168                 0.2051                 0.3457
 IR Inten    --      7.1810                 8.3399                 0.6815

                     13                     14                     15
                      A                      A                      A
 Frequencies --    554.4242               569.1180               581.8751
 Red. masses --      5.1586                 3.9336                 7.7434
 Frc consts  --      0.9343                 0.7507                 1.5447
 IR Inten    --      2.9352                 1.4391                 4.1005

                     16                     17                     18
                      A                      A                      A
 Frequencies --    775.8265               779.9338               867.9464
 Red. masses --     11.5863                 3.7955                 3.3597
 Frc consts  --      4.1089                 1.3603                 1.4912
 IR Inten    --     19.1733                 6.3399                13.1775

                     19                     20                     21
                      A                      A                      A
 Frequencies --    935.1031               959.7691               969.1393
 Red. masses --      1.1718                 3.4162                 1.5188
 Frc consts  --      0.6037                 1.8541                 0.8405
 IR Inten    --      1.4392                10.2857                 0.0598

                     22                     23                     24
                      A                      A                      A
 Frequencies --   1058.7099              1116.4616              1132.7252
 Red. masses --      3.4329                 2.3739                 1.8463
 Frc consts  --      2.2671                 1.7434                 1.3957
 IR Inten    --     52.0259                 1.6288                23.4751

                     25                     26                     27
                      A                      A                      A
 Frequencies --   1177.3431              1189.3552              1213.9038
 Red. masses --      1.2831                 1.8290                 1.5905
 Frc consts  --      1.0479                 1.5244                 1.3809
 IR Inten    --      1.0879                30.4261                28.1204

                     28                     29                     30
                      A                      A                      A
 Frequencies --   1278.6335              1323.2322              1350.5778
 Red. masses --      5.3377                 1.3184                 1.5510
 Frc consts  --      5.1415                 1.3601                 1.6669
 IR Inten    --    574.5330                 1.2493                45.7513

                     31                     32                     33
                      A                      A                      A
 Frequencies --   1396.1722              1417.2275              1471.4643
 Red. masses --      1.2025                 1.2104                 1.1935
 Frc consts  --      1.3811                 1.4324                 1.5226
 IR Inten    --      1.3824                 2.2074                23.4602

                     34                     35                     36
                      A                      A                      A
 Frequencies --   1480.8498              1485.7136              1488.8622
 Red. masses --      1.0468                 1.0435                 1.0463
 Frc consts  --      1.3526                 1.3572                 1.3665
 IR Inten    --      6.0998                 2.0364                 0.8802

                     37                     38                     39
                      A                      A                      A
 Frequencies --   1496.5870              1498.1260              1509.9505
 Red. masses --      1.0570                 1.0441                 1.0572
 Frc consts  --      1.3949                 1.3806                 1.4202
 IR Inten    --      6.8326                 5.4154                 2.7414

                     40                     41                     42
                      A                      A                      A
 Frequencies --   1788.3788              2349.4986              3014.1562
 Red. masses --     11.9682                11.9369                 1.0818
 Frc consts  --     22.5526                38.8234                 5.7906
 IR Inten    --    274.3870               157.5464                11.9671

                     43                     44                     45
                      A                      A                      A
 Frequencies --   3040.4845              3043.3853              3051.3023
 Red. masses --      1.0340                 1.0345                 1.0298
 Frc consts  --      5.6318                 5.6451                 5.6491
 IR Inten    --     18.7733                26.6127                30.8173

                     46                     47                     48
                      A                      A                      A
 Frequencies --   3113.7361              3118.2662              3123.2815
 Red. masses --      1.1027                 1.1020                 1.1026
 Frc consts  --      6.2989                 6.3136                 6.3370
 IR Inten    --      0.5329                45.7741                15.7881

                     49                     50                     51
                      A                      A                      A
 Frequencies --   3125.2430              3125.3632              3160.1509
 Red. masses --      1.1024                 1.1055                 1.1058
 Frc consts  --      6.3441                 6.3622                 6.5066
 IR Inten    --     23.3163                19.0355                15.1792

 - Thermochemistry -
 -------------------
 Temperature   298.150 Kelvin.  Pressure   1.00000 Atm.
 Atom     1 has atomic number  6 and mass  12.00000

 Molecular mass:   126.06808 amu.
 Principal axes and moments of inertia in atomic units:
                           1         2         3
     Eigenvalues --   456.322682926.187803024.53186
           X            0.99998  -0.00547  -0.00159
           Y            0.00518   0.98932  -0.14565
           Z            0.00237   0.14564   0.98933
 This molecule is an asymmetric top.
 Rotational symmetry number  1.
 Warning -- assumption of classical behavior for rotation
           may cause significant error
 Rotational temperatures (Kelvin)      0.18981     0.02960     0.02864
 Rotational constants (GHZ):           3.95497     0.61676     0.59670
 Zero-point vibrational energy     410372.0 (Joules/Mol)
                                   98.08126 (Kcal/Mol)
 Warning -- explicit consideration of  15 degrees of freedom as
           vibrations may cause significant error
 Vibrational temperatures:     23.58   102.14   106.67   181.67   225.18
          (Kelvin)            287.96   325.58   380.85   402.56   428.50
                              477.39   621.12   797.69   818.83   837.19
                             1116.24  1122.15  1248.78  1345.40  1380.89
                             1394.37  1523.25  1606.34  1629.74  1693.93
                             1711.21  1746.53  1839.67  1903.83  1943.18
                             2008.78  2039.07  2117.11  2130.61  2137.61
                             2142.14  2153.25  2155.47  2172.48  2573.07
                             3380.40  4336.69  4374.57  4378.75  4390.14
                             4479.97  4486.48  4493.70  4496.52  4496.69
                             4546.75

 Zero-point correction=                           0.156302 (Hartree/Particle)
 Thermal correction to Energy=                    0.167122
 Thermal correction to Enthalpy=                  0.168066
 Thermal correction to Gibbs Free Energy=         0.118318
 Sum of electronic and zero-point Energies=           -423.036575
 Sum of electronic and thermal Energies=              -423.025755
 Sum of electronic and thermal Enthalpies=            -423.024811
 Sum of electronic and thermal Free Energies=         -423.074559

                     E (Thermal)             CV                S
                      KCal/Mol        Cal/Mol-Kelvin    Cal/Mol-Kelvin
 Total                  104.871             36.660            104.704
 Electronic               0.000              0.000              0.000
 Translational            0.889              2.981             40.409
 Rotational               0.889              2.981             29.781
 Vibrational            103.093             30.698             34.515
 Vibration     1          0.593              1.986              7.029
 Vibration     2          0.598              1.968              4.126
 Vibration     3          0.599              1.966              4.040
 Vibration     4          0.611              1.927              3.002
 Vibration     5          0.620              1.895              2.592
 Vibration     6          0.638              1.840              2.132
 Vibration     7          0.650              1.801              1.908
 Vibration     8          0.671              1.738              1.631
 Vibration     9          0.680              1.711              1.535
 Vibration    10          0.691              1.678              1.429
 Vibration    11          0.714              1.612              1.251
 Vibration    12          0.793              1.401              0.853
 Vibration    13          0.910              1.130              0.535
 Vibration    14          0.925              1.098              0.506
 Vibration    15          0.939              1.071              0.482

 Normal termination of Gaussian 09 at Tue Jan 28 09:16:26 2020.
