 Gaussian 09, Revision D.01,
 Gaussian 09:  ES64L-G09RevD.01 24-Apr-2013

 -----------------------------
 # b3lyp 6-31G(2df,p) opt Freq
 -----------------------------

 -----
 titel
 -----
 Symbolic Z-matrix:
 Charge =  0 Multiplicity = 1

 SCF Done:  E(RB3LYP) =  -423.193139454     A.U. after   14 cycles
 Optimization completed.
    -- Stationary point found.
 Normal termination of Gaussian 09 at Mon Jan 27 13:17:24 2020.

 ----------------------------------------------------------------------
 #N Geom=AllCheck Guess=TCheck SCRF=Check GenChk RB3LYP/6-31G(2df,p) Fr
 eq
 ----------------------------------------------------------------------

 Structure from the checkpoint file:  "/scratch/puck/g09_0949972d-ab87-478a-96bc-92d53c34dd04/Gau-169607.chk"
 -----
 titel
 -----
 Charge =  0 Multiplicity = 1

                         Standard orientation:
 ---------------------------------------------------------------------
 Center     Atomic      Atomic             Coordinates (Angstroms)
 Number     Number       Type             X           Y           Z
 ---------------------------------------------------------------------
      1          8           0       -3.219505    0.401607   -0.796895
      2          6           0       -2.313008    0.398556   -0.002765
      3          6           0       -1.254355   -0.652136    0.036682
      4          8           0       -0.562095   -0.788220    1.285565
      5          6           0        0.176547   -0.281355    0.178849
      6          6           0        0.694169    1.158268    0.249899
      7          6           0        2.225042    1.001053    0.210009
      8          6           0        2.434437   -0.191603   -0.741489
      9          6           0        1.303716   -1.170684   -0.366459
     10          1           0       -2.195866    1.188483    0.771211
     11          1           0       -1.506744   -1.579843   -0.475981
     12          1           0        0.355529    1.720183   -0.628730
     13          1           0        0.321577    1.670751    1.139423
     14          1           0        2.738312    1.908502   -0.117473
     15          1           0        2.600860    0.751934    1.209488
     16          1           0        2.317252    0.139856   -1.779975
     17          1           0        3.426121   -0.642388   -0.654542
     18          1           0        0.980933   -1.795841   -1.202594
     19          1           0        1.615536   -1.841329    0.441464
 ---------------------------------------------------------------------

 SCF Done:  E(RB3LYP) =  -423.193139454     A.U. after    1 cycles

 The electronic state is 1-A.
 Alpha  occ. eigenvalues --  -19.16588 -19.14426 -10.27427 -10.25861 -10.24586
 Alpha  occ. eigenvalues --  -10.19546 -10.19432 -10.19276 -10.19237  -1.08813
 Alpha  occ. eigenvalues --   -1.04965  -0.84172  -0.72981  -0.71713  -0.69632
 Alpha  occ. eigenvalues --   -0.60253  -0.58393  -0.55790  -0.51218  -0.49322
 Alpha  occ. eigenvalues --   -0.46755  -0.46157  -0.43202  -0.42831  -0.40991
 Alpha  occ. eigenvalues --   -0.39694  -0.37012  -0.36331  -0.35444  -0.34933
 Alpha  occ. eigenvalues --   -0.33794  -0.30194  -0.28237  -0.25479
 Alpha virt. eigenvalues --   -0.03759   0.07495   0.07787   0.10514   0.12328
 Alpha virt. eigenvalues --    0.12885   0.13860   0.14720   0.15749   0.16606
 Alpha virt. eigenvalues --    0.16995   0.17358   0.19573   0.20118   0.21426

 Mulliken charges:
               1
     1  O   -0.251198
     2  C    0.147409
     3  C   -0.144824
     4  O   -0.279641
     5  C    0.433203
     6  C   -0.288067
     7  C   -0.213191
     8  C   -0.206543
     9  C   -0.287694
    10  H    0.087150
    11  H    0.110268
    12  H    0.115177
    13  H    0.117824
    14  H    0.102271
    15  H    0.109523
    16  H    0.105469
    17  H    0.104999
    18  H    0.112046
    19  H    0.125818
 Sum of Mulliken charges =   0.00000

 Dipole moment (field-independent basis, Debye):
    X=              3.0658    Y=              0.2217    Z=             -0.1970  Tot=              3.0801
 Quadrupole moment (field-independent basis, Debye-Ang):
   XX=            -60.7414   YY=            -51.5678   ZZ=            -55.8766
   XY=              1.0645   XZ=             -3.5507   YZ=              2.3999

  Exact polarizability:  95.294  -1.214  70.744   3.573   3.221  64.487
 Approx polarizability: 126.557  -1.973 100.648  12.496   0.682 107.320

                      1                      2                      3
                      A                      A                      A
 Frequencies --     51.8496                98.1301               141.8453
 Red. masses --      2.8984                 4.2106                 3.7938
 Frc consts  --      0.0046                 0.0239                 0.0450
 IR Inten    --      0.7662                 5.9081                 1.9708

                      4                      5                      6
                      A                      A                      A
 Frequencies --    223.6286               255.3628               376.4805
 Red. masses --      2.2398                 1.6878                 3.7173
 Frc consts  --      0.0660                 0.0648                 0.3104
 IR Inten    --      3.0697                 1.3152                 6.0310

                      7                      8                      9
                      A                      A                      A
 Frequencies --    401.3242               425.7491               481.0538
 Red. masses --      2.9448                 3.3174                 4.1973
 Frc consts  --      0.2794                 0.3543                 0.5723
 IR Inten    --     15.2024                11.4503                 0.2720

                     10                     11                     12
                      A                      A                      A
 Frequencies --    546.6965               566.9691               711.6250
 Red. masses --      4.6479                 2.1436                 2.1056
 Frc consts  --      0.8185                 0.4060                 0.6282
 IR Inten    --      0.8150                 0.1858                 0.8473

                     13                     14                     15
                      A                      A                      A
 Frequencies --    815.3704               835.7237               864.3889
 Red. masses --      3.6533                 1.9769                 1.9862
 Frc consts  --      1.4310                 0.8135                 0.8744
 IR Inten    --     21.0056                 5.6997                 2.6655

                     16                     17                     18
                      A                      A                      A
 Frequencies --    909.7581               927.7408               955.4738
 Red. masses --      2.5336                 1.9715                 2.5490
 Frc consts  --      1.2355                 0.9998                 1.3711
 IR Inten    --      0.1256                 4.6981                 5.3165

                     19                     20                     21
                      A                      A                      A
 Frequencies --    963.9550              1000.5574              1032.9163
 Red. masses --      1.9805                 1.5434                 2.0454
 Frc consts  --      1.0843                 0.9103                 1.2857
 IR Inten    --     18.4868                 2.9660                 9.0896

                     22                     23                     24
                      A                      A                      A
 Frequencies --   1043.4993              1085.8809              1120.4429
 Red. masses --      1.5438                 1.8184                 2.9425
 Frc consts  --      0.9905                 1.2633                 2.1764
 IR Inten    --      3.2407                 5.6898                26.2212

                     25                     26                     27
                      A                      A                      A
 Frequencies --   1168.5452              1182.9785              1197.0507
 Red. masses --      1.4338                 1.6122                 2.6339
 Frc consts  --      1.1535                 1.3293                 2.2237
 IR Inten    --      0.7826                 4.9698                11.9011

                     28                     29                     30
                      A                      A                      A
 Frequencies --   1241.9326              1261.5997              1275.2253
 Red. masses --      1.3880                 1.3203                 1.3642
 Frc consts  --      1.2613                 1.2381                 1.3071
 IR Inten    --      0.1521                 2.4305                13.1003

                     31                     32                     33
                      A                      A                      A
 Frequencies --   1309.4374              1334.0909              1342.3576
 Red. masses --      1.3082                 1.3180                 1.4525
 Frc consts  --      1.3216                 1.3820                 1.5421
 IR Inten    --      0.3500                 0.3271                 0.7870

                     34                     35                     36
                      A                      A                      A
 Frequencies --   1348.4101              1391.0206              1453.6431
 Red. masses --      1.3590                 1.5304                 2.6004
 Frc consts  --      1.4559                 1.7447                 3.2374
 IR Inten    --      3.4136                 7.5624                24.1742

                     37                     38                     39
                      A                      A                      A
 Frequencies --   1477.0376              1481.3468              1494.8611
 Red. masses --      1.1100                 1.0868                 1.0853
 Frc consts  --      1.4267                 1.4051                 1.4288
 IR Inten    --      2.2884                 3.4751                 3.4500

                     40                     41                     42
                      A                      A                      A
 Frequencies --   1510.9283              1822.1675              2898.6715
 Red. masses --      1.1169                10.3291                 1.0839
 Frc consts  --      1.5023                20.2063                 5.3656
 IR Inten    --      1.0024               206.8796                70.9968

                     43                     44                     45
                      A                      A                      A
 Frequencies --   3036.4373              3038.9234              3044.8552
 Red. masses --      1.0708                 1.0666                 1.0615
 Frc consts  --      5.8169                 5.8034                 5.7985
 IR Inten    --     11.9102                19.1378                32.3874

                     46                     47                     48
                      A                      A                      A
 Frequencies --   3053.1551              3095.6796              3099.9947
 Red. masses --      1.0622                 1.0954                 1.0983
 Frc consts  --      5.8341                 6.1848                 6.2185
 IR Inten    --     12.9904                21.0166                25.4106

                     49                     50                     51
                      A                      A                      A
 Frequencies --   3106.9252              3112.0226              3126.1479
 Red. masses --      1.1022                 1.1011                 1.0887
 Frc consts  --      6.2684                 6.2828                 6.2685
 IR Inten    --     21.0683                25.0035                14.6643

 - Thermochemistry -
 -------------------
 Temperature   298.150 Kelvin.  Pressure   1.00000 Atm.
 Atom     1 has atomic number  8 and mass  15.99491

 Molecular mass:   126.06808 amu.
 Principal axes and moments of inertia in atomic units:
                           1         2         3
     Eigenvalues --   507.976591813.450041928.38297
           X            0.99991   0.00627  -0.01162
           Y           -0.00452   0.98943   0.14493
           Z            0.01240  -0.14486   0.98937
 This molecule is an asymmetric top.
 Rotational symmetry number  1.
 Warning -- assumption of classical behavior for rotation
           may cause significant error
 Rotational temperatures (Kelvin)      0.17051     0.04776     0.04492
 Rotational constants (GHZ):           3.55280     0.99520     0.93588
 Zero-point vibrational energy     417149.0 (Joules/Mol)
                                   99.70100 (Kcal/Mol)
 Warning -- explicit consideration of  11 degrees of freedom as
           vibrations may cause significant error
 Vibrational temperatures:     74.60   141.19   204.08   321.75   367.41
          (Kelvin)            541.67   577.42   612.56   692.13   786.57
                              815.74  1023.87  1173.13  1202.42  1243.66
                             1308.94  1334.81  1374.71  1386.91  1439.58
                             1486.13  1501.36  1562.34  1612.07  1681.27
                             1702.04  1722.29  1786.86  1815.16  1834.76
                             1883.99  1919.46  1931.35  1940.06  2001.37
                             2091.47  2125.12  2131.33  2150.77  2173.89
                             2621.69  4170.54  4368.75  4372.33  4380.86
                             4392.80  4453.99  4460.20  4470.17  4477.50
                             4497.82

 Zero-point correction=                           0.158884 (Hartree/Particle)
 Thermal correction to Energy=                    0.167299
 Thermal correction to Enthalpy=                  0.168243
 Thermal correction to Gibbs Free Energy=         0.125121
 Sum of electronic and zero-point Energies=           -423.034256
 Sum of electronic and thermal Energies=              -423.025840
 Sum of electronic and thermal Enthalpies=            -423.024896
 Sum of electronic and thermal Free Energies=         -423.068019

                     E (Thermal)             CV                S
                      KCal/Mol        Cal/Mol-Kelvin    Cal/Mol-Kelvin
 Total                  104.982             31.502             90.759
 Electronic               0.000              0.000              0.000
 Translational            0.889              2.981             40.409
 Rotational               0.889              2.981             28.965
 Vibrational            103.204             25.540             21.386
 Vibration     1          0.596              1.977              4.746
 Vibration     2          0.604              1.950              3.491
 Vibration     3          0.615              1.911              2.779
 Vibration     4          0.649              1.805              1.930
 Vibration     5          0.666              1.754              1.693
 Vibration     6          0.747              1.520              1.053
 Vibration     7          0.767              1.467              0.958
 Vibration     8          0.788              1.414              0.873
 Vibration     9          0.837              1.292              0.707
 Vibration    10          0.902              1.147              0.551
 Vibration    11          0.923              1.103              0.510

 Optimization completed.
    -- Stationary point found.
 Normal termination of Gaussian 09 at Mon Jan 27 13:59:12 2020.
