 Gaussian 09, Revision D.01,
 Gaussian 09:  ES64L-G09RevD.01 24-Apr-2013

 -----------------------------
 # b3lyp 6-31G(2df,p) opt Freq
 -----------------------------

 -----
 titel
 -----
 Symbolic Z-matrix:
 Charge =  0 Multiplicity = 1

 SCF Done:  E(RB3LYP) =  -423.179622501     A.U. after   14 cycles
 Optimization completed.
    -- Stationary point found.
 Normal termination of Gaussian 09 at Mon Jan 27 16:04:17 2020.

 ----------------------------------------------------------------------
 #N Geom=AllCheck Guess=TCheck SCRF=Check GenChk RB3LYP/6-31G(2df,p) Fr
 eq
 ----------------------------------------------------------------------

 Structure from the checkpoint file:  "/scratch/puck/g09_d4a2c965-7085-4bf4-b5b2-6380709a87e6/Gau-10540.chk"
 -----
 titel
 -----
 Charge =  0 Multiplicity = 1

                         Standard orientation:
 ---------------------------------------------------------------------
 Center     Atomic      Atomic             Coordinates (Angstroms)
 Number     Number       Type             X           Y           Z
 ---------------------------------------------------------------------
      1          6           0        0.675285   -1.758345    0.928337
      2          6           0        0.821822   -0.584196   -0.015891
      3          8           0        2.070724   -0.560662   -0.656881
      4          6           0       -0.312515   -0.094224   -0.946701
      5          6           0       -1.616370   -0.073850   -0.228451
      6          8           0       -2.732195   -0.409496   -0.517663
      7          6           0       -1.040633    0.746628    0.956143
      8          6           0        0.303161    0.790817    0.204852
      9          6           0        1.141118    2.031310    0.086959
     10          1           0        0.786540   -2.699226    0.375654
     11          1           0        1.455246   -1.723086    1.695644
     12          1           0       -0.299171   -1.786655    1.418662
     13          1           0        2.177356   -1.393995   -1.128638
     14          1           0       -0.139520   -0.084629   -2.016420
     15          1           0       -1.524860    1.728195    0.986542
     16          1           0       -1.065699    0.311271    1.958565
     17          1           0        0.539160    2.877648   -0.260612
     18          1           0        1.562343    2.303442    1.062195
     19          1           0        1.969165    1.879466   -0.606736
 ---------------------------------------------------------------------

 SCF Done:  E(RB3LYP) =  -423.179622501     A.U. after    1 cycles

 The electronic state is 1-A.
 Alpha  occ. eigenvalues --  -19.15846 -19.12283 -10.26401 -10.26290 -10.21670
 Alpha  occ. eigenvalues --  -10.19552 -10.19266 -10.19128 -10.18437  -1.04828
 Alpha  occ. eigenvalues --   -1.03294  -0.89890  -0.74716  -0.72975  -0.70629
 Alpha  occ. eigenvalues --   -0.62757  -0.55082  -0.52915  -0.50826  -0.47993
 Alpha  occ. eigenvalues --   -0.46221  -0.44295  -0.42581  -0.41110  -0.40572
 Alpha  occ. eigenvalues --   -0.40548  -0.39907  -0.37514  -0.36574  -0.34705
 Alpha  occ. eigenvalues --   -0.32224  -0.28091  -0.26235  -0.23493
 Alpha virt. eigenvalues --   -0.00712   0.05977   0.08919   0.10671   0.12584
 Alpha virt. eigenvalues --    0.13088   0.13907   0.14303   0.15212   0.15986
 Alpha virt. eigenvalues --    0.18034   0.18983   0.20284   0.20823   0.21987

 Mulliken charges:
               1
     1  C   -0.467160
     2  C    0.362097
     3  O   -0.464018
     4  C   -0.298341
     5  C    0.419232
     6  O   -0.328634
     7  C   -0.430479
     8  C    0.283589
     9  C   -0.493448
    10  H    0.116603
    11  H    0.131439
    12  H    0.137318
    13  H    0.287364
    14  H    0.104066
    15  H    0.131805
    16  H    0.116895
    17  H    0.120560
    18  H    0.124837
    19  H    0.146274
 Sum of Mulliken charges =   0.00000

 Dipole moment (field-independent basis, Debye):
    X=              2.7332    Y=             -0.2082    Z=              0.5765  Tot=              2.8011
 Quadrupole moment (field-independent basis, Debye-Ang):
   XX=            -64.9032   YY=            -48.5965   ZZ=            -50.7259
   XY=             -5.0263   XZ=             -3.4835   YZ=              1.1702

  Exact polarizability:  86.030  -0.128  77.071   0.107   3.458  69.330
 Approx polarizability: 133.160   3.286 107.446   3.507   8.766 107.151

                      1                      2                      3
                      A                      A                      A
 Frequencies --    102.3685               183.0711               192.1681
 Red. masses --      5.2511                 2.6809                 1.0566
 Frc consts  --      0.0324                 0.0529                 0.0230
 IR Inten    --      4.6955                 0.8397                 0.2610

                      4                      5                      6
                      A                      A                      A
 Frequencies --    208.4358               244.4675               291.9363
 Red. masses --      1.0739                 3.2922                 1.7870
 Frc consts  --      0.0275                 0.1159                 0.0897
 IR Inten    --      0.0332                 5.8962                29.9945

                      7                      8                      9
                      A                      A                      A
 Frequencies --    313.0351               326.1505               388.6749
 Red. masses --      2.0582                 1.7094                 3.6825
 Frc consts  --      0.1188                 0.1071                 0.3278
 IR Inten    --     16.4025                53.9504                14.5191

                     10                     11                     12
                      A                      A                      A
 Frequencies --    444.2719               478.1318               507.3804
 Red. masses --      2.3585                 4.3064                 3.4473
 Frc consts  --      0.2743                 0.5800                 0.5229
 IR Inten    --      0.3113                 9.5038                 1.8639

                     13                     14                     15
                      A                      A                      A
 Frequencies --    554.0939               616.8076               660.7389
 Red. masses --      3.3165                 3.1066                 3.4379
 Frc consts  --      0.5999                 0.6964                 0.8843
 IR Inten    --      1.9422                 4.9027                 6.4024

                     16                     17                     18
                      A                      A                      A
 Frequencies --    669.3184               823.5384               870.2022
 Red. masses --      3.1045                 2.6702                 3.1698
 Frc consts  --      0.8194                 1.0670                 1.4142
 IR Inten    --     13.6817                24.1870                 1.0497

                     19                     20                     21
                      A                      A                      A
 Frequencies --    924.6259               954.3289               968.5148
 Red. masses --      1.5198                 2.4552                 1.6739
 Frc consts  --      0.7655                 1.3174                 0.9251
 IR Inten    --     10.5338                 3.3022                 1.3447

                     22                     23                     24
                      A                      A                      A
 Frequencies --    988.1389              1062.9284              1070.4570
 Red. masses --      1.6561                 1.7728                 1.4537
 Frc consts  --      0.9528                 1.1801                 0.9814
 IR Inten    --     17.9256                19.7220                17.5002

                     25                     26                     27
                      A                      A                      A
 Frequencies --   1096.6966              1122.0989              1155.6487
 Red. masses --      1.6639                 1.9508                 2.3066
 Frc consts  --      1.1791                 1.4472                 1.8150
 IR Inten    --     11.0539                52.4864                21.3546

                     28                     29                     30
                      A                      A                      A
 Frequencies --   1170.4547              1208.1790              1235.7973
 Red. masses --      2.2869                 1.6628                 2.5183
 Frc consts  --      1.8459                 1.4300                 2.2660
 IR Inten    --     41.3666                20.0424                92.9302

                     31                     32                     33
                      A                      A                      A
 Frequencies --   1274.6360              1305.4472              1413.1382
 Red. masses --      2.7227                 2.0072                 1.2642
 Frc consts  --      2.6062                 2.0154                 1.4874
 IR Inten    --     21.4553                17.6090                 5.1657

                     34                     35                     36
                      A                      A                      A
 Frequencies --   1417.8021              1450.0818              1467.6328
 Red. masses --      1.2603                 1.4338                 1.3187
 Frc consts  --      1.4926                 1.7763                 1.6735
 IR Inten    --      1.0181                 6.4102                 6.2190

                     37                     38                     39
                      A                      A                      A
 Frequencies --   1489.8411              1492.6813              1494.8095
 Red. masses --      1.0501                 1.0636                 1.0511
 Frc consts  --      1.3733                 1.3963                 1.3838
 IR Inten    --      7.0024                 2.7076                 2.9161

                     40                     41                     42
                      A                      A                      A
 Frequencies --   1512.9311              1870.3429              3030.5217
 Red. masses --      1.5203                12.3906                 1.0403
 Frc consts  --      2.0503                25.5378                 5.6291
 IR Inten    --      8.2122               373.9632                44.6408

                     43                     44                     45
                      A                      A                      A
 Frequencies --   3031.4809              3055.6623              3086.3038
 Red. masses --      1.0403                 1.0584                 1.0994
 Frc consts  --      5.6325                 5.8226                 6.1700
 IR Inten    --     10.6209                14.6388                18.8188

                     46                     47                     48
                      A                      A                      A
 Frequencies --   3093.2143              3106.5737              3135.6683
 Red. masses --      1.0977                 1.1058                 1.0989
 Frc consts  --      6.1882                 6.2879                 6.3663
 IR Inten    --     16.5543                15.7592                13.0478

                     49                     50                     51
                      A                      A                      A
 Frequencies --   3142.4989              3190.8154              3802.3057
 Red. masses --      1.0973                 1.0933                 1.0661
 Frc consts  --      6.3845                 6.5586                 9.0811
 IR Inten    --      6.6641                 4.9197                24.6421

 - Thermochemistry -
 -------------------
 Temperature   298.150 Kelvin.  Pressure   1.00000 Atm.
 Atom     1 has atomic number  6 and mass  12.00000

 Molecular mass:   126.06808 amu.
 Principal axes and moments of inertia in atomic units:
                           1         2         3
     Eigenvalues --   749.417661223.456801535.90467
           X            0.99987  -0.00923  -0.01320
           Y            0.00896   0.99975  -0.02039
           Z            0.01339   0.02027   0.99970
 This molecule is an asymmetric top.
 Rotational symmetry number  1.
 Warning -- assumption of classical behavior for rotation
           may cause significant error
 Rotational temperatures (Kelvin)      0.11557     0.07079     0.05639
 Rotational constants (GHZ):           2.40819     1.47512     1.17503
 Zero-point vibrational energy     410899.6 (Joules/Mol)
                                   98.20736 (Kcal/Mol)
 Warning -- explicit consideration of  14 degrees of freedom as
           vibrations may cause significant error
 Vibrational temperatures:    147.29   263.40   276.49   299.89   351.73
          (Kelvin)            420.03   450.39   469.26   559.22   639.21
                              687.92   730.01   797.22   887.45   950.65
                              963.00  1184.89  1252.03  1330.33  1373.06
                             1393.48  1421.71  1529.31  1540.15  1577.90
                             1614.45  1662.72  1684.02  1738.30  1778.03
                             1833.91  1878.24  2033.19  2039.90  2086.34
                             2111.59  2143.55  2147.63  2150.69  2176.77
                             2691.00  4360.24  4361.62  4396.41  4440.50
                             4450.44  4469.66  4511.52  4521.35  4590.87
                             5470.66

 Zero-point correction=                           0.156503 (Hartree/Particle)
 Thermal correction to Energy=                    0.165684
 Thermal correction to Enthalpy=                  0.166628
 Thermal correction to Gibbs Free Energy=         0.123298
 Sum of electronic and zero-point Energies=           -423.023119
 Sum of electronic and thermal Energies=              -423.013939
 Sum of electronic and thermal Enthalpies=            -423.012995
 Sum of electronic and thermal Free Energies=         -423.056325

                     E (Thermal)             CV                S
                      KCal/Mol        Cal/Mol-Kelvin    Cal/Mol-Kelvin
 Total                  103.968             35.371             91.195
 Electronic               0.000              0.000              0.000
 Translational            0.889              2.981             40.409
 Rotational               0.889              2.981             28.734
 Vibrational            102.191             29.409             22.053
 Vibration     1          0.604              1.947              3.409
 Vibration     2          0.631              1.863              2.297
 Vibration     3          0.634              1.851              2.207
 Vibration     4          0.642              1.828              2.057
 Vibration     5          0.660              1.772              1.770
 Vibration     6          0.687              1.689              1.463
 Vibration     7          0.701              1.649              1.346
 Vibration     8          0.710              1.623              1.279
 Vibration     9          0.757              1.494              1.005
 Vibration    10          0.804              1.374              0.813
 Vibration    11          0.835              1.299              0.715
 Vibration    12          0.863              1.234              0.640
 Vibration    13          0.910              1.131              0.536
 Vibration    14          0.976              0.996              0.422

 Normal termination of Gaussian 09 at Mon Jan 27 17:56:50 2020.
