 Gaussian 09, Revision D.01,
 Gaussian 09:  ES64L-G09RevD.01 24-Apr-2013

 -----------------------------
 # b3lyp 6-31G(2df,p) opt Freq
 -----------------------------

 -----
 titel
 -----
 Symbolic Z-matrix:
 Charge =  0 Multiplicity = 1

 SCF Done:  E(RB3LYP) =  -423.127049844     A.U. after   13 cycles
 Optimization completed.
    -- Stationary point found.
 Normal termination of Gaussian 09 at Tue Jan 28 09:53:54 2020.

 ----------------------------------------------------------------------
 #N Geom=AllCheck Guess=TCheck SCRF=Check GenChk RB3LYP/6-31G(2df,p) Fr
 eq
 ----------------------------------------------------------------------

 Structure from the checkpoint file:  "/scratch/puck/g09_a2a6120f-11d8-4d95-b8e7-c4a88eea8de0/Gau-96650.chk"
 -----
 titel
 -----
 Charge =  0 Multiplicity = 1

                         Standard orientation:
 ---------------------------------------------------------------------
 Center     Atomic      Atomic             Coordinates (Angstroms)
 Number     Number       Type             X           Y           Z
 ---------------------------------------------------------------------
      1          8           0        2.728187   -0.848111   -0.233205
      2          6           0        2.158853    0.393693    0.171673
      3          6           0        0.672459    0.262286    0.153448
      4          6           0       -0.161767   -0.786295    0.892145
      5          6           0       -1.330824   -0.338769   -0.022966
      6          8           0       -2.413911   -1.151789   -0.295631
      7          6           0       -1.634638    1.106323    0.425599
      8          6           0       -0.256131    1.455128   -0.136093
      9          6           0       -0.243648    0.252408   -1.046876
     10          1           0        3.677316   -0.801538   -0.084724
     11          1           0        2.498622    0.665435    1.184600
     12          1           0        2.463218    1.210365   -0.503676
     13          1           0        0.192646   -1.790729    0.639218
     14          1           0       -0.305534   -0.699496    1.976331
     15          1           0       -2.090774   -2.043261   -0.464782
     16          1           0       -2.430366    1.542458   -0.184113
     17          1           0       -1.842161    1.269943    1.489459
     18          1           0        0.145646    2.439535   -0.339919
     19          1           0       -0.048650    0.137848   -2.103273
 ---------------------------------------------------------------------

 SCF Done:  E(RB3LYP) =  -423.127049844     A.U. after    1 cycles

 The electronic state is 1-A.
 Alpha  occ. eigenvalues --  -19.14293 -19.13247 -10.23993 -10.22932 -10.19183
 Alpha  occ. eigenvalues --  -10.18981 -10.17849 -10.17640 -10.17527  -1.03023
 Alpha  occ. eigenvalues --   -1.01277  -0.92048  -0.73609  -0.70942  -0.67321
 Alpha  occ. eigenvalues --   -0.60784  -0.54264  -0.52885  -0.51981  -0.49873
 Alpha  occ. eigenvalues --   -0.46120  -0.45032  -0.43683  -0.41234  -0.39557
 Alpha  occ. eigenvalues --   -0.37344  -0.36841  -0.34706  -0.33485  -0.29346
 Alpha  occ. eigenvalues --   -0.27742  -0.26823  -0.24768  -0.24398
 Alpha virt. eigenvalues --    0.07354   0.07847   0.11123   0.12285   0.13019
 Alpha virt. eigenvalues --    0.13504   0.14716   0.15126   0.16450   0.17156
 Alpha virt. eigenvalues --    0.18526   0.19204   0.19850   0.21448   0.22383

 Mulliken charges:
               1
     1  O   -0.421410
     2  C   -0.212650
     3  C    0.380624
     4  C   -0.354190
     5  C    0.392616
     6  O   -0.475259
     7  C   -0.270620
     8  C   -0.124672
     9  C   -0.210377
    10  H    0.285966
    11  H    0.088385
    12  H    0.084707
    13  H    0.101080
    14  H    0.084902
    15  H    0.281751
    16  H    0.106736
    17  H    0.087702
    18  H    0.082878
    19  H    0.091832
 Sum of Mulliken charges =   0.00000

 Dipole moment (field-independent basis, Debye):
    X=              2.0025    Y=              0.2689    Z=              0.2367  Tot=              2.0342
 Quadrupole moment (field-independent basis, Debye-Ang):
   XX=            -51.2065   YY=            -49.8565   ZZ=            -52.9562
   XY=              2.1316   XZ=              1.0758   YZ=              0.1451

  Exact polarizability:  85.730  -1.075  74.704  -0.009  -0.296  66.481
 Approx polarizability: 113.890  -0.814 112.242   1.385   1.740 104.371

                      1                      2                      3
                      A                      A                      A
 Frequencies --     92.5450               137.8247               228.4656
 Red. masses --      3.6081                 5.0666                 1.6173
 Frc consts  --      0.0182                 0.0567                 0.0497
 IR Inten    --      2.7275                 3.1004                54.3768

                      4                      5                      6
                      A                      A                      A
 Frequencies --    266.4136               303.3833               325.1349
 Red. masses --      1.3118                 1.5919                 2.3589
 Frc consts  --      0.0549                 0.0863                 0.1469
 IR Inten    --     24.0617                67.6614                29.7460

                      7                      8                      9
                      A                      A                      A
 Frequencies --    353.9953               407.4499               462.5677
 Red. masses --      2.2774                 3.1490                 2.0887
 Frc consts  --      0.1681                 0.3080                 0.2633
 IR Inten    --     28.7908                 4.8756                 0.0295

                     10                     11                     12
                      A                      A                      A
 Frequencies --    500.6582               591.9782               659.8026
 Red. masses --      2.4261                 4.5612                 3.4801
 Frc consts  --      0.3583                 0.9418                 0.8926
 IR Inten    --      3.5841                18.0155                 2.8198

                     13                     14                     15
                      A                      A                      A
 Frequencies --    740.5552               758.3910               830.2246
 Red. masses --      2.6467                 3.3424                 1.3471
 Frc consts  --      0.8552                 1.1326                 0.5471
 IR Inten    --      2.5244                 3.4079                14.4116

                     16                     17                     18
                      A                      A                      A
 Frequencies --    876.9600               906.4751               914.2988
 Red. masses --      2.3510                 3.1037                 2.3449
 Frc consts  --      1.0653                 1.5026                 1.1549
 IR Inten    --      1.8618                11.6444                 1.2622

                     19                     20                     21
                      A                      A                      A
 Frequencies --    954.7812               961.0348               989.1106
 Red. masses --      1.5492                 1.6516                 1.6781
 Frc consts  --      0.8321                 0.8988                 0.9673
 IR Inten    --      1.6288                 6.4983                 2.3895

                     22                     23                     24
                      A                      A                      A
 Frequencies --   1045.6941              1055.3779              1063.3386
 Red. masses --      1.8460                 3.7523                 2.5246
 Frc consts  --      1.1893                 2.4625                 1.6819
 IR Inten    --      4.6026                22.2619                64.9660

                     25                     26                     27
                      A                      A                      A
 Frequencies --   1079.9739              1115.6782              1125.2877
 Red. masses --      1.9226                 1.7800                 1.3885
 Frc consts  --      1.3212                 1.3054                 1.0359
 IR Inten    --     16.2654                18.7759                 3.4934

                     28                     29                     30
                      A                      A                      A
 Frequencies --   1135.5136              1185.3684              1205.3733
 Red. masses --      1.4765                 1.5930                 1.6221
 Frc consts  --      1.1217                 1.3188                 1.3886
 IR Inten    --     18.3269                21.9790                12.8522

                     31                     32                     33
                      A                      A                      A
 Frequencies --   1234.3560              1245.8513              1264.7531
 Red. masses --      1.6676                 1.2559                 1.4074
 Frc consts  --      1.4970                 1.1485                 1.3264
 IR Inten    --      6.9782                54.0777                 3.3953

                     34                     35                     36
                      A                      A                      A
 Frequencies --   1308.7183              1342.0332              1386.1874
 Red. masses --      2.0972                 2.3011                 2.2740
 Frc consts  --      2.1163                 2.4418                 2.5744
 IR Inten    --    100.0314               130.4380                 7.9316

                     37                     38                     39
                      A                      A                      A
 Frequencies --   1409.9893              1472.0866              1491.8058
 Red. masses --      2.0538                 1.7569                 1.2108
 Frc consts  --      2.4057                 2.2432                 1.5876
 IR Inten    --      1.8957                20.4197                 3.3280

                     40                     41                     42
                      A                      A                      A
 Frequencies --   1510.3493              1513.9021              2957.1342
 Red. masses --      1.0922                 1.1984                 1.0547
 Frc consts  --      1.4679                 1.6183                 5.4340
 IR Inten    --      1.5891                 8.0536                64.3113

                     43                     44                     45
                      A                      A                      A
 Frequencies --   2983.8305              3021.4514              3034.8466
 Red. masses --      1.1058                 1.0598                 1.0608
 Frc consts  --      5.8006                 5.7002                 5.7564
 IR Inten    --     54.1643                40.1984                69.4770

                     46                     47                     48
                      A                      A                      A
 Frequencies --   3088.5741              3104.2008              3193.3507
 Red. masses --      1.1039                 1.1033                 1.0913
 Frc consts  --      6.2044                 6.2639                 6.5570
 IR Inten    --     24.2734                24.7451                15.9044

                     49                     50                     51
                      A                      A                      A
 Frequencies --   3224.5456              3807.1053              3827.3832
 Red. masses --      1.0983                 1.0657                 1.0663
 Frc consts  --      6.7284                 9.1007                 9.2028
 IR Inten    --      4.9811                21.4304                16.5408

 - Thermochemistry -
 -------------------
 Temperature   298.150 Kelvin.  Pressure   1.00000 Atm.
 Atom     1 has atomic number  8 and mass  15.99491

 Molecular mass:   126.06808 amu.
 Principal axes and moments of inertia in atomic units:
                           1         2         3
     Eigenvalues --   523.721141463.183361693.60561
           X            1.00000   0.00049  -0.00096
           Y           -0.00050   0.99992  -0.01254
           Z            0.00096   0.01254   0.99992
 This molecule is an asymmetric top.
 Rotational symmetry number  1.
 Warning -- assumption of classical behavior for rotation
           may cause significant error
 Rotational temperatures (Kelvin)      0.16538     0.05920     0.05114
 Rotational constants (GHZ):           3.44600     1.23343     1.06562
 Zero-point vibrational energy     416875.3 (Joules/Mol)
                                   99.63559 (Kcal/Mol)
 Warning -- explicit consideration of  11 degrees of freedom as
           vibrations may cause significant error
 Vibrational temperatures:    133.15   198.30   328.71   383.31   436.50
          (Kelvin)            467.80   509.32   586.23   665.53   720.33
                              851.72   949.31  1065.49  1091.15  1194.51
                             1261.75  1304.21  1315.47  1373.72  1382.71
                             1423.11  1504.52  1518.45  1529.91  1553.84
                             1605.21  1619.04  1633.75  1705.48  1734.26
                             1775.96  1792.50  1819.70  1882.95  1930.88
                             1994.41  2028.66  2118.00  2146.37  2173.05
                             2178.16  4254.65  4293.06  4347.19  4366.46
                             4443.76  4466.25  4594.51  4639.40  5477.57
                             5506.74

 Zero-point correction=                           0.158779 (Hartree/Particle)
 Thermal correction to Energy=                    0.167104
 Thermal correction to Enthalpy=                  0.168049
 Thermal correction to Gibbs Free Energy=         0.126130
 Sum of electronic and zero-point Energies=           -422.968270
 Sum of electronic and thermal Energies=              -422.959945
 Sum of electronic and thermal Enthalpies=            -422.959001
 Sum of electronic and thermal Free Energies=         -423.000919

                     E (Thermal)             CV                S
                      KCal/Mol        Cal/Mol-Kelvin    Cal/Mol-Kelvin
 Total                  104.860             32.809             88.224
 Electronic               0.000              0.000              0.000
 Translational            0.889              2.981             40.409
 Rotational               0.889              2.981             28.653
 Vibrational            103.082             26.847             19.163
 Vibration     1          0.602              1.955              3.606
 Vibration     2          0.614              1.916              2.834
 Vibration     3          0.651              1.798              1.891
 Vibration     4          0.672              1.735              1.619
 Vibration     5          0.695              1.667              1.398
 Vibration     6          0.709              1.625              1.284
 Vibration     7          0.730              1.567              1.148
 Vibration     8          0.772              1.454              0.936
 Vibration     9          0.820              1.333              0.759
 Vibration    10          0.856              1.249              0.656
 Vibration    11          0.949              1.049              0.464

 Normal termination of Gaussian 09 at Tue Jan 28 10:37:38 2020.
