 Gaussian 09, Revision D.01,
 Gaussian 09:  ES64L-G09RevD.01 24-Apr-2013

 -----------------------------
 # b3lyp 6-31G(2df,p) opt Freq
 -----------------------------

 -----
 titel
 -----
 Symbolic Z-matrix:
 Charge =  0 Multiplicity = 1

 SCF Done:  E(RB3LYP) =  -423.193325405     A.U. after   14 cycles
 Optimization completed.
    -- Stationary point found.
 Normal termination of Gaussian 09 at Mon Jan 27 13:31:59 2020.

 ----------------------------------------------------------------------
 #N Geom=AllCheck Guess=TCheck SCRF=Check GenChk RB3LYP/6-31G(2df,p) Fr
 eq
 ----------------------------------------------------------------------

 Structure from the checkpoint file:  "/scratch/puck/g09_3c264f90-b910-4aec-bb23-300312f435cb/Gau-2033.chk"
 -----
 titel
 -----
 Charge =  0 Multiplicity = 1

                         Standard orientation:
 ---------------------------------------------------------------------
 Center     Atomic      Atomic             Coordinates (Angstroms)
 Number     Number       Type             X           Y           Z
 ---------------------------------------------------------------------
      1          8           0        3.105094    0.200274   -0.221787
      2          6           0        2.276109   -0.599593    0.137001
      3          6           0        0.868424   -0.265355    0.535994
      4          6           0        0.462190    1.227026    0.494945
      5          6           0       -0.600780    0.928923   -0.600210
      6          6           0       -2.069262    0.878318   -0.153736
      7          6           0       -2.182105   -0.504109    0.510001
      8          8           0       -1.295524   -1.349307   -0.223331
      9          6           0       -0.185128   -0.577343   -0.606952
     10          1           0        2.506013   -1.690074    0.150640
     11          1           0        0.616382   -0.815374    1.448197
     12          1           0        0.066887    1.628498    1.431410
     13          1           0        1.283803    1.860403    0.156373
     14          1           0       -0.464357    1.476071   -1.533556
     15          1           0       -2.339096    1.692715    0.524378
     16          1           0       -2.728984    0.927762   -1.025271
     17          1           0       -1.885641   -0.459055    1.569620
     18          1           0       -3.179957   -0.945495    0.455769
     19          1           0        0.231706   -1.010391   -1.518873
 ---------------------------------------------------------------------

 SCF Done:  E(RB3LYP) =  -423.193325406     A.U. after    1 cycles

 The electronic state is 1-A.
 Alpha  occ. eigenvalues --  -19.14862 -19.13865 -10.26888 -10.24250 -10.23435
 Alpha  occ. eigenvalues --  -10.19513 -10.19464 -10.19172 -10.18537  -1.04857
 Alpha  occ. eigenvalues --   -1.04406  -0.84483  -0.77304  -0.70331  -0.66974
 Alpha  occ. eigenvalues --   -0.60255  -0.57840  -0.54100  -0.51979  -0.48827
 Alpha  occ. eigenvalues --   -0.46842  -0.46686  -0.43498  -0.42228  -0.41026
 Alpha  occ. eigenvalues --   -0.39194  -0.37267  -0.36272  -0.34676  -0.33646
 Alpha  occ. eigenvalues --   -0.31280  -0.30151  -0.26342  -0.24538
 Alpha virt. eigenvalues --   -0.02144   0.07581   0.08104   0.10831   0.12626
 Alpha virt. eigenvalues --    0.13413   0.14200   0.14375   0.15216   0.15921
 Alpha virt. eigenvalues --    0.16876   0.18217   0.19882   0.21086   0.21610

 Mulliken charges:
               1
     1  O   -0.244519
     2  C    0.126031
     3  C   -0.104084
     4  C   -0.266499
     5  C   -0.031548
     6  C   -0.232497
     7  C   -0.090299
     8  O   -0.247702
     9  C    0.088578
    10  H    0.079127
    11  H    0.096337
    12  H    0.098316
    13  H    0.131455
    14  H    0.081424
    15  H    0.105929
    16  H    0.110873
    17  H    0.095120
    18  H    0.114583
    19  H    0.089375
 Sum of Mulliken charges =   0.00000

 Dipole moment (field-independent basis, Debye):
    X=             -2.3925    Y=              0.2419    Z=              0.7980  Tot=              2.5336
 Quadrupole moment (field-independent basis, Debye-Ang):
   XX=            -60.3634   YY=            -54.6528   ZZ=            -51.0547
   XY=             -5.0784   XZ=              0.6726   YZ=             -0.6551

  Exact polarizability:  92.736  -0.927  71.915  -2.102  -0.970  63.445
 Approx polarizability: 124.585   6.527 110.004  -4.710  -1.711  98.776

                      1                      2                      3
                      A                      A                      A
 Frequencies --     62.9077                80.7167               194.5916
 Red. masses --      3.7324                 3.9638                 3.0499
 Frc consts  --      0.0087                 0.0152                 0.0680
 IR Inten    --      1.1044                 6.2649                 5.6519

                      4                      5                      6
                      A                      A                      A
 Frequencies --    209.6912               270.3570               371.1543
 Red. masses --      2.4570                 2.7275                 2.4304
 Frc consts  --      0.0637                 0.1175                 0.1973
 IR Inten    --      3.0337                 0.6412                 3.3985

                      7                      8                      9
                      A                      A                      A
 Frequencies --    385.5338               591.2140               653.5745
 Red. masses --      3.2147                 2.9644                 3.1846
 Frc consts  --      0.2815                 0.6105                 0.8015
 IR Inten    --      5.5057                 2.3094                 8.1134

                     10                     11                     12
                      A                      A                      A
 Frequencies --    667.8496               775.6106               799.5119
 Red. masses --      2.4924                 3.7780                 2.5747
 Frc consts  --      0.6550                 1.3391                 0.9697
 IR Inten    --     10.1265                10.7836                 6.5352

                     13                     14                     15
                      A                      A                      A
 Frequencies --    845.1439               865.0046               882.3355
 Red. masses --      2.2231                 2.3121                 2.1971
 Frc consts  --      0.9356                 1.0193                 1.0078
 IR Inten    --      3.3869                 6.1769                47.5496

                     16                     17                     18
                      A                      A                      A
 Frequencies --    907.3821               949.6877               964.8579
 Red. masses --      2.5509                 2.0552                 2.5626
 Frc consts  --      1.2374                 1.0921                 1.4056
 IR Inten    --      5.0203                 0.4596                23.1006

                     19                     20                     21
                      A                      A                      A
 Frequencies --    979.7478               992.8875              1052.9031
 Red. masses --      2.1095                 1.6819                 1.9373
 Frc consts  --      1.1931                 0.9769                 1.2654
 IR Inten    --      8.1040                19.0493                11.8157

                     22                     23                     24
                      A                      A                      A
 Frequencies --   1079.2291              1103.3567              1121.5225
 Red. masses --      1.6384                 2.6501                 3.4629
 Frc consts  --      1.1243                 1.9009                 2.5663
 IR Inten    --      2.1608                43.1855                57.3964

                     25                     26                     27
                      A                      A                      A
 Frequencies --   1169.6540              1174.5958              1187.4025
 Red. masses --      1.3967                 1.7162                 1.4952
 Frc consts  --      1.1258                 1.3951                 1.2421
 IR Inten    --     47.7385                32.9584                 2.2801

                     28                     29                     30
                      A                      A                      A
 Frequencies --   1228.8828              1237.9349              1265.4078
 Red. masses --      1.4140                 1.2771                 1.4784
 Frc consts  --      1.2581                 1.1531                 1.3947
 IR Inten    --      0.8230                 2.6513                 0.1462

                     31                     32                     33
                      A                      A                      A
 Frequencies --   1272.8038              1306.7058              1331.8160
 Red. masses --      1.4210                 1.4435                 1.3083
 Frc consts  --      1.3563                 1.4522                 1.3672
 IR Inten    --      2.7418                 3.3001                 1.4235

                     34                     35                     36
                      A                      A                      A
 Frequencies --   1337.2063              1359.3455              1392.1035
 Red. masses --      1.5974                 1.3696                 1.3692
 Frc consts  --      1.6829                 1.4911                 1.5633
 IR Inten    --      4.6921                26.5128                 6.4527

                     37                     38                     39
                      A                      A                      A
 Frequencies --   1420.5682              1478.7302              1486.8613
 Red. masses --      1.1988                 1.0983                 1.0987
 Frc consts  --      1.4254                 1.4150                 1.4312
 IR Inten    --      8.4151                 4.5160                 5.9943

                     40                     41                     42
                      A                      A                      A
 Frequencies --   1518.3051              1816.4528              2866.5667
 Red. masses --      1.0919                10.0814                 1.0824
 Frc consts  --      1.4830                19.5983                 5.2405
 IR Inten    --      1.1374               174.7813               127.9206

                     43                     44                     45
                      A                      A                      A
 Frequencies --   2981.7331              3054.5212              3061.4263
 Red. masses --      1.0719                 1.0607                 1.0781
 Frc consts  --      5.6147                 5.8308                 5.9534
 IR Inten    --     48.9715                18.8448                22.1023

                     46                     47                     48
                      A                      A                      A
 Frequencies --   3069.4249              3084.1897              3098.4229
 Red. masses --      1.0683                 1.0877                 1.0940
 Frc consts  --      5.9302                 6.0961                 6.1881
 IR Inten    --     18.4132                25.1757                23.4124

                     49                     50                     51
                      A                      A                      A
 Frequencies --   3101.1660              3108.9445              3130.3102
 Red. masses --      1.0922                 1.1004                 1.1039
 Frc consts  --      6.1886                 6.2665                 6.3730
 IR Inten    --     15.8420                39.9123                12.4157

 - Thermochemistry -
 -------------------
 Temperature   298.150 Kelvin.  Pressure   1.00000 Atm.
 Atom     1 has atomic number  8 and mass  15.99491

 Molecular mass:   126.06808 amu.
 Principal axes and moments of inertia in atomic units:
                           1         2         3
     Eigenvalues --   466.230171559.337331787.99165
           X            0.99981  -0.01913  -0.00248
           Y            0.01910   0.99976  -0.01094
           Z            0.00269   0.01089   0.99994
 This molecule is an asymmetric top.
 Rotational symmetry number  1.
 Warning -- assumption of classical behavior for rotation
           may cause significant error
 Rotational temperatures (Kelvin)      0.18577     0.05555     0.04844
 Rotational constants (GHZ):           3.87092     1.15738     1.00937
 Zero-point vibrational energy     420776.0 (Joules/Mol)
                                  100.56788 (Kcal/Mol)
 Warning -- explicit consideration of   8 degrees of freedom as
           vibrations may cause significant error
 Vibrational temperatures:     90.51   116.13   279.97   301.70   388.98
          (Kelvin)            534.01   554.70   850.62   940.35   960.89
                             1115.93  1150.32  1215.97  1244.55  1269.48
                             1305.52  1366.39  1388.21  1409.64  1428.54
                             1514.89  1552.77  1587.48  1613.62  1682.87
                             1689.98  1708.41  1768.09  1781.11  1820.64
                             1831.28  1880.06  1916.18  1923.94  1955.79
                             2002.92  2043.88  2127.56  2139.26  2184.50
                             2613.47  4124.34  4290.04  4394.77  4404.70
                             4416.21  4437.46  4457.93  4461.88  4473.07
                             4503.81

 Zero-point correction=                           0.160265 (Hartree/Particle)
 Thermal correction to Energy=                    0.168189
 Thermal correction to Enthalpy=                  0.169133
 Thermal correction to Gibbs Free Energy=         0.127050
 Sum of electronic and zero-point Energies=           -423.033060
 Sum of electronic and thermal Energies=              -423.025136
 Sum of electronic and thermal Enthalpies=            -423.024192
 Sum of electronic and thermal Free Energies=         -423.066275

                     E (Thermal)             CV                S
                      KCal/Mol        Cal/Mol-Kelvin    Cal/Mol-Kelvin
 Total                  105.540             29.827             88.571
 Electronic               0.000              0.000              0.000
 Translational            0.889              2.981             40.409
 Rotational               0.889              2.981             28.654
 Vibrational            103.763             23.865             19.508
 Vibration     1          0.597              1.972              4.364
 Vibration     2          0.600              1.962              3.873
 Vibration     3          0.635              1.847              2.184
 Vibration     4          0.642              1.826              2.046
 Vibration     5          0.674              1.728              1.594
 Vibration     6          0.743              1.531              1.075
 Vibration     7          0.754              1.501              1.017
 Vibration     8          0.949              1.051              0.465

 Normal termination of Gaussian 09 at Mon Jan 27 15:23:32 2020.
