 Gaussian 09, Revision D.01,
 Gaussian 09:  ES64L-G09RevD.01 24-Apr-2013

 -----------------------------
 # b3lyp 6-31G(2df,p) opt Freq
 -----------------------------

 -----
 titel
 -----
 Symbolic Z-matrix:
 Charge =  0 Multiplicity = 1

 SCF Done:  E(RB3LYP) =  -423.179562928     A.U. after   14 cycles
 Optimization completed.
    -- Stationary point found.
 Normal termination of Gaussian 09 at Tue Jan 28 01:53:12 2020.

 ----------------------------------------------------------------------
 #N Geom=AllCheck Guess=TCheck SCRF=Check GenChk RB3LYP/6-31G(2df,p) Fr
 eq
 ----------------------------------------------------------------------

 Structure from the checkpoint file:  "/scratch/puck/g09_c7430aea-17e1-41e5-9c26-486e9c998cf1/Gau-190647.chk"
 -----
 titel
 -----
 Charge =  0 Multiplicity = 1

                         Standard orientation:
 ---------------------------------------------------------------------
 Center     Atomic      Atomic             Coordinates (Angstroms)
 Number     Number       Type             X           Y           Z
 ---------------------------------------------------------------------
      1          6           0       -2.399169    0.767257    0.865871
      2          6           0       -1.691812   -0.508891    0.496286
      3          8           0       -1.613100   -0.830012   -0.893319
      4          6           0       -0.401795   -0.524441   -0.228955
      5          6           0        0.820587   -1.446722   -0.085374
      6          6           0        1.763160   -0.207111   -0.259300
      7          6           0        2.605990    0.219554    0.941346
      8          6           0        0.508003    0.658886   -0.525327
      9          8           0        0.331780    1.803090   -0.833992
     10          1           0       -2.073628    1.585725    0.220665
     11          1           0       -3.482247    0.642172    0.764123
     12          1           0       -2.187553    1.031192    1.907469
     13          1           0       -1.889792   -1.375326    1.130980
     14          1           0        0.904535   -1.962493    0.874066
     15          1           0        0.897478   -2.177551   -0.893157
     16          1           0        2.388108   -0.269385   -1.156647
     17          1           0        1.999866    0.275628    1.852059
     18          1           0        3.417649   -0.491955    1.121674
     19          1           0        3.046359    1.206178    0.769974
 ---------------------------------------------------------------------

 SCF Done:  E(RB3LYP) =  -423.179562928     A.U. after    1 cycles

 The electronic state is 1-A.
 Alpha  occ. eigenvalues --  -19.16407 -19.14357 -10.26888 -10.25133 -10.24605
 Alpha  occ. eigenvalues --  -10.20317 -10.19621 -10.19082 -10.18405  -1.08664
 Alpha  occ. eigenvalues --   -1.04851  -0.84786  -0.75044  -0.73105  -0.63953
 Alpha  occ. eigenvalues --   -0.63290  -0.59874  -0.52304  -0.49405  -0.47642
 Alpha  occ. eigenvalues --   -0.46925  -0.44415  -0.42760  -0.41565  -0.40498
 Alpha  occ. eigenvalues --   -0.39700  -0.38471  -0.38393  -0.35689  -0.35475
 Alpha  occ. eigenvalues --   -0.33834  -0.30150  -0.28265  -0.23944
 Alpha virt. eigenvalues --   -0.03876   0.09292   0.10350   0.11352   0.12174
 Alpha virt. eigenvalues --    0.12949   0.14184   0.14716   0.15208   0.16813
 Alpha virt. eigenvalues --    0.17087   0.17506   0.18318   0.19013   0.20453

 Mulliken charges:
               1
     1  C   -0.428053
     2  C   -0.012350
     3  O   -0.278059
     4  C    0.326337
     5  C   -0.368531
     6  C   -0.099691
     7  C   -0.399862
     8  C    0.333095
     9  O   -0.312720
    10  H    0.159984
    11  H    0.131328
    12  H    0.122358
    13  H    0.098716
    14  H    0.112222
    15  H    0.124551
    16  H    0.108812
    17  H    0.119421
    18  H    0.124501
    19  H    0.137941
 Sum of Mulliken charges =   0.00000

 Dipole moment (field-independent basis, Debye):
    X=              1.0409    Y=             -1.8064    Z=              2.2435  Tot=              3.0627
 Quadrupole moment (field-independent basis, Debye-Ang):
   XX=            -49.9103   YY=            -57.4661   ZZ=            -53.3641
   XY=             -2.1390   XZ=             -3.6500   YZ=              1.1549

  Exact polarizability:  92.638  -1.509  74.466  -3.832  -1.198  64.987
 Approx polarizability: 119.828   0.476 115.660  -3.855  -4.543 101.338

                      1                      2                      3
                      A                      A                      A
 Frequencies --     39.7001               136.0243               183.3221
 Red. masses --      3.2600                 4.0193                 2.8282
 Frc consts  --      0.0030                 0.0438                 0.0560
 IR Inten    --      0.7683                 3.8194                 0.6032

                      4                      5                      6
                      A                      A                      A
 Frequencies --    199.5192               203.2917               213.4784
 Red. masses --      1.2160                 2.9560                 1.1035
 Frc consts  --      0.0285                 0.0720                 0.0296
 IR Inten    --      0.5206                 2.7827                 0.9461

                      7                      8                      9
                      A                      A                      A
 Frequencies --    259.6866               334.5865               358.0209
 Red. masses --      3.2764                 2.3504                 3.8076
 Frc consts  --      0.1302                 0.1550                 0.2876
 IR Inten    --      0.2899                 0.0330                 1.0169

                     10                     11                     12
                      A                      A                      A
 Frequencies --    451.6151               495.2866               586.0695
 Red. masses --      3.1731                 3.1552                 4.0105
 Frc consts  --      0.3813                 0.4560                 0.8116
 IR Inten    --      5.0134                 1.4324                 8.4747

                     13                     14                     15
                      A                      A                      A
 Frequencies --    709.2868               727.0981               782.1046
 Red. masses --      4.3291                 3.7558                 2.7227
 Frc consts  --      1.2832                 1.1699                 0.9813
 IR Inten    --      9.1297                 0.3351                 7.6581

                     16                     17                     18
                      A                      A                      A
 Frequencies --    833.6855               852.3861               910.2524
 Red. masses --      2.9064                 3.3036                 1.5082
 Frc consts  --      1.1902                 1.4142                 0.7362
 IR Inten    --      2.3293                13.6122                 2.5663

                     19                     20                     21
                      A                      A                      A
 Frequencies --    940.5935               967.3456              1038.9733
 Red. masses --      2.1538                 1.5434                 2.2903
 Frc consts  --      1.1227                 0.8509                 1.4566
 IR Inten    --     71.5494                10.1171                 6.4577

                     22                     23                     24
                      A                      A                      A
 Frequencies --   1065.6706              1076.4556              1115.6991
 Red. masses --      1.6703                 2.0628                 2.1498
 Frc consts  --      1.1176                 1.4083                 1.5767
 IR Inten    --     12.9513                 0.6540                16.4728

                     25                     26                     27
                      A                      A                      A
 Frequencies --   1119.5312              1144.7924              1171.3745
 Red. masses --      2.6072                 2.1544                 1.6138
 Frc consts  --      1.9253                 1.6635                 1.3046
 IR Inten    --     52.6379                14.2419                 0.1422

                     28                     29                     30
                      A                      A                      A
 Frequencies --   1185.9116              1227.7586              1250.4609
 Red. masses --      1.5927                 1.5736                 1.5079
 Frc consts  --      1.3197                 1.3976                 1.3892
 IR Inten    --      1.8187                 3.9443                 1.7417

                     31                     32                     33
                      A                      A                      A
 Frequencies --   1318.4251              1347.9275              1406.8598
 Red. masses --      1.6349                 1.4280                 1.2164
 Frc consts  --      1.6744                 1.5286                 1.4185
 IR Inten    --      3.3863                 2.2944                 1.5527

                     34                     35                     36
                      A                      A                      A
 Frequencies --   1409.4358              1455.5922              1479.2385
 Red. masses --      1.2870                 1.9570                 1.1137
 Frc consts  --      1.5063                 2.4430                 1.4358
 IR Inten    --      9.3885                28.1808                 5.3446

                     37                     38                     39
                      A                      A                      A
 Frequencies --   1490.0353              1495.7700              1497.1260
 Red. masses --      1.0691                 1.0495                 1.0512
 Frc consts  --      1.3985                 1.3834                 1.3882
 IR Inten    --      4.9740                 2.5087                 6.3633

                     40                     41                     42
                      A                      A                      A
 Frequencies --   1503.1405              1877.8902              3034.3508
 Red. masses --      1.3534                12.7267                 1.0351
 Frc consts  --      1.8016                26.4428                 5.6150
 IR Inten    --      6.1338               190.7931                21.8046

                     43                     44                     45
                      A                      A                      A
 Frequencies --   3039.3674              3054.3420              3071.1870
 Red. masses --      1.0366                 1.0832                 1.0597
 Frc consts  --      5.6419                 5.9541                 5.8891
 IR Inten    --     17.8771                 7.9030                14.2034

                     46                     47                     48
                      A                      A                      A
 Frequencies --   3088.6237              3102.4360              3102.8305
 Red. masses --      1.0867                 1.1008                 1.1013
 Frc consts  --      6.1079                 6.2423                 6.2468
 IR Inten    --     25.1816                22.5668                17.9704

                     49                     50                     51
                      A                      A                      A
 Frequencies --   3113.8130              3125.1479              3142.1777
 Red. masses --      1.1019                 1.1075                 1.1011
 Frc consts  --      6.2946                 6.3728                 6.4052
 IR Inten    --     14.8041                15.0086                 7.1861

 - Thermochemistry -
 -------------------
 Temperature   298.150 Kelvin.  Pressure   1.00000 Atm.
 Atom     1 has atomic number  6 and mass  12.00000

 Molecular mass:   126.06808 amu.
 Principal axes and moments of inertia in atomic units:
                           1         2         3
     Eigenvalues --   674.597651432.285151644.95162
           X            0.99943  -0.03244  -0.00901
           Y            0.03281   0.99848   0.04420
           Z            0.00756  -0.04447   0.99898
 This molecule is an asymmetric top.
 Rotational symmetry number  1.
 Warning -- assumption of classical behavior for rotation
           may cause significant error
 Rotational temperatures (Kelvin)      0.12839     0.06047     0.05265
 Rotational constants (GHZ):           2.67529     1.26004     1.09714
 Zero-point vibrational energy     411130.8 (Joules/Mol)
                                   98.26261 (Kcal/Mol)
 Warning -- explicit consideration of  12 degrees of freedom as
           vibrations may cause significant error
 Vibrational temperatures:     57.12   195.71   263.76   287.06   292.49
          (Kelvin)            307.15   373.63   481.39   515.11   649.77
                              712.61   843.22  1020.50  1046.13  1125.27
                             1199.49  1226.39  1309.65  1353.30  1391.79
                             1494.85  1533.26  1548.78  1605.24  1610.75
                             1647.10  1685.34  1706.26  1766.47  1799.13
                             1896.92  1939.36  2024.15  2027.86  2094.27
                             2128.29  2143.83  2152.08  2154.03  2162.68
                             2701.86  4365.75  4372.97  4394.51  4418.75
                             4443.84  4463.71  4464.28  4480.08  4496.39
                             4520.89

 Zero-point correction=                           0.156591 (Hartree/Particle)
 Thermal correction to Energy=                    0.165910
 Thermal correction to Enthalpy=                  0.166854
 Thermal correction to Gibbs Free Energy=         0.122133
 Sum of electronic and zero-point Energies=           -423.022971
 Sum of electronic and thermal Energies=              -423.013653
 Sum of electronic and thermal Enthalpies=            -423.012709
 Sum of electronic and thermal Free Energies=         -423.057430

                     E (Thermal)             CV                S
                      KCal/Mol        Cal/Mol-Kelvin    Cal/Mol-Kelvin
 Total                  104.110             34.078             94.123
 Electronic               0.000              0.000              0.000
 Translational            0.889              2.981             40.409
 Rotational               0.889              2.981             28.854
 Vibrational            102.333             28.117             24.861
 Vibration     1          0.594              1.981              5.274
 Vibration     2          0.614              1.917              2.859
 Vibration     3          0.631              1.863              2.294
 Vibration     4          0.638              1.841              2.138
 Vibration     5          0.639              1.835              2.103
 Vibration     6          0.644              1.820              2.014
 Vibration     7          0.668              1.746              1.664
 Vibration     8          0.716              1.606              1.238
 Vibration     9          0.733              1.559              1.131
 Vibration    10          0.810              1.357              0.791
 Vibration    11          0.851              1.260              0.670
 Vibration    12          0.943              1.062              0.474

 Normal termination of Gaussian 09 at Tue Jan 28 02:39:45 2020.
