 Gaussian 09, Revision D.01,
 Gaussian 09:  ES64L-G09RevD.01 24-Apr-2013

 -----------------------------
 # b3lyp 6-31G(2df,p) opt Freq
 -----------------------------

 -----
 titel
 -----
 Symbolic Z-matrix:
 Charge =  0 Multiplicity = 1

 SCF Done:  E(RB3LYP) =  -423.110086155     A.U. after   14 cycles
 Optimization completed.
    -- Stationary point found.
 Normal termination of Gaussian 09 at Tue Jan 28 09:00:05 2020.

 ----------------------------------------------------------------------
 #N Geom=AllCheck Guess=TCheck SCRF=Check GenChk RB3LYP/6-31G(2df,p) Fr
 eq
 ----------------------------------------------------------------------

 Structure from the checkpoint file:  "/scratch/puck/g09_3f5339d6-28e8-4671-a0c2-16f8960f5e69/Gau-93662.chk"
 -----
 titel
 -----
 Charge =  0 Multiplicity = 1

                         Standard orientation:
 ---------------------------------------------------------------------
 Center     Atomic      Atomic             Coordinates (Angstroms)
 Number     Number       Type             X           Y           Z
 ---------------------------------------------------------------------
      1          6           0        0.272686    2.344409   -0.024207
      2          8           0       -0.037403    1.179173   -0.762939
      3          6           0       -0.388253    0.053531   -0.006236
      4          6           0        0.713446   -0.421918    0.962525
      5          6           0        1.981710   -0.695469    0.300385
      6          6           0        3.022479   -0.919709   -0.256889
      7          6           0       -0.962314   -1.068006   -0.891003
      8          8           0       -2.130378   -1.179381   -0.047814
      9          6           0       -1.801418    0.042519    0.641588
     10          1           0        1.225886    2.254938    0.513587
     11          1           0        0.358155    3.158999   -0.746610
     12          1           0       -0.519507    2.596939    0.696243
     13          1           0        0.855967    0.323063    1.755298
     14          1           0        0.346483   -1.327187    1.461117
     15          1           0        3.943129   -1.118562   -0.747107
     16          1           0       -1.207648   -0.713070   -1.898864
     17          1           0       -0.397078   -2.003519   -0.948850
     18          1           0       -2.424502    0.885292    0.314011
     19          1           0       -1.868652   -0.067373    1.730229
 ---------------------------------------------------------------------

 SCF Done:  E(RB3LYP) =  -423.110086155     A.U. after    1 cycles

 The electronic state is 1-A.
 Alpha  occ. eigenvalues --  -19.15109 -19.13638 -10.25182 -10.23210 -10.23113
 Alpha  occ. eigenvalues --  -10.22726 -10.21527 -10.18479 -10.17438  -1.05657
 Alpha  occ. eigenvalues --   -1.02937  -0.80541  -0.74376  -0.70590  -0.69225
 Alpha  occ. eigenvalues --   -0.66275  -0.55678  -0.53423  -0.51519  -0.49919
 Alpha  occ. eigenvalues --   -0.48664  -0.45645  -0.45068  -0.42288  -0.42183
 Alpha  occ. eigenvalues --   -0.41840  -0.39711  -0.35829  -0.32679  -0.30900
 Alpha  occ. eigenvalues --   -0.27425  -0.26847  -0.25915  -0.24899
 Alpha virt. eigenvalues --    0.04207   0.05027   0.07763   0.09226   0.11581
 Alpha virt. eigenvalues --    0.12588   0.12650   0.13562   0.14948   0.15357
 Alpha virt. eigenvalues --    0.16416   0.17049   0.17802   0.19437   0.19951

 Mulliken charges:
               1
     1  C   -0.260430
     2  O   -0.275787
     3  C    0.365039
     4  C   -0.440053
     5  C    0.317518
     6  C   -0.445087
     7  C   -0.120206
     8  O   -0.275074
     9  C   -0.128821
    10  H    0.121688
    11  H    0.134613
    12  H    0.107884
    13  H    0.130090
    14  H    0.146784
    15  H    0.198465
    16  H    0.110749
    17  H    0.112903
    18  H    0.099720
    19  H    0.100005
 Sum of Mulliken charges =   0.00000

 Dipole moment (field-independent basis, Debye):
    X=              0.9489    Y=              1.4247    Z=              1.0872  Tot=              2.0279
 Quadrupole moment (field-independent basis, Debye-Ang):
   XX=            -55.3360   YY=            -51.7220   ZZ=            -51.9608
   XY=             -3.5878   XZ=             -2.1495   YZ=              2.1707

  Exact polarizability:  90.256  -5.057  72.816  -8.959   3.680  66.900
 Approx polarizability: 128.672  -6.807  99.926 -20.169   5.902 104.192

                      1                      2                      3
                      A                      A                      A
 Frequencies --     58.6812                91.9896               114.9938
 Red. masses --      3.6670                 3.9272                 2.9959
 Frc consts  --      0.0074                 0.0196                 0.0233
 IR Inten    --      1.5301                 1.9463                 2.6831

                      4                      5                      6
                      A                      A                      A
 Frequencies --    133.0298               199.0071               254.4158
 Red. masses --      2.6002                 1.3660                 2.2317
 Frc consts  --      0.0271                 0.0319                 0.0851
 IR Inten    --      3.5379                 0.9007                 2.6274

                      7                      8                      9
                      A                      A                      A
 Frequencies --    310.7705               344.4407               374.8376
 Red. masses --      3.3868                 3.3257                 2.1262
 Frc consts  --      0.1927                 0.2325                 0.1760
 IR Inten    --      2.0462                 2.2747                 3.1715

                     10                     11                     12
                      A                      A                      A
 Frequencies --    388.4446               453.0076               534.8105
 Red. masses --      3.1642                 4.0481                 3.7581
 Frc consts  --      0.2813                 0.4895                 0.6333
 IR Inten    --      2.1960                 2.4980                 5.5258

                     13                     14                     15
                      A                      A                      A
 Frequencies --    625.9821               639.9480               708.5570
 Red. masses --      1.2091                 1.2606                 3.6151
 Frc consts  --      0.2792                 0.3042                 1.0693
 IR Inten    --     40.7189                35.5671                18.8994

                     16                     17                     18
                      A                      A                      A
 Frequencies --    821.7683               892.4339               894.1432
 Red. masses --      3.0785                 2.0553                 2.3853
 Frc consts  --      1.2249                 0.9644                 1.1236
 IR Inten    --      4.0055                 7.0729                11.4938

                     19                     20                     21
                      A                      A                      A
 Frequencies --    958.2068               983.1084               994.1868
 Red. masses --      1.7432                 2.2340                 4.0077
 Frc consts  --      0.9430                 1.2722                 2.3339
 IR Inten    --      1.3395                 0.8788                 7.5643

                     22                     23                     24
                      A                      A                      A
 Frequencies --   1027.4696              1082.0980              1096.6088
 Red. masses --     10.6546                 5.2067                 3.2671
 Frc consts  --      6.6271                 3.5921                 2.3148
 IR Inten    --     79.5061                23.3293                25.3176

                     25                     26                     27
                      A                      A                      A
 Frequencies --   1150.6892              1164.6387              1167.4342
 Red. masses --      1.1084                 1.6429                 1.5488
 Frc consts  --      0.8647                 1.3130                 1.2437
 IR Inten    --      0.2574                45.1481                30.8027

                     28                     29                     30
                      A                      A                      A
 Frequencies --   1180.6627              1215.8225              1269.1760
 Red. masses --      1.3152                 1.5134                 2.2882
 Frc consts  --      1.0802                 1.3181                 2.1717
 IR Inten    --      7.2980                13.8542                34.1860

                     31                     32                     33
                      A                      A                      A
 Frequencies --   1290.3035              1302.3385              1338.0584
 Red. masses --      1.6130                 1.3505                 1.5728
 Frc consts  --      1.5822                 1.3496                 1.6591
 IR Inten    --     58.9442                 4.0963                 4.3591

                     34                     35                     36
                      A                      A                      A
 Frequencies --   1383.2430              1464.6357              1482.4548
 Red. masses --      1.6525                 1.0934                 1.1217
 Frc consts  --      1.8628                 1.3820                 1.4524
 IR Inten    --     10.1137                 8.3146                 1.4401

                     37                     38                     39
                      A                      A                      A
 Frequencies --   1495.5447              1499.8200              1508.2416
 Red. masses --      1.0810                 1.0770                 1.0490
 Frc consts  --      1.4245                 1.4274                 1.4060
 IR Inten    --      4.1314                 0.5377                 5.0499

                     40                     41                     42
                      A                      A                      A
 Frequencies --   1526.2539              2240.3927              2988.2685
 Red. masses --      1.1138                 5.9227                 1.0383
 Frc consts  --      1.5287                17.5152                 5.4630
 IR Inten    --      2.7526                 1.0757                29.4396

                     43                     44                     45
                      A                      A                      A
 Frequencies --   3007.1896              3028.4011              3031.6946
 Red. masses --      1.0546                 1.0603                 1.0583
 Frc consts  --      5.6191                 5.7292                 5.7308
 IR Inten    --     71.0681                35.4382                13.7417

                     46                     47                     48
                      A                      A                      A
 Frequencies --   3046.7791              3060.9200              3063.7787
 Red. masses --      1.1000                 1.1043                 1.1052
 Frc consts  --      6.0160                 6.0961                 6.1126
 IR Inten    --     37.7995                24.1325                26.8551

                     49                     50                     51
                      A                      A                      A
 Frequencies --   3088.3409              3121.0855              3506.0765
 Red. masses --      1.1103                 1.0972                 1.1625
 Frc consts  --      6.2396                 6.2972                 8.4195
 IR Inten    --     31.3836                23.6275                65.8125

 - Thermochemistry -
 -------------------
 Temperature   298.150 Kelvin.  Pressure   1.00000 Atm.
 Atom     1 has atomic number  6 and mass  12.00000

 Molecular mass:   126.06808 amu.
 Principal axes and moments of inertia in atomic units:
                           1         2         3
     Eigenvalues --   800.417921318.617901751.58553
           X            0.99984  -0.01588  -0.00866
           Y            0.01613   0.99944   0.02922
           Z            0.00819  -0.02936   0.99954
 This molecule is an asymmetric top.
 Rotational symmetry number  1.
 Warning -- assumption of classical behavior for rotation
           may cause significant error
 Rotational temperatures (Kelvin)      0.10821     0.06569     0.04945
 Rotational constants (GHZ):           2.25475     1.36866     1.03035
 Zero-point vibrational energy     410350.1 (Joules/Mol)
                                   98.07603 (Kcal/Mol)
 Warning -- explicit consideration of  12 degrees of freedom as
           vibrations may cause significant error
 Vibrational temperatures:     84.43   132.35   165.45   191.40   286.33
          (Kelvin)            366.05   447.13   495.57   539.31   558.88
                              651.78   769.47   900.65   920.74  1019.45
                             1182.34  1284.01  1286.47  1378.64  1414.47
                             1430.41  1478.30  1556.90  1577.77  1655.58
                             1675.65  1679.68  1698.71  1749.30  1826.06
                             1856.46  1873.77  1925.17  1990.18  2107.28
                             2132.92  2151.75  2157.90  2170.02  2195.94
                             3223.42  4299.45  4326.67  4357.19  4361.93
                             4383.63  4403.98  4408.09  4443.43  4490.54
                             5044.46

 Zero-point correction=                           0.156294 (Hartree/Particle)
 Thermal correction to Energy=                    0.165966
 Thermal correction to Enthalpy=                  0.166910
 Thermal correction to Gibbs Free Energy=         0.121319
 Sum of electronic and zero-point Energies=           -422.953792
 Sum of electronic and thermal Energies=              -422.944121
 Sum of electronic and thermal Enthalpies=            -422.943176
 Sum of electronic and thermal Free Energies=         -422.988767

                     E (Thermal)             CV                S
                      KCal/Mol        Cal/Mol-Kelvin    Cal/Mol-Kelvin
 Total                  104.145             34.911             95.955
 Electronic               0.000              0.000              0.000
 Translational            0.889              2.981             40.409
 Rotational               0.889              2.981             29.004
 Vibrational            102.368             28.950             26.542
 Vibration     1          0.596              1.974              4.501
 Vibration     2          0.602              1.955              3.617
 Vibration     3          0.608              1.937              3.183
 Vibration     4          0.613              1.920              2.902
 Vibration     5          0.637              1.841              2.142
 Vibration     6          0.665              1.755              1.700
 Vibration     7          0.700              1.653              1.358
 Vibration     8          0.723              1.587              1.192
 Vibration     9          0.746              1.524              1.060
 Vibration    10          0.757              1.495              1.006
 Vibration    11          0.812              1.354              0.787
 Vibration    12          0.890              1.173              0.577

 Normal termination of Gaussian 09 at Tue Jan 28 09:42:03 2020.
