 Gaussian 09, Revision D.01,
 Gaussian 09:  ES64L-G09RevD.01 24-Apr-2013

 -----------------------------
 # b3lyp 6-31G(2df,p) opt Freq
 -----------------------------

 -----
 titel
 -----
 Symbolic Z-matrix:
 Charge =  0 Multiplicity = 1

 SCF Done:  E(RB3LYP) =  -423.225993921     A.U. after   14 cycles
 Optimization completed.
    -- Stationary point found.
 Normal termination of Gaussian 09 at Mon Jan 27 15:37:30 2020.

 ----------------------------------------------------------------------
 #N Geom=AllCheck Guess=TCheck SCRF=Check GenChk RB3LYP/6-31G(2df,p) Fr
 eq
 ----------------------------------------------------------------------

 Structure from the checkpoint file:  "/scratch/puck/g09_70ba7cd6-2f69-4248-81ed-9ccefdf6dc55/Gau-175657.chk"
 -----
 titel
 -----
 Charge =  0 Multiplicity = 1

                         Standard orientation:
 ---------------------------------------------------------------------
 Center     Atomic      Atomic             Coordinates (Angstroms)
 Number     Number       Type             X           Y           Z
 ---------------------------------------------------------------------
      1          6           0        2.607533   -0.531161   -0.424021
      2          6           0        1.421629    0.373562   -0.116502
      3          8           0        1.385967    0.562770    1.296932
      4          6           0        0.081149   -0.185067   -0.619408
      5          6           0       -0.380072   -1.530170   -0.023413
      6          6           0       -1.840257   -1.313671    0.284308
      7          6           0       -2.228892   -0.041707    0.128833
      8          6           0       -1.077702    0.780417   -0.298424
      9          8           0       -1.011161    1.990521   -0.347471
     10          1           0        2.501798   -1.500192    0.073698
     11          1           0        2.695891   -0.702981   -1.501126
     12          1           0        3.531547   -0.069332   -0.066757
     13          1           0        1.567195    1.342379   -0.614827
     14          1           0        0.823590    1.326825    1.465523
     15          1           0        0.126183   -0.260511   -1.714433
     16          1           0       -0.223572   -2.385033   -0.689583
     17          1           0        0.162882   -1.745148    0.906076
     18          1           0       -2.477789   -2.122193    0.627267
     19          1           0       -3.206497    0.376647    0.330244
 ---------------------------------------------------------------------

 SCF Done:  E(RB3LYP) =  -423.225993921     A.U. after    1 cycles

 The electronic state is 1-A.
 Alpha  occ. eigenvalues --  -19.13279 -19.12591 -10.26373 -10.23358 -10.21757
 Alpha  occ. eigenvalues --  -10.19933 -10.19393 -10.19262 -10.17533  -1.03595
 Alpha  occ. eigenvalues --   -1.01381  -0.85590  -0.77063  -0.71442  -0.68824
 Alpha  occ. eigenvalues --   -0.61044  -0.56471  -0.53338  -0.50541  -0.48425
 Alpha  occ. eigenvalues --   -0.48250  -0.43810  -0.41455  -0.40812  -0.39506
 Alpha  occ. eigenvalues --   -0.38658  -0.37804  -0.37364  -0.36365  -0.35395
 Alpha  occ. eigenvalues --   -0.32102  -0.27652  -0.26743  -0.24206
 Alpha virt. eigenvalues --   -0.04773   0.05117   0.08278   0.10536   0.12188
 Alpha virt. eigenvalues --    0.12904   0.13519   0.15767   0.16133   0.17435
 Alpha virt. eigenvalues --    0.17771   0.18553   0.19361   0.20638   0.23299

 Mulliken charges:
               1
     1  C   -0.389758
     2  C    0.114868
     3  O   -0.444205
     4  C   -0.117129
     5  C   -0.285541
     6  C   -0.047800
     7  C   -0.178259
     8  C    0.367366
     9  O   -0.357027
    10  H    0.122056
    11  H    0.111909
    12  H    0.125772
    13  H    0.089111
    14  H    0.294188
    15  H    0.102380
    16  H    0.114193
    17  H    0.143075
    18  H    0.117417
    19  H    0.117384
 Sum of Mulliken charges =   0.00000

 Dipole moment (field-independent basis, Debye):
    X=             -0.6776    Y=             -2.6541    Z=             -0.5544  Tot=              2.7947
 Quadrupole moment (field-independent basis, Debye-Ang):
   XX=            -51.5141   YY=            -55.3187   ZZ=            -53.5871
   XY=              3.8369   XZ=             -3.6813   YZ=              1.7449

  Exact polarizability:  85.829  -1.094  87.083  -5.094  -2.467  58.482
 Approx polarizability: 109.412  -4.168 153.729  -4.409  -7.327  92.727

                      1                      2                      3
                      A                      A                      A
 Frequencies --     55.1737                95.6093               160.2353
 Red. masses --      4.5270                 3.1400                 4.5036
 Frc consts  --      0.0081                 0.0169                 0.0681
 IR Inten    --      5.2733                 0.6060                 3.1171

                      4                      5                      6
                      A                      A                      A
 Frequencies --    210.2727               237.7316               303.9300
 Red. masses --      1.4749                 1.8726                 3.3902
 Frc consts  --      0.0384                 0.0624                 0.1845
 IR Inten    --      0.6284                 2.5213                 0.0717

                      7                      8                      9
                      A                      A                      A
 Frequencies --    318.0630               409.6124               441.8972
 Red. masses --      2.6692                 1.3816                 1.8519
 Frc consts  --      0.1591                 0.1366                 0.2131
 IR Inten    --      3.1515                90.0763                34.3719

                     10                     11                     12
                      A                      A                      A
 Frequencies --    512.5134               557.1479               602.9918
 Red. masses --      2.8184                 3.5909                 4.0520
 Frc consts  --      0.4362                 0.6567                 0.8680
 IR Inten    --      4.5303                 1.4746                 9.3699

                     13                     14                     15
                      A                      A                      A
 Frequencies --    702.3669               757.2396               776.3415
 Red. masses --      4.0552                 3.2785                 1.6564
 Frc consts  --      1.1787                 1.1076                 0.5882
 IR Inten    --      2.2635                 6.0689                22.2578

                     16                     17                     18
                      A                      A                      A
 Frequencies --    813.7144               881.7760               931.2511
 Red. masses --      2.3210                 3.0319                 2.1800
 Frc consts  --      0.9055                 1.3889                 1.1139
 IR Inten    --      5.4848                12.6804                 4.4920

                     19                     20                     21
                      A                      A                      A
 Frequencies --    960.0902               974.1622               999.5790
 Red. masses --      2.5388                 1.5613                 1.6753
 Frc consts  --      1.3788                 0.8730                 0.9862
 IR Inten    --     10.8217                 1.0857                 9.0491

                     22                     23                     24
                      A                      A                      A
 Frequencies --   1011.1525              1055.9931              1090.1959
 Red. masses --      1.4181                 2.2554                 1.6009
 Frc consts  --      0.8542                 1.4818                 1.1211
 IR Inten    --      1.2915                55.4978                 9.4182

                     25                     26                     27
                      A                      A                      A
 Frequencies --   1115.7949              1163.2645              1174.3822
 Red. masses --      1.1984                 1.8135                 2.5021
 Frc consts  --      0.8791                 1.4459                 2.0331
 IR Inten    --      2.0297                12.9663                51.9052

                     28                     29                     30
                      A                      A                      A
 Frequencies --   1188.2190              1241.4641              1289.6794
 Red. masses --      1.4273                 1.5865                 1.2253
 Frc consts  --      1.1873                 1.4407                 1.2008
 IR Inten    --      4.1169                23.0837                54.6764

                     31                     32                     33
                      A                      A                      A
 Frequencies --   1297.2956              1332.3016              1356.6634
 Red. masses --      1.4198                 1.8965                 1.6308
 Frc consts  --      1.4078                 1.9833                 1.7685
 IR Inten    --      2.5735                 6.7797                34.7596

                     34                     35                     36
                      A                      A                      A
 Frequencies --   1378.3134              1403.3407              1437.5333
 Red. masses --      1.5171                 1.2321                 1.4501
 Frc consts  --      1.6980                 1.4296                 1.7656
 IR Inten    --     14.5069                 3.5421                11.4385

                     37                     38                     39
                      A                      A                      A
 Frequencies --   1466.1526              1483.2786              1500.6784
 Red. masses --      1.1164                 1.0482                 1.0519
 Frc consts  --      1.4139                 1.3587                 1.3957
 IR Inten    --      8.5316                 3.6244                 1.8386

                     40                     41                     42
                      A                      A                      A
 Frequencies --   1645.8439              1796.5475              3005.9622
 Red. masses --      5.9294                12.3422                 1.0835
 Frc consts  --      9.4632                23.4705                 5.7683
 IR Inten    --     22.1390               244.9492                19.9819

                     43                     44                     45
                      A                      A                      A
 Frequencies --   3024.3701              3032.6169              3042.6791
 Red. masses --      1.0823                 1.0613                 1.0359
 Frc consts  --      5.8325                 5.7506                 5.6505
 IR Inten    --     16.4526                 6.5010                16.3289

                     46                     47                     48
                      A                      A                      A
 Frequencies --   3073.1129              3113.2335              3122.2304
 Red. masses --      1.0995                 1.1011                 1.1018
 Frc consts  --      6.1180                 6.2881                 6.3283
 IR Inten    --     14.3887                26.2759                22.1898

                     49                     50                     51
                      A                      A                      A
 Frequencies --   3187.6760              3228.1421              3808.3935
 Red. masses --      1.0892                 1.1017                 1.0660
 Frc consts  --      6.5207                 6.7641                 9.1095
 IR Inten    --      9.1998                 6.4629                23.2385

 - Thermochemistry -
 -------------------
 Temperature   298.150 Kelvin.  Pressure   1.00000 Atm.
 Atom     1 has atomic number  6 and mass  12.00000

 Molecular mass:   126.06808 amu.
 Principal axes and moments of inertia in atomic units:
                           1         2         3
     Eigenvalues --   703.988751293.725411659.00348
           X            0.99968   0.00843  -0.02377
           Y           -0.00811   0.99988   0.01352
           Z            0.02388  -0.01332   0.99963
 This molecule is an asymmetric top.
 Rotational symmetry number  1.
 Warning -- assumption of classical behavior for rotation
           may cause significant error
 Rotational temperatures (Kelvin)      0.12303     0.06695     0.05221
 Rotational constants (GHZ):           2.56359     1.39500     1.08785
 Zero-point vibrational energy     417306.6 (Joules/Mol)
                                   99.73866 (Kcal/Mol)
 Warning -- explicit consideration of  12 degrees of freedom as
           vibrations may cause significant error
 Vibrational temperatures:     79.38   137.56   230.54   302.54   342.04
          (Kelvin)            437.29   457.62   589.34   635.79   737.39
                              801.61   867.57  1010.55  1089.50  1116.98
                             1170.75  1268.68  1339.86  1381.35  1401.60
                             1438.17  1454.82  1519.34  1568.55  1605.38
                             1673.68  1689.67  1709.58  1786.19  1855.56
                             1866.52  1916.88  1951.93  1983.08  2019.09
                             2068.29  2109.46  2134.10  2159.14  2368.00
                             2584.83  4324.90  4351.39  4363.25  4377.73
                             4421.52  4479.24  4492.19  4586.35  4644.57
                             5479.42

 Zero-point correction=                           0.158944 (Hartree/Particle)
 Thermal correction to Energy=                    0.167818
 Thermal correction to Enthalpy=                  0.168762
 Thermal correction to Gibbs Free Energy=         0.125019
 Sum of electronic and zero-point Energies=           -423.067050
 Sum of electronic and thermal Energies=              -423.058176
 Sum of electronic and thermal Enthalpies=            -423.057232
 Sum of electronic and thermal Free Energies=         -423.100975

                     E (Thermal)             CV                S
                      KCal/Mol        Cal/Mol-Kelvin    Cal/Mol-Kelvin
 Total                  105.307             33.217             92.065
 Electronic               0.000              0.000              0.000
 Translational            0.889              2.981             40.409
 Rotational               0.889              2.981             28.804
 Vibrational            103.530             27.255             22.853
 Vibration     1          0.596              1.976              4.623
 Vibration     2          0.603              1.952              3.542
 Vibration     3          0.622              1.891              2.547
 Vibration     4          0.642              1.825              2.041
 Vibration     5          0.656              1.783              1.820
 Vibration     6          0.695              1.666              1.395
 Vibration     7          0.704              1.639              1.320
 Vibration     8          0.774              1.449              0.928
 Vibration     9          0.802              1.379              0.821
 Vibration    10          0.868              1.222              0.628
 Vibration    11          0.913              1.124              0.530
 Vibration    12          0.961              1.025              0.445

 Optimization completed.
    -- Stationary point found.
 Normal termination of Gaussian 09 at Mon Jan 27 16:18:59 2020.
 Normal termination of Gaussian 09 at Mon Jan 27 15:59:38 2020.
