 Gaussian 09, Revision D.01,
 Gaussian 09:  ES64L-G09RevD.01 24-Apr-2013

 -----------------------------
 # b3lyp 6-31G(2df,p) opt Freq
 -----------------------------

 -----
 titel
 -----
 Symbolic Z-matrix:
 Charge =  0 Multiplicity = 1

 SCF Done:  E(RB3LYP) =  -423.184794913     A.U. after   13 cycles
 Optimization completed.
    -- Stationary point found.
 Normal termination of Gaussian 09 at Tue Jan 28 03:16:39 2020.

 ----------------------------------------------------------------------
 #N Geom=AllCheck Guess=TCheck SCRF=Check GenChk RB3LYP/6-31G(2df,p) Fr
 eq
 ----------------------------------------------------------------------

 Structure from the checkpoint file:  "/scratch/puck/g09_6efbb49f-50b2-4b0c-b2ba-206ee35eed90/Gau-66897.chk"
 -----
 titel
 -----
 Charge =  0 Multiplicity = 1

                         Standard orientation:
 ---------------------------------------------------------------------
 Center     Atomic      Atomic             Coordinates (Angstroms)
 Number     Number       Type             X           Y           Z
 ---------------------------------------------------------------------
      1          6           0       -2.660925   -0.394517    0.035863
      2          6           0       -1.261303   -0.246763   -0.538658
      3          8           0       -0.848877    1.141932   -0.476508
      4          6           0        0.327592    1.131436    0.330273
      5          8           0        0.094023    0.101227    1.275279
      6          6           0       -0.140850   -0.926944    0.297488
      7          6           0        1.133884   -0.893183   -0.547416
      8          6           0        2.389370   -0.410985    0.130346
      9          6           0        1.471944    0.588169   -0.525824
     10          1           0       -2.660338   -0.142662    1.099737
     11          1           0       -3.352799    0.278507   -0.478039
     12          1           0       -3.023882   -1.420787   -0.087784
     13          1           0       -1.230824   -0.577634   -1.583886
     14          1           0        0.446333    2.096145    0.822785
     15          1           0       -0.409942   -1.860382    0.791243
     16          1           0        1.180368   -1.479403   -1.456948
     17          1           0        2.449300   -0.438140    1.212038
     18          1           0        3.318963   -0.618439   -0.388303
     19          1           0        1.763387    1.134253   -1.413439
 ---------------------------------------------------------------------

 SCF Done:  E(RB3LYP) =  -423.184794913     A.U. after    1 cycles

 The electronic state is 1-A.
 Alpha  occ. eigenvalues --  -19.14895 -19.13562 -10.27588 -10.23945 -10.23276
 Alpha  occ. eigenvalues --  -10.19478 -10.19032 -10.18863 -10.17272  -1.09441
 Alpha  occ. eigenvalues --   -0.98704  -0.86027  -0.78242  -0.70090  -0.65700
 Alpha  occ. eigenvalues --   -0.59692  -0.57387  -0.56938  -0.53029  -0.51048
 Alpha  occ. eigenvalues --   -0.47246  -0.45403  -0.41634  -0.40693  -0.39037
 Alpha  occ. eigenvalues --   -0.38914  -0.37779  -0.36663  -0.33916  -0.33529
 Alpha  occ. eigenvalues --   -0.30150  -0.28276  -0.27214  -0.24957
 Alpha virt. eigenvalues --    0.09049   0.11295   0.12429   0.12550   0.12720
 Alpha virt. eigenvalues --    0.13712   0.14557   0.15097   0.15995   0.16810
 Alpha virt. eigenvalues --    0.17837   0.18044   0.19656   0.20223   0.23114

 Mulliken charges:
               1
     1  C   -0.410491
     2  C    0.153014
     3  O   -0.291762
     4  C    0.179059
     5  O   -0.254847
     6  C    0.001421
     7  C   -0.049099
     8  C   -0.314923
     9  C   -0.067896
    10  H    0.132759
    11  H    0.126099
    12  H    0.107910
    13  H    0.077174
    14  H    0.092314
    15  H    0.087351
    16  H    0.094326
    17  H    0.126188
    18  H    0.112295
    19  H    0.099106
 Sum of Mulliken charges =   0.00000

 Dipole moment (field-independent basis, Debye):
    X=              0.5846    Y=             -1.2092    Z=             -0.9354  Tot=              1.6368
 Quadrupole moment (field-independent basis, Debye-Ang):
   XX=            -51.5400   YY=            -51.8986   ZZ=            -54.2774
   XY=              2.5130   XZ=             -1.0145   YZ=              1.5151

  Exact polarizability:  87.060   2.097  69.696   0.535   1.347  63.501
 Approx polarizability: 109.894   2.691 111.151   3.079   1.280 101.201

                      1                      2                      3
                      A                      A                      A
 Frequencies --    148.6892               237.9450               261.4947
 Red. masses --      3.2423                 1.0419                 2.6709
 Frc consts  --      0.0422                 0.0348                 0.1076
 IR Inten    --      0.9840                 0.0621                 1.1787

                      4                      5                      6
                      A                      A                      A
 Frequencies --    317.6941               364.3039               458.3598
 Red. masses --      3.1251                 3.2004                 3.3111
 Frc consts  --      0.1858                 0.2503                 0.4099
 IR Inten    --      0.7564                 0.5015                 1.6779

                      7                      8                      9
                      A                      A                      A
 Frequencies --    502.7076               643.6334               673.8792
 Red. masses --      4.2985                 5.1544                 3.4793
 Frc consts  --      0.6400                 1.2581                 0.9309
 IR Inten    --      4.9888                 6.8136                 1.2957

                     10                     11                     12
                      A                      A                      A
 Frequencies --    764.2271               788.7468               826.5951
 Red. masses --      2.4444                 3.1528                 1.8039
 Frc consts  --      0.8411                 1.1556                 0.7262
 IR Inten    --      6.0463                 2.7528                 9.6489

                     13                     14                     15
                      A                      A                      A
 Frequencies --    832.3587               855.6612               883.8764
 Red. masses --      1.9725                 3.6159                 2.6431
 Frc consts  --      0.8052                 1.5598                 1.2166
 IR Inten    --     12.9547                 1.2649                 5.6739

                     16                     17                     18
                      A                      A                      A
 Frequencies --    896.8698               925.3139               963.3328
 Red. masses --      2.4271                 3.5111                 3.7937
 Frc consts  --      1.1502                 1.7712                 2.0742
 IR Inten    --      9.7955                59.0921                74.7159

                     19                     20                     21
                      A                      A                      A
 Frequencies --    990.4401              1003.4507              1050.4405
 Red. masses --      2.5549                 2.3143                 1.5424
 Frc consts  --      1.4767                 1.3730                 1.0027
 IR Inten    --     67.9698                 1.9846                35.7128

                     22                     23                     24
                      A                      A                      A
 Frequencies --   1060.9064              1071.0504              1086.9312
 Red. masses --      1.8652                 2.3065                 1.5508
 Frc consts  --      1.2369                 1.5589                 1.0795
 IR Inten    --      0.9542                 2.2964                11.7880

                     25                     26                     27
                      A                      A                      A
 Frequencies --   1091.8927              1102.1620              1119.9878
 Red. masses --      1.5515                 1.3424                 2.2698
 Frc consts  --      1.0898                 0.9608                 1.6775
 IR Inten    --      4.6490                20.6910                37.6427

                     28                     29                     30
                      A                      A                      A
 Frequencies --   1136.7601              1188.0234              1248.5650
 Red. masses --      2.2519                 1.8201                 1.2926
 Frc consts  --      1.7145                 1.5135                 1.1873
 IR Inten    --      4.2724                 2.0310                 0.1836

                     31                     32                     33
                      A                      A                      A
 Frequencies --   1268.0223              1286.4899              1309.0278
 Red. masses --      1.3225                 1.2815                 1.4831
 Frc consts  --      1.2528                 1.2496                 1.4974
 IR Inten    --      1.5660                 1.0182                 4.4886

                     34                     35                     36
                      A                      A                      A
 Frequencies --   1329.8777              1338.5956              1378.1233
 Red. masses --      1.8142                 1.6874                 1.7330
 Frc consts  --      1.8904                 1.7814                 1.9392
 IR Inten    --     21.3996                 8.9609                 3.7670

                     37                     38                     39
                      A                      A                      A
 Frequencies --   1383.6414              1404.4401              1473.3066
 Red. masses --      1.3414                 1.3621                 1.2776
 Frc consts  --      1.5130                 1.5830                 1.6339
 IR Inten    --      3.3790                11.5664                 1.7977

                     40                     41                     42
                      A                      A                      A
 Frequencies --   1485.4361              1498.8884              3030.5298
 Red. masses --      1.0558                 1.0470                 1.0815
 Frc consts  --      1.3725                 1.3859                 5.8524
 IR Inten    --      3.6933                 2.7524                31.9940

                     43                     44                     45
                      A                      A                      A
 Frequencies --   3038.6115              3110.2492              3126.1555
 Red. masses --      1.0391                 1.0995                 1.0912
 Frc consts  --      5.6530                 6.2668                 6.2833
 IR Inten    --     21.4802                16.2933                38.9583

                     46                     47                     48
                      A                      A                      A
 Frequencies --   3127.1322              3133.0483              3139.6035
 Red. masses --      1.0996                 1.0926                 1.0537
 Frc consts  --      6.3357                 6.3189                 6.1193
 IR Inten    --     21.2480                21.6721                15.2262

                     49                     50                     51
                      A                      A                      A
 Frequencies --   3187.7945              3202.8044              3229.0264
 Red. masses --      1.0903                 1.0950                 1.1150
 Frc consts  --      6.5281                 6.6182                 6.8499
 IR Inten    --     10.2575                 5.7180                 5.7964

 - Thermochemistry -
 -------------------
 Temperature   298.150 Kelvin.  Pressure   1.00000 Atm.
 Atom     1 has atomic number  6 and mass  12.00000

 Molecular mass:   126.06808 amu.
 Principal axes and moments of inertia in atomic units:
                           1         2         3
     Eigenvalues --   475.207491186.018061278.23106
           X            0.99984   0.01687  -0.00624
           Y           -0.01654   0.99866   0.04898
           Z            0.00705  -0.04887   0.99878
 This molecule is an asymmetric top.
 Rotational symmetry number  1.
 Warning -- assumption of classical behavior for rotation
           may cause significant error
 Rotational temperatures (Kelvin)      0.18227     0.07303     0.06776
 Rotational constants (GHZ):           3.79780     1.52168     1.41191
 Zero-point vibrational energy     424537.4 (Joules/Mol)
                                  101.46686 (Kcal/Mol)
 Warning -- explicit consideration of   7 degrees of freedom as
           vibrations may cause significant error
 Vibrational temperatures:    213.93   342.35   376.23   457.09   524.15
          (Kelvin)            659.48   723.28   926.04   969.56  1099.55
                             1134.83  1189.28  1197.58  1231.10  1271.70
                             1290.39  1331.32  1386.02  1425.02  1443.74
                             1511.35  1526.41  1541.00  1563.85  1570.99
                             1585.76  1611.41  1635.54  1709.30  1796.40
                             1824.40  1850.97  1883.40  1913.40  1925.94
                             1982.81  1990.75  2020.67  2119.76  2137.21
                             2156.56  4360.25  4371.88  4474.95  4497.83
                             4499.24  4507.75  4517.18  4586.52  4608.12
                             4645.84

 Zero-point correction=                           0.161698 (Hartree/Particle)
 Thermal correction to Energy=                    0.168622
 Thermal correction to Enthalpy=                  0.169566
 Thermal correction to Gibbs Free Energy=         0.130731
 Sum of electronic and zero-point Energies=           -423.023097
 Sum of electronic and thermal Energies=              -423.016173
 Sum of electronic and thermal Enthalpies=            -423.015229
 Sum of electronic and thermal Free Energies=         -423.054064

                     E (Thermal)             CV                S
                      KCal/Mol        Cal/Mol-Kelvin    Cal/Mol-Kelvin
 Total                  105.812             28.808             81.735
 Electronic               0.000              0.000              0.000
 Translational            0.889              2.981             40.409
 Rotational               0.889              2.981             28.068
 Vibrational            104.034             22.846             13.259
 Vibration     1          0.618              1.904              2.689
 Vibration     2          0.656              1.783              1.818
 Vibration     3          0.669              1.743              1.652
 Vibration     4          0.704              1.640              1.322
 Vibration     5          0.738              1.546              1.104
 Vibration     6          0.816              1.342              0.771
 Vibration     7          0.858              1.244              0.651

 Optimization completed.
    -- Stationary point found.
 Normal termination of Gaussian 09 at Tue Jan 28 04:18:42 2020.
