 Gaussian 09, Revision D.01,
 Gaussian 09:  ES64L-G09RevD.01 24-Apr-2013

 -----------------------------
 # b3lyp 6-31G(2df,p) opt Freq
 -----------------------------

 -----
 titel
 -----
 Symbolic Z-matrix:
 Charge =  0 Multiplicity = 1

 SCF Done:  E(RB3LYP) =  -423.120690820     A.U. after   14 cycles
 Optimization completed.
    -- Stationary point found.
 Normal termination of Gaussian 09 at Tue Jan 28 12:37:12 2020.

 ----------------------------------------------------------------------
 #N Geom=AllCheck Guess=TCheck SCRF=Check GenChk RB3LYP/6-31G(2df,p) Fr
 eq
 ----------------------------------------------------------------------

 Structure from the checkpoint file:  "/scratch/puck/g09_0ffff0de-1a10-4410-b15f-6b5c39625c50/Gau-130313.chk"
 -----
 titel
 -----
 Charge =  0 Multiplicity = 1

                         Standard orientation:
 ---------------------------------------------------------------------
 Center     Atomic      Atomic             Coordinates (Angstroms)
 Number     Number       Type             X           Y           Z
 ---------------------------------------------------------------------
      1          8           0        3.109872   -1.081400   -0.060414
      2          6           0        2.510268    0.183700   -0.307813
      3          6           0        1.139373    0.327911    0.310108
      4          6           0        0.062604    1.122309   -0.377468
      5          8           0       -0.758159    1.907823    0.436161
      6          6           0       -0.051633   -0.380001   -0.300286
      7          6           0       -1.131309   -0.981497    0.590482
      8          6           0       -2.469966   -0.784499    0.035020
      9          6           0       -3.554348   -0.578270   -0.443314
     10          1           0        3.220715   -1.172146    0.891300
     11          1           0        3.160955    1.005407    0.030609
     12          1           0        2.436970    0.261166   -1.397977
     13          1           0        1.124194    0.414994    1.395155
     14          1           0        0.304619    1.562480   -1.345407
     15          1           0       -1.667780    1.778578    0.140176
     16          1           0        0.128854   -0.926931   -1.221307
     17          1           0       -0.941929   -2.051548    0.737286
     18          1           0       -1.090601   -0.517834    1.581853
     19          1           0       -4.519632   -0.423466   -0.858037
 ---------------------------------------------------------------------

 SCF Done:  E(RB3LYP) =  -423.120690820     A.U. after    1 cycles

 The electronic state is 1-A.
 Alpha  occ. eigenvalues --  -19.14258 -19.13436 -10.23657 -10.23084 -10.21410
 Alpha  occ. eigenvalues --  -10.19675 -10.19149 -10.18788 -10.17650  -1.02857
 Alpha  occ. eigenvalues --   -1.01494  -0.86201  -0.78297  -0.71451  -0.68514
 Alpha  occ. eigenvalues --   -0.59281  -0.58740  -0.53421  -0.51529  -0.50209
 Alpha  occ. eigenvalues --   -0.48128  -0.45773  -0.45162  -0.42542  -0.40825
 Alpha  occ. eigenvalues --   -0.39697  -0.37360  -0.33760  -0.32449  -0.28921
 Alpha  occ. eigenvalues --   -0.27149  -0.26963  -0.26462  -0.25590
 Alpha virt. eigenvalues --    0.04718   0.05159   0.07715   0.08352   0.09982
 Alpha virt. eigenvalues --    0.12014   0.12540   0.13532   0.14557   0.16280
 Alpha virt. eigenvalues --    0.16379   0.17701   0.17890   0.21544   0.22108

 Mulliken charges:
               1
     1  O   -0.413261
     2  C   -0.089270
     3  C   -0.091318
     4  C    0.086691
     5  O   -0.429796
     6  C   -0.042269
     7  C   -0.384935
     8  C    0.299167
     9  C   -0.460401
    10  H    0.280794
    11  H    0.093998
    12  H    0.107020
    13  H    0.088834
    14  H    0.084377
    15  H    0.294635
    16  H    0.099580
    17  H    0.135590
    18  H    0.141433
    19  H    0.199130
 Sum of Mulliken charges =   0.00000

 Dipole moment (field-independent basis, Debye):
    X=             -0.5355    Y=             -0.0536    Z=              0.3554  Tot=              0.6449
 Quadrupole moment (field-independent basis, Debye-Ang):
   XX=            -51.0549   YY=            -57.4245   ZZ=            -50.5183
   XY=              1.0180   XZ=              5.9047   YZ=             -4.2350

  Exact polarizability: 103.363  -0.969  66.796   7.981  -2.590  63.350
 Approx polarizability: 137.885  -7.388  99.257  17.920  -2.870 100.247

                      1                      2                      3
                      A                      A                      A
 Frequencies --     43.2511                72.4323               100.9995
 Red. masses --      4.2320                 3.2803                 3.4773
 Frc consts  --      0.0047                 0.0101                 0.0209
 IR Inten    --      1.1849                 6.4560                 0.1572

                      4                      5                      6
                      A                      A                      A
 Frequencies --    146.3948               234.6576               242.0553
 Red. masses --      3.9686                 4.1455                 1.5713
 Frc consts  --      0.0501                 0.1345                 0.0542
 IR Inten    --      1.0635                 0.7096                58.9705

                      7                      8                      9
                      A                      A                      A
 Frequencies --    289.9402               324.8330               338.8354
 Red. masses --      2.2311                 2.2474                 2.6592
 Frc consts  --      0.1105                 0.1397                 0.1799
 IR Inten    --     26.6312                71.0949                 3.7589

                     10                     11                     12
                      A                      A                      A
 Frequencies --    356.5596               415.9952               462.5303
 Red. masses --      1.9411                 1.5614                 5.6426
 Frc consts  --      0.1454                 0.1592                 0.7112
 IR Inten    --     38.1400                70.3699                11.4175

                     13                     14                     15
                      A                      A                      A
 Frequencies --    510.8686               624.0934               639.9205
 Red. masses --      3.2379                 1.3138                 2.0453
 Frc consts  --      0.4979                 0.3015                 0.4935
 IR Inten    --     13.8456                38.8682                17.1806

                     16                     17                     18
                      A                      A                      A
 Frequencies --    644.0573               803.3037               848.9491
 Red. masses --      1.4004                 2.8782                 2.3636
 Frc consts  --      0.3423                 1.0943                 1.0037
 IR Inten    --     32.1551                13.6496                 1.1661

                     19                     20                     21
                      A                      A                      A
 Frequencies --    922.0327               931.6904               977.4437
 Red. masses --      1.6156                 2.9571                 2.0655
 Frc consts  --      0.8092                 1.5124                 1.1627
 IR Inten    --      0.8237                 2.3290                47.1036

                     22                     23                     24
                      A                      A                      A
 Frequencies --    990.3327              1029.0568              1063.1849
 Red. masses --      3.5114                 1.7528                 3.7815
 Frc consts  --      2.0290                 1.0936                 2.5185
 IR Inten    --      0.6933                32.2457                71.3122

                     25                     26                     27
                      A                      A                      A
 Frequencies --   1097.3619              1111.2322              1118.3847
 Red. masses --      1.5309                 1.5785                 1.7988
 Frc consts  --      1.0861                 1.1484                 1.3256
 IR Inten    --     20.3378                 5.3379                 4.9699

                     28                     29                     30
                      A                      A                      A
 Frequencies --   1150.5579              1211.8668              1231.2177
 Red. masses --      2.0346                 1.4401                 1.5293
 Frc consts  --      1.5869                 1.2461                 1.3659
 IR Inten    --     10.8240                 1.5024                52.6814

                     31                     32                     33
                      A                      A                      A
 Frequencies --   1253.2617              1309.6282              1319.2257
 Red. masses --      1.3271                 1.2935                 1.1863
 Frc consts  --      1.2281                 1.3071                 1.2164
 IR Inten    --      4.8026                15.6330                60.0420

                     34                     35                     36
                      A                      A                      A
 Frequencies --   1349.2813              1377.4709              1392.9721
 Red. masses --      1.2396                 1.3201                 1.4149
 Frc consts  --      1.3296                 1.4757                 1.6176
 IR Inten    --      7.5843                 6.8811                 6.3138

                     37                     38                     39
                      A                      A                      A
 Frequencies --   1424.6933              1460.5457              1475.9570
 Red. masses --      1.2341                 1.1897                 2.1447
 Frc consts  --      1.4759                 1.4952                 2.7527
 IR Inten    --     47.9085                 8.4135                17.7065

                     40                     41                     42
                      A                      A                      A
 Frequencies --   1503.0876              2230.9395              2981.5066
 Red. masses --      1.1082                 5.9317                 1.0697
 Frc consts  --      1.4752                17.3943                 5.6026
 IR Inten    --      1.3300                 2.4372                69.1386

                     43                     44                     45
                      A                      A                      A
 Frequencies --   3035.5708              3066.9246              3074.0699
 Red. masses --      1.0605                 1.0924                 1.0995
 Frc consts  --      5.7576                 6.0538                 6.1217
 IR Inten    --     13.5642                15.0253                 3.7561

                     46                     47                     48
                      A                      A                      A
 Frequencies --   3091.8753              3128.0322              3153.0631
 Red. masses --      1.0876                 1.0879                 1.0879
 Frc consts  --      6.1258                 6.2717                 6.3723
 IR Inten    --     35.7308                12.5901                14.5317

                     49                     50                     51
                      A                      A                      A
 Frequencies --   3503.9596              3775.2424              3816.6736
 Red. masses --      1.1616                 1.0661                 1.0662
 Frc consts  --      8.4028                 8.9526                 9.1511
 IR Inten    --     69.5901                37.3157                18.3133

 - Thermochemistry -
 -------------------
 Temperature   298.150 Kelvin.  Pressure   1.00000 Atm.
 Atom     1 has atomic number  8 and mass  15.99491

 Molecular mass:   126.06808 amu.
 Principal axes and moments of inertia in atomic units:
                           1         2         3
     Eigenvalues --   567.411952054.077672432.11987
           X            0.99998   0.00557   0.00324
           Y           -0.00546   0.99945  -0.03260
           Z           -0.00342   0.03258   0.99946
 This molecule is an asymmetric top.
 Rotational symmetry number  1.
 Warning -- assumption of classical behavior for rotation
           may cause significant error
 Rotational temperatures (Kelvin)      0.15265     0.04217     0.03561
 Rotational constants (GHZ):           3.18065     0.87861     0.74204
 Zero-point vibrational energy     410666.2 (Joules/Mol)
                                   98.15157 (Kcal/Mol)
 Warning -- explicit consideration of  13 degrees of freedom as
           vibrations may cause significant error
 Vibrational temperatures:     62.23   104.21   145.32   210.63   337.62
          (Kelvin)            348.26   417.16   467.36   487.51   513.01
                              598.52   665.48   735.02   897.93   920.70
                              926.65  1155.77  1221.45  1326.60  1340.49
                             1406.32  1424.87  1480.58  1529.68  1578.86
                             1598.81  1609.10  1655.39  1743.60  1771.45
                             1803.16  1884.26  1898.07  1941.31  1981.87
                             2004.17  2049.81  2101.40  2123.57  2162.61
                             3209.82  4289.72  4367.50  4412.61  4422.90
                             4448.51  4500.54  4536.55  5041.41  5431.72
                             5491.34

 Zero-point correction=                           0.156414 (Hartree/Particle)
 Thermal correction to Energy=                    0.166598
 Thermal correction to Enthalpy=                  0.167542
 Thermal correction to Gibbs Free Energy=         0.120558
 Sum of electronic and zero-point Energies=           -422.964276
 Sum of electronic and thermal Energies=              -422.954093
 Sum of electronic and thermal Enthalpies=            -422.953148
 Sum of electronic and thermal Free Energies=         -423.000133

                     E (Thermal)             CV                S
                      KCal/Mol        Cal/Mol-Kelvin    Cal/Mol-Kelvin
 Total                  104.542             36.854             98.888
 Electronic               0.000              0.000              0.000
 Translational            0.889              2.981             40.409
 Rotational               0.889              2.981             29.429
 Vibrational            102.764             30.893             29.050
 Vibration     1          0.595              1.980              5.104
 Vibration     2          0.599              1.967              4.086
 Vibration     3          0.604              1.948              3.435
 Vibration     4          0.617              1.907              2.719
 Vibration     5          0.654              1.788              1.843
 Vibration     6          0.658              1.776              1.788
 Vibration     7          0.686              1.692              1.474
 Vibration     8          0.709              1.626              1.286
 Vibration     9          0.719              1.598              1.218
 Vibration    10          0.732              1.562              1.137
 Vibration    11          0.779              1.435              0.906
 Vibration    12          0.820              1.333              0.759
 Vibration    13          0.866              1.226              0.632

 Normal termination of Gaussian 09 at Tue Jan 28 13:21:36 2020.
