 Gaussian 09, Revision D.01,
 Gaussian 09:  ES64L-G09RevD.01 24-Apr-2013

 -----------------------------
 # b3lyp 6-31G(2df,p) opt Freq
 -----------------------------

 -----
 titel
 -----
 Symbolic Z-matrix:
 Charge =  0 Multiplicity = 1

 SCF Done:  E(RB3LYP) =  -423.149793084     A.U. after   14 cycles
 Optimization completed.
    -- Stationary point found.
 Normal termination of Gaussian 09 at Mon Jan 27 13:12:51 2020.

 ----------------------------------------------------------------------
 #N Geom=AllCheck Guess=TCheck SCRF=Check GenChk RB3LYP/6-31G(2df,p) Fr
 eq
 ----------------------------------------------------------------------

 Structure from the checkpoint file:  "/scratch/puck/g09_ea3f5751-2aa0-4240-92e4-a3c8034dee03/Gau-156235.chk"
 -----
 titel
 -----
 Charge =  0 Multiplicity = 1

                         Standard orientation:
 ---------------------------------------------------------------------
 Center     Atomic      Atomic             Coordinates (Angstroms)
 Number     Number       Type             X           Y           Z
 ---------------------------------------------------------------------
      1          8           0       -1.339073    2.287035   -0.261753
      2          6           0       -0.344540    1.805223    0.218004
      3          6           0       -0.015772    0.321719    0.225416
      4          6           0        1.336573    0.101387   -0.442452
      5          6           0        2.616064    0.217010    0.352456
      6          6           0        2.140171   -1.132191   -0.120541
      7          6           0       -1.117196   -0.499824   -0.408350
      8          6           0       -2.227838   -1.047687    0.373869
      9          8           0       -1.147443   -1.883928   -0.052909
     10          1           0        0.438018    2.444169    0.686219
     11          1           0        0.079863    0.021196    1.279791
     12          1           0        1.379801    0.446850   -1.472535
     13          1           0        3.479846    0.660280   -0.129869
     14          1           0        2.540201    0.439647    1.411991
     15          1           0        2.677641   -1.613524   -0.929421
     16          1           0        1.724635   -1.818186    0.608204
     17          1           0       -1.289946   -0.304369   -1.466503
     18          1           0       -2.276626   -0.858540    1.445656
     19          1           0       -3.186076   -1.236201   -0.106645
 ---------------------------------------------------------------------

 SCF Done:  E(RB3LYP) =  -423.149793084     A.U. after    1 cycles

 The electronic state is 1-A.
 Alpha  occ. eigenvalues --  -19.15217 -19.14584 -10.27566 -10.24071 -10.23468
 Alpha  occ. eigenvalues --  -10.20880 -10.20646 -10.19562 -10.19158  -1.07206
 Alpha  occ. eigenvalues --   -1.05230  -0.87169  -0.77709  -0.66890  -0.63443
 Alpha  occ. eigenvalues --   -0.60596  -0.59631  -0.56690  -0.51052  -0.50599
 Alpha  occ. eigenvalues --   -0.47787  -0.46824  -0.45478  -0.43070  -0.40004
 Alpha  occ. eigenvalues --   -0.38811  -0.37532  -0.37028  -0.35972  -0.31644
 Alpha  occ. eigenvalues --   -0.30636  -0.29300  -0.27338  -0.24941
 Alpha virt. eigenvalues --   -0.02682   0.08563   0.09149   0.09739   0.10465
 Alpha virt. eigenvalues --    0.11282   0.13368   0.13801   0.14657   0.15639
 Alpha virt. eigenvalues --    0.16454   0.17621   0.18376   0.22113   0.23406

 Mulliken charges:
               1
     1  O   -0.245088
     2  C    0.148848
     3  C   -0.157141
     4  C    0.011467
     5  C   -0.281048
     6  C   -0.261242
     7  C    0.119463
     8  C   -0.180485
     9  O   -0.247813
    10  H    0.085587
    11  H    0.096013
    12  H    0.094670
    13  H    0.118297
    14  H    0.113607
    15  H    0.118538
    16  H    0.131111
    17  H    0.103399
    18  H    0.111149
    19  H    0.120669
 Sum of Mulliken charges =   0.00000

 Dipole moment (field-independent basis, Debye):
    X=              1.4852    Y=              0.0046    Z=              0.7760  Tot=              1.6757
 Quadrupole moment (field-independent basis, Debye-Ang):
   XX=            -51.4284   YY=            -62.3015   ZZ=            -49.9435
   XY=              4.2991   XZ=             -2.0664   YZ=              1.2477

  Exact polarizability:  89.700   0.613  74.228   0.832   0.050  63.792
 Approx polarizability: 120.584  -4.932 108.931   3.999  -3.036 100.226

                      1                      2                      3
                      A                      A                      A
 Frequencies --     62.6141                72.7477                81.9801
 Red. masses --      4.4245                 2.9730                 3.6224
 Frc consts  --      0.0102                 0.0093                 0.0143
 IR Inten    --      7.5443                 0.2687                 1.5004

                      4                      5                      6
                      A                      A                      A
 Frequencies --    156.3507               177.2199               236.4344
 Red. masses --      3.0527                 3.9497                 2.3450
 Frc consts  --      0.0440                 0.0731                 0.0772
 IR Inten    --      3.7692                 6.0585                 0.4414

                      7                      8                      9
                      A                      A                      A
 Frequencies --    334.0938               349.3985               422.6170
 Red. masses --      5.0204                 3.3373                 2.6797
 Frc consts  --      0.3302                 0.2400                 0.2820
 IR Inten    --      1.4344                 1.5394                 1.0997

                     10                     11                     12
                      A                      A                      A
 Frequencies --    464.0929               670.6996               755.1361
 Red. masses --      3.4281                 4.3027                 1.3651
 Frc consts  --      0.4350                 1.1404                 0.4586
 IR Inten    --      7.5183                27.5265                 0.7051

                     13                     14                     15
                      A                      A                      A
 Frequencies --    806.4259               831.2633               872.1698
 Red. masses --      1.3099                 1.2627                 2.8814
 Frc consts  --      0.5019                 0.5141                 1.2914
 IR Inten    --      1.1711                14.1560                15.8815

                     16                     17                     18
                      A                      A                      A
 Frequencies --    875.7907               911.4582               933.2320
 Red. masses --      6.9626                 2.7066                 2.1091
 Frc consts  --      3.1465                 1.3248                 1.0823
 IR Inten    --      8.7882                28.0679                 0.6935

                     19                     20                     21
                      A                      A                      A
 Frequencies --    955.2070               994.9629              1034.1303
 Red. masses --      2.4677                 1.4711                 2.1193
 Frc consts  --      1.3266                 0.8581                 1.3354
 IR Inten    --     22.3078                 3.3310                 3.8735

                     22                     23                     24
                      A                      A                      A
 Frequencies --   1062.1413              1081.4973              1097.8344
 Red. masses --      1.3349                 1.3485                 1.3126
 Frc consts  --      0.8873                 0.9293                 0.9321
 IR Inten    --      6.9856                 1.4299                 1.3385

                     25                     26                     27
                      A                      A                      A
 Frequencies --   1137.0278              1150.7347              1162.4325
 Red. masses --      1.1195                 1.6365                 1.4835
 Frc consts  --      0.8527                 1.2767                 1.1811
 IR Inten    --      0.6898                 1.4346                 6.6254

                     28                     29                     30
                      A                      A                      A
 Frequencies --   1171.6398              1181.4175              1197.7906
 Red. masses --      1.9151                 1.9885                 1.4059
 Frc consts  --      1.5489                 1.6353                 1.1884
 IR Inten    --      0.2673                 3.3606                 0.7963

                     31                     32                     33
                      A                      A                      A
 Frequencies --   1226.6481              1268.3403              1280.2200
 Red. masses --      1.7857                 1.3465                 1.7227
 Frc consts  --      1.5831                 1.2762                 1.6635
 IR Inten    --      2.4461                 1.9361                 3.9648

                     34                     35                     36
                      A                      A                      A
 Frequencies --   1293.8938              1401.3925              1413.6622
 Red. masses --      1.5716                 1.5447                 1.2684
 Frc consts  --      1.5502                 1.7874                 1.4935
 IR Inten    --      5.3072                 5.0517                17.5636

                     37                     38                     39
                      A                      A                      A
 Frequencies --   1455.3344              1473.8533              1505.3435
 Red. masses --      1.6461                 1.0898                 1.3333
 Frc consts  --      2.0541                 1.3948                 1.7802
 IR Inten    --      6.6845                 0.7635                 1.6728

                     40                     41                     42
                      A                      A                      A
 Frequencies --   1531.9587              1824.8511              2878.7123
 Red. masses --      1.3872                10.5097                 1.0831
 Frc consts  --      1.9182                20.6204                 5.2885
 IR Inten    --      4.6610               161.5717               107.1151

                     43                     44                     45
                      A                      A                      A
 Frequencies --   3005.1722              3085.6535              3115.3303
 Red. masses --      1.0811                 1.0507                 1.0882
 Frc consts  --      5.7527                 5.8940                 6.2224
 IR Inten    --      7.0276                25.9169                10.9242

                     46                     47                     48
                      A                      A                      A
 Frequencies --   3132.5577              3135.6728              3145.7023
 Red. masses --      1.0556                 1.0833                 1.0588
 Frc consts  --      6.1028                 6.2754                 6.1733
 IR Inten    --     16.7753                11.2529                 7.0564

                     49                     50                     51
                      A                      A                      A
 Frequencies --   3173.1934              3213.4009              3232.9667
 Red. masses --      1.1191                 1.1171                 1.1158
 Frc consts  --      6.6391                 6.7964                 6.8714
 IR Inten    --     25.4667                 3.7930                11.8827

 - Thermochemistry -
 -------------------
 Temperature   298.150 Kelvin.  Pressure   1.00000 Atm.
 Atom     1 has atomic number  8 and mass  15.99491

 Molecular mass:   126.06808 amu.
 Principal axes and moments of inertia in atomic units:
                           1         2         3
     Eigenvalues --   892.422711264.756292001.09139
           X            0.99932   0.03671  -0.00291
           Y           -0.03669   0.99931   0.00615
           Z            0.00313  -0.00604   0.99998
 This molecule is an asymmetric top.
 Rotational symmetry number  1.
 Warning -- assumption of classical behavior for rotation
           may cause significant error
 Rotational temperatures (Kelvin)      0.09705     0.06848     0.04328
 Rotational constants (GHZ):           2.02229     1.42695     0.90188
 Zero-point vibrational energy     412917.4 (Joules/Mol)
                                   98.68963 (Kcal/Mol)
 Warning -- explicit consideration of  10 degrees of freedom as
           vibrations may cause significant error
 Vibrational temperatures:     90.09   104.67   117.95   224.95   254.98
          (Kelvin)            340.18   480.69   502.71   608.05   667.73
                              964.99  1086.47  1160.27  1196.00  1254.86
                             1260.07  1311.38  1342.71  1374.33  1431.53
                             1487.88  1528.18  1556.03  1579.54  1635.93
                             1655.65  1672.48  1685.73  1699.79  1723.35
                             1764.87  1824.86  1841.95  1861.62  2016.29
                             2033.94  2093.90  2120.54  2165.85  2204.14
                             2625.55  4141.82  4323.77  4439.56  4482.26
                             4507.05  4511.53  4525.96  4565.51  4623.36
                             4651.51

 Zero-point correction=                           0.157272 (Hartree/Particle)
 Thermal correction to Energy=                    0.166467
 Thermal correction to Enthalpy=                  0.167411
 Thermal correction to Gibbs Free Energy=         0.122149
 Sum of electronic and zero-point Energies=           -422.992521
 Sum of electronic and thermal Energies=              -422.983326
 Sum of electronic and thermal Enthalpies=            -422.982382
 Sum of electronic and thermal Free Energies=         -423.027644

                     E (Thermal)             CV                S
                      KCal/Mol        Cal/Mol-Kelvin    Cal/Mol-Kelvin
 Total                  104.460             32.831             95.263
 Electronic               0.000              0.000              0.000
 Translational            0.889              2.981             40.409
 Rotational               0.889              2.981             29.203
 Vibrational            102.682             26.870             25.651
 Vibration     1          0.597              1.972              4.373
 Vibration     2          0.599              1.967              4.078
 Vibration     3          0.600              1.961              3.843
 Vibration     4          0.620              1.896              2.593
 Vibration     5          0.628              1.870              2.358
 Vibration     6          0.655              1.785              1.830
 Vibration     7          0.716              1.607              1.240
 Vibration     8          0.727              1.576              1.169
 Vibration     9          0.785              1.421              0.883
 Vibration    10          0.822              1.330              0.754

 Optimization completed.
    -- Stationary point found.
 Normal termination of Gaussian 09 at Mon Jan 27 13:52:35 2020.
