 Gaussian 09, Revision D.01,
 Gaussian 09:  ES64L-G09RevD.01 24-Apr-2013

 -----------------------------
 # b3lyp 6-31G(2df,p) opt Freq
 -----------------------------

 -----
 titel
 -----
 Symbolic Z-matrix:
 Charge =  0 Multiplicity = 1

 SCF Done:  E(RB3LYP) =  -423.196890959     A.U. after   14 cycles
 Optimization completed.
    -- Stationary point found.
 Normal termination of Gaussian 09 at Mon Jan 27 12:20:48 2020.

 ----------------------------------------------------------------------
 #N Geom=AllCheck Guess=TCheck SCRF=Check GenChk RB3LYP/6-31G(2df,p) Fr
 eq
 ----------------------------------------------------------------------

 Structure from the checkpoint file:  "/scratch/puck/g09_e014fb41-a458-4d81-af8a-3e22157dd0bf/Gau-152708.chk"
 -----
 titel
 -----
 Charge =  0 Multiplicity = 1

                         Standard orientation:
 ---------------------------------------------------------------------
 Center     Atomic      Atomic             Coordinates (Angstroms)
 Number     Number       Type             X           Y           Z
 ---------------------------------------------------------------------
      1          6           0        1.060509   -1.336216   -0.286361
      2          8           0        1.370818   -0.168152   -1.029346
      3          6           0        1.489277    0.964984   -0.187709
      4          6           0        0.201589    1.153992    0.633806
      5          8           0        0.002705   -0.022382    1.424448
      6          6           0       -0.195674   -1.156400    0.575426
      7          6           0       -1.513078   -1.009677   -0.212908
      8          6           0       -1.765613    0.409748   -0.646673
      9          6           0       -0.988952    1.413730   -0.252316
     10          1           0        0.934862   -2.145290   -1.012601
     11          1           0        1.899825   -1.591257    0.381842
     12          1           0        2.338241    0.845249    0.505066
     13          1           0        1.679772    1.823663   -0.838330
     14          1           0        0.342996    1.971489    1.349293
     15          1           0       -0.267587   -2.017400    1.248604
     16          1           0       -1.499627   -1.675668   -1.085293
     17          1           0       -2.350930   -1.351506    0.409942
     18          1           0       -2.630238    0.589208   -1.280500
     19          1           0       -1.163843    2.434815   -0.578419
 ---------------------------------------------------------------------

 SCF Done:  E(RB3LYP) =  -423.196890959     A.U. after    1 cycles

 The electronic state is 1-A.
 Alpha  occ. eigenvalues --  -19.14024 -19.13657 -10.23178 -10.23167 -10.22583
 Alpha  occ. eigenvalues --  -10.22537 -10.18666 -10.18259 -10.17588  -1.05172
 Alpha  occ. eigenvalues --   -1.01290  -0.79688  -0.79248  -0.69527  -0.68583
 Alpha  occ. eigenvalues --   -0.63023  -0.58957  -0.52033  -0.48870  -0.47944
 Alpha  occ. eigenvalues --   -0.47559  -0.46570  -0.46134  -0.41897  -0.40063
 Alpha  occ. eigenvalues --   -0.38303  -0.37276  -0.36431  -0.35587  -0.34561
 Alpha  occ. eigenvalues --   -0.28898  -0.27612  -0.24398  -0.23078
 Alpha virt. eigenvalues --    0.02179   0.08305   0.11266   0.11699   0.12032
 Alpha virt. eigenvalues --    0.13172   0.15883   0.16089   0.16394   0.17142
 Alpha virt. eigenvalues --    0.18294   0.18968   0.20223   0.21207   0.22719

 Mulliken charges:
               1
     1  C   -0.082574
     2  O   -0.247583
     3  C   -0.083645
     4  C    0.027483
     5  O   -0.278613
     6  C    0.075467
     7  C   -0.266020
     8  C   -0.056093
     9  C   -0.048043
    10  H    0.104618
    11  H    0.090399
    12  H    0.091641
    13  H    0.106915
    14  H    0.084858
    15  H    0.081815
    16  H    0.108801
    17  H    0.112777
    18  H    0.089189
    19  H    0.088607
 Sum of Mulliken charges =   0.00000

 Dipole moment (field-independent basis, Debye):
    X=             -0.3762    Y=             -0.1673    Z=             -0.1587  Tot=              0.4412
 Quadrupole moment (field-independent basis, Debye-Ang):
   XX=            -52.4834   YY=            -46.8319   ZZ=            -57.8923
   XY=              1.5902   XZ=              2.8647   YZ=             -0.0971

  Exact polarizability:  78.406   5.851  85.670   6.829   0.553  61.549
 Approx polarizability: 108.728  14.221 127.014  10.130   4.194  99.349

                      1                      2                      3
                      A                      A                      A
 Frequencies --    143.0416               219.6562               314.3934
 Red. masses --      2.3640                 4.8133                 2.1965
 Frc consts  --      0.0285                 0.1368                 0.1279
 IR Inten    --      0.2499                 2.9565                 4.0310

                      4                      5                      6
                      A                      A                      A
 Frequencies --    365.1003               415.8673               435.9222
 Red. masses --      2.3564                 2.9365                 3.8698
 Frc consts  --      0.1851                 0.2992                 0.4333
 IR Inten    --      4.7835                 1.2931                 0.4729

                      7                      8                      9
                      A                      A                      A
 Frequencies --    485.3668               511.7338               646.4623
 Red. masses --      3.9604                 4.2359                 1.6095
 Frc consts  --      0.5497                 0.6536                 0.3963
 IR Inten    --      4.0095                 2.0192                 4.6656

                     10                     11                     12
                      A                      A                      A
 Frequencies --    711.7884               757.4631               787.3290
 Red. masses --      4.3112                 2.9042                 3.0988
 Frc consts  --      1.2869                 0.9818                 1.1318
 IR Inten    --      9.5746                31.1863                 4.9414

                     13                     14                     15
                      A                      A                      A
 Frequencies --    826.7673               877.4703               904.0392
 Red. masses --      3.6402                 3.3712                 2.9775
 Frc consts  --      1.4660                 1.5293                 1.4338
 IR Inten    --      6.8873                41.7930                14.9518

                     16                     17                     18
                      A                      A                      A
 Frequencies --    919.9277               962.7169               990.7811
 Red. masses --      1.8886                 1.9123                 2.1760
 Frc consts  --      0.9416                 1.0442                 1.2585
 IR Inten    --      4.7588                15.3262                 4.3521

                     19                     20                     21
                      A                      A                      A
 Frequencies --    993.4952              1025.5373              1037.3194
 Red. masses --      1.2819                 2.3179                 3.3253
 Frc consts  --      0.7455                 1.4363                 2.1082
 IR Inten    --      0.6617                 5.0446                 4.5566

                     22                     23                     24
                      A                      A                      A
 Frequencies --   1055.9606              1101.3909              1136.1942
 Red. masses --      2.4008                 2.6537                 2.1022
 Frc consts  --      1.5772                 1.8967                 1.5989
 IR Inten    --      3.6992                53.7760                13.3967

                     25                     26                     27
                      A                      A                      A
 Frequencies --   1149.9499              1196.4711              1219.6268
 Red. masses --      3.8439                 1.2106                 1.1451
 Frc consts  --      2.9949                 1.0211                 1.0036
 IR Inten    --     47.3332                 4.0627                14.5740

                     28                     29                     30
                      A                      A                      A
 Frequencies --   1250.0534              1294.9453              1316.0206
 Red. masses --      1.1258                 1.3920                 1.3325
 Frc consts  --      1.0365                 1.3753                 1.3596
 IR Inten    --     18.9056                 4.4708                 1.3300

                     31                     32                     33
                      A                      A                      A
 Frequencies --   1330.4697              1349.3563              1360.2337
 Red. masses --      1.2940                 1.6416                 1.3204
 Frc consts  --      1.3496                 1.7611                 1.4394
 IR Inten    --      1.1868                 6.7599                 0.2419

                     34                     35                     36
                      A                      A                      A
 Frequencies --   1376.5101              1398.0781              1412.1950
 Red. masses --      1.3594                 1.4252                 1.3951
 Frc consts  --      1.5176                 1.6412                 1.6392
 IR Inten    --      4.0860                 6.8813                 2.9425

                     37                     38                     39
                      A                      A                      A
 Frequencies --   1422.2411              1468.3707              1481.0290
 Red. masses --      1.4747                 1.0943                 1.0828
 Frc consts  --      1.7576                 1.3902                 1.3994
 IR Inten    --      3.6157                 4.4584                 1.7082

                     40                     41                     42
                      A                      A                      A
 Frequencies --   1492.1285              1727.6472              2968.6832
 Red. masses --      1.1116                 6.6369                 1.0688
 Frc consts  --      1.4582                11.6715                 5.5500
 IR Inten    --      4.6296                 2.8449                33.9085

                     43                     44                     45
                      A                      A                      A
 Frequencies --   2976.3692              3012.3678              3043.1055
 Red. masses --      1.0686                 1.0633                 1.0965
 Frc consts  --      5.5773                 5.6851                 5.9827
 IR Inten    --     84.9887                23.3050                17.7059

                     46                     47                     48
                      A                      A                      A
 Frequencies --   3051.5660              3054.9760              3080.9438
 Red. masses --      1.0853                 1.0883                 1.0934
 Frc consts  --      5.9545                 5.9845                 6.1147
 IR Inten    --     47.9902                40.6294                37.7148

                     49                     50                     51
                      A                      A                      A
 Frequencies --   3086.5760              3152.4699              3178.0423
 Red. masses --      1.0948                 1.0841                 1.0981
 Frc consts  --      6.1453                 6.3478                 6.5345
 IR Inten    --     24.6424                 9.8364                26.6122

 - Thermochemistry -
 -------------------
 Temperature   298.150 Kelvin.  Pressure   1.00000 Atm.
 Atom     1 has atomic number  6 and mass  12.00000

 Molecular mass:   126.06808 amu.
 Principal axes and moments of inertia in atomic units:
                           1         2         3
     Eigenvalues --   743.05036 899.667571109.66407
           X            0.99743   0.05783   0.04238
           Y           -0.05775   0.99833  -0.00299
           Z           -0.04249   0.00054   0.99910
 This molecule is an asymmetric top.
 Rotational symmetry number  1.
 Warning -- assumption of classical behavior for rotation
           may cause significant error
 Rotational temperatures (Kelvin)      0.11657     0.09627     0.07805
 Rotational constants (GHZ):           2.42883     2.00601     1.62639
 Zero-point vibrational energy     427522.3 (Joules/Mol)
                                  102.18029 (Kcal/Mol)
 Warning -- explicit consideration of   8 degrees of freedom as
           vibrations may cause significant error
 Vibrational temperatures:    205.80   316.04   452.34   525.30   598.34
          (Kelvin)            627.19   698.33   736.27   930.11  1024.10
                             1089.82  1132.79  1189.53  1262.48  1300.71
                             1323.57  1385.13  1425.51  1429.42  1475.52
                             1492.47  1519.29  1584.65  1634.73  1654.52
                             1721.45  1754.77  1798.55  1863.14  1893.46
                             1914.25  1941.42  1957.07  1980.49  2011.52
                             2031.83  2046.29  2112.66  2130.87  2146.84
                             2485.70  4271.27  4282.33  4334.12  4378.34
                             4390.52  4395.42  4432.79  4440.89  4535.70
                             4572.49

 Zero-point correction=                           0.162835 (Hartree/Particle)
 Thermal correction to Energy=                    0.169696
 Thermal correction to Enthalpy=                  0.170640
 Thermal correction to Gibbs Free Energy=         0.131901
 Sum of electronic and zero-point Energies=           -423.034056
 Sum of electronic and thermal Energies=              -423.027195
 Sum of electronic and thermal Enthalpies=            -423.026251
 Sum of electronic and thermal Free Energies=         -423.064990

                     E (Thermal)             CV                S
                      KCal/Mol        Cal/Mol-Kelvin    Cal/Mol-Kelvin
 Total                  106.486             28.362             81.534
 Electronic               0.000              0.000              0.000
 Translational            0.889              2.981             40.409
 Rotational               0.889              2.981             28.097
 Vibrational            104.708             22.400             13.029
 Vibration     1          0.616              1.910              2.763
 Vibration     2          0.647              1.811              1.962
 Vibration     3          0.702              1.646              1.339
 Vibration     4          0.738              1.544              1.100
 Vibration     5          0.779              1.436              0.906
 Vibration     6          0.796              1.392              0.840
 Vibration     7          0.841              1.283              0.696
 Vibration     8          0.867              1.224              0.629

 Optimization completed.
    -- Stationary point found.
 Normal termination of Gaussian 09 at Mon Jan 27 13:11:24 2020.
