 Gaussian 09, Revision D.01,
 Gaussian 09:  ES64L-G09RevD.01 24-Apr-2013

 -----------------------------
 # b3lyp 6-31G(2df,p) opt Freq
 -----------------------------

 -----
 titel
 -----
 Symbolic Z-matrix:
 Charge =  0 Multiplicity = 1

 SCF Done:  E(RB3LYP) =  -423.135044657     A.U. after   13 cycles
 Optimization completed.
    -- Stationary point found.
 Normal termination of Gaussian 09 at Tue Jan 28 11:38:42 2020.

 ----------------------------------------------------------------------
 #N Geom=AllCheck Guess=TCheck SCRF=Check GenChk RB3LYP/6-31G(2df,p) Fr
 eq
 ----------------------------------------------------------------------

 Structure from the checkpoint file:  "/scratch/puck/g09_8552ad73-b811-4118-afac-58507fa663ff/Gau-26311.chk"
 -----
 titel
 -----
 Charge =  0 Multiplicity = 1

                         Standard orientation:
 ---------------------------------------------------------------------
 Center     Atomic      Atomic             Coordinates (Angstroms)
 Number     Number       Type             X           Y           Z
 ---------------------------------------------------------------------
      1          6           0       -3.257216   -0.387435   -0.090721
      2          8           0       -2.096427    0.273128   -0.540070
      3          6           0       -1.021931    0.236044    0.378874
      4          6           0        0.014848    1.334613   -0.012698
      5          6           0        1.346961    0.715141    0.431938
      6          8           0        2.473705    0.508209   -0.491558
      7          6           0        2.450943   -0.931512   -0.233234
      8          6           0        1.084461   -0.752333    0.376389
      9          6           0       -0.201086   -1.060763    0.278934
     10          1           0       -3.632958    0.046754    0.849091
     11          1           0       -4.018345   -0.267059   -0.865409
     12          1           0       -3.090957   -1.462938    0.072931
     13          1           0       -1.417111    0.406271    1.395106
     14          1           0       -0.003500    1.418198   -1.103281
     15          1           0       -0.208948    2.311370    0.423032
     16          1           0        1.727615    1.137544    1.370961
     17          1           0        2.515470   -1.529500   -1.148162
     18          1           0        3.257225   -1.219294    0.454229
     19          1           0       -0.648588   -2.014576    0.027634
 ---------------------------------------------------------------------

 SCF Done:  E(RB3LYP) =  -423.135044657     A.U. after    1 cycles

 The electronic state is 1-A.
 Alpha  occ. eigenvalues --  -19.14310 -19.13545 -10.24126 -10.24065 -10.22902
 Alpha  occ. eigenvalues --  -10.22698 -10.18947 -10.18519 -10.18334  -1.03709
 Alpha  occ. eigenvalues --   -1.03198  -0.83253  -0.73704  -0.70538  -0.67135
 Alpha  occ. eigenvalues --   -0.64511  -0.57879  -0.53366  -0.50369  -0.48912
 Alpha  occ. eigenvalues --   -0.46769  -0.46373  -0.43813  -0.43311  -0.42571
 Alpha  occ. eigenvalues --   -0.37500  -0.36066  -0.35802  -0.34019  -0.32371
 Alpha  occ. eigenvalues --   -0.31119  -0.25810  -0.25308  -0.24333
 Alpha virt. eigenvalues --    0.00304   0.07658   0.09370   0.11353   0.11690
 Alpha virt. eigenvalues --    0.12304   0.14138   0.14932   0.15584   0.16989
 Alpha virt. eigenvalues --    0.17351   0.18059   0.18272   0.19839   0.22375

 Mulliken charges:
               1
     1  C   -0.239502
     2  O   -0.237678
     3  C    0.112263
     4  C   -0.288102
     5  C    0.103537
     6  O   -0.307449
     7  C   -0.153856
     8  C    0.192583
     9  C   -0.241869
    10  H    0.106611
    11  H    0.129384
    12  H    0.105649
    13  H    0.069901
    14  H    0.134114
    15  H    0.098508
    16  H    0.080464
    17  H    0.122329
    18  H    0.108195
    19  H    0.104918
 Sum of Mulliken charges =   0.00000

 Dipole moment (field-independent basis, Debye):
    X=             -1.2061    Y=             -1.3378    Z=              1.4185  Tot=              2.2927
 Quadrupole moment (field-independent basis, Debye-Ang):
   XX=            -52.3464   YY=            -51.4463   ZZ=            -54.1047
   XY=             -1.6811   XZ=              0.4545   YZ=              2.4782

  Exact polarizability: 105.789  -0.727  73.017   0.066   4.123  59.649
 Approx polarizability: 142.434   3.891 108.108   0.244   3.348  94.602

                      1                      2                      3
                      A                      A                      A
 Frequencies --     80.2194               109.3300               176.4437
 Red. masses --      3.6400                 2.6531                 1.3519
 Frc consts  --      0.0138                 0.0187                 0.0248
 IR Inten    --      0.1927                 2.4340                 0.6254

                      4                      5                      6
                      A                      A                      A
 Frequencies --    215.4479               267.4255               315.7969
 Red. masses --      2.3244                 2.5793                 2.9140
 Frc consts  --      0.0636                 0.1087                 0.1712
 IR Inten    --      3.6711                 2.4619                 2.9658

                      7                      8                      9
                      A                      A                      A
 Frequencies --    354.2083               459.6738               472.3824
 Red. masses --      3.4633                 3.0611                 3.5527
 Frc consts  --      0.2560                 0.3811                 0.4671
 IR Inten    --      3.2270                 4.0738                 4.9426

                     10                     11                     12
                      A                      A                      A
 Frequencies --    593.7374               658.4394               763.8360
 Red. masses --      2.4361                 3.6071                 4.5004
 Frc consts  --      0.5060                 0.9214                 1.5470
 IR Inten    --      5.5771                 5.8432                10.6106

                     13                     14                     15
                      A                      A                      A
 Frequencies --    810.8245               869.4149               875.3666
 Red. masses --      1.4823                 3.7240                 2.4024
 Frc consts  --      0.5742                 1.6585                 1.0846
 IR Inten    --     17.7970                38.6611                 2.0539

                     16                     17                     18
                      A                      A                      A
 Frequencies --    906.3842               959.4942               978.0185
 Red. masses --      3.4733                 4.1716                 3.3672
 Frc consts  --      1.6812                 2.2627                 1.8976
 IR Inten    --     22.0131                47.8712                 8.6282

                     19                     20                     21
                      A                      A                      A
 Frequencies --    997.5666              1020.5354              1053.1316
 Red. masses --      1.9711                 2.5779                 2.4360
 Frc consts  --      1.1557                 1.5819                 1.5918
 IR Inten    --      4.4496                14.6107                20.6314

                     22                     23                     24
                      A                      A                      A
 Frequencies --   1062.7949              1108.2284              1137.9507
 Red. masses --      2.1638                 2.8512                 1.1711
 Frc consts  --      1.4400                 2.0632                 0.8935
 IR Inten    --     15.5703                40.3803                 5.5914

                     25                     26                     27
                      A                      A                      A
 Frequencies --   1157.3278              1169.6772              1182.6212
 Red. masses --      3.1542                 1.4360                 1.3052
 Frc consts  --      2.4892                 1.1575                 1.0755
 IR Inten    --    112.7088                13.7514                 6.8462

                     28                     29                     30
                      A                      A                      A
 Frequencies --   1218.5225              1241.2161              1248.6804
 Red. masses --      1.4881                 1.6757                 1.6038
 Frc consts  --      1.3018                 1.5211                 1.4734
 IR Inten    --      1.9162                46.7674                 6.1784

                     31                     32                     33
                      A                      A                      A
 Frequencies --   1285.9775              1309.4256              1340.1151
 Red. masses --      1.3173                 1.4227                 1.6113
 Frc consts  --      1.2835                 1.4373                 1.7050
 IR Inten    --      2.1680                 7.2910                 5.6882

                     34                     35                     36
                      A                      A                      A
 Frequencies --   1352.5178              1388.7316              1475.5313
 Red. masses --      1.3230                 1.3173                 1.1021
 Frc consts  --      1.4259                 1.4969                 1.4137
 IR Inten    --     23.5091                48.4703                 2.9430

                     37                     38                     39
                      A                      A                      A
 Frequencies --   1480.6703              1487.8403              1508.5833
 Red. masses --      1.1242                 1.0645                 1.0822
 Frc consts  --      1.4521                 1.3884                 1.4511
 IR Inten    --      2.0472                 3.8597                 5.3379

                     40                     41                     42
                      A                      A                      A
 Frequencies --   1509.1041              1747.6830              2946.6757
 Red. masses --      1.0844                 9.0094                 1.0809
 Frc consts  --      1.4550                16.2133                 5.5299
 IR Inten    --      2.7229                 6.5501                44.3755

                     43                     44                     45
                      A                      A                      A
 Frequencies --   2975.1339              3010.7914              3018.4760
 Red. masses --      1.0378                 1.0673                 1.0774
 Frc consts  --      5.4120                 5.7004                 5.7838
 IR Inten    --     73.8541                56.6233                75.0768

                     46                     47                     48
                      A                      A                      A
 Frequencies --   3020.8559              3065.4197              3076.1435
 Red. masses --      1.1027                 1.0586                 1.1035
 Frc consts  --      5.9288                 5.8610                 6.1523
 IR Inten    --     52.8066                18.8831                29.7481

                     49                     50                     51
                      A                      A                      A
 Frequencies --   3114.7771              3122.5013              3208.3747
 Red. masses --      1.0962                 1.1066                 1.0955
 Frc consts  --      6.2660                 6.3567                 6.6440
 IR Inten    --     30.7204                24.9191                 6.4422

 - Thermochemistry -
 -------------------
 Temperature   298.150 Kelvin.  Pressure   1.00000 Atm.
 Atom     1 has atomic number  6 and mass  12.00000

 Molecular mass:   126.06808 amu.
 Principal axes and moments of inertia in atomic units:
                           1         2         3
     Eigenvalues --   389.987731792.789642011.24533
           X            1.00000  -0.00021  -0.00223
           Y            0.00032   0.99894   0.04603
           Z            0.00222  -0.04603   0.99894
 This molecule is an asymmetric top.
 Rotational symmetry number  1.
 Rotational temperatures (Kelvin)      0.22209     0.04831     0.04306
 Rotational constants (GHZ):           4.62769     1.00667     0.89733
 Zero-point vibrational energy     418154.8 (Joules/Mol)
                                   99.94140 (Kcal/Mol)
 Warning -- explicit consideration of  10 degrees of freedom as
           vibrations may cause significant error
 Vibrational temperatures:    115.42   157.30   253.86   309.98   384.77
          (Kelvin)            454.36   509.63   661.37   679.65   854.25
                              947.35  1098.99  1166.59  1250.89  1259.46
                             1304.08  1380.50  1407.15  1435.27  1468.32
                             1515.22  1529.12  1594.49  1637.26  1665.13
                             1682.90  1701.53  1753.18  1785.83  1796.57
                             1850.23  1883.97  1928.12  1945.97  1998.07
                             2122.96  2130.35  2140.67  2170.51  2171.26
                             2514.52  4239.60  4280.55  4331.85  4342.91
                             4346.33  4410.45  4425.88  4481.46  4492.58
                             4616.13

 Zero-point correction=                           0.159267 (Hartree/Particle)
 Thermal correction to Energy=                    0.167512
 Thermal correction to Enthalpy=                  0.168457
 Thermal correction to Gibbs Free Energy=         0.126145
 Sum of electronic and zero-point Energies=           -422.975778
 Sum of electronic and thermal Energies=              -422.967532
 Sum of electronic and thermal Enthalpies=            -422.966588
 Sum of electronic and thermal Free Energies=         -423.008899

                     E (Thermal)             CV                S
                      KCal/Mol        Cal/Mol-Kelvin    Cal/Mol-Kelvin
 Total                  105.116             31.042             89.051
 Electronic               0.000              0.000              0.000
 Translational            0.889              2.981             40.409
 Rotational               0.889              2.981             28.732
 Vibrational            103.338             25.080             19.910
 Vibration     1          0.600              1.963              3.886
 Vibration     2          0.606              1.942              3.281
 Vibration     3          0.628              1.871              2.366
 Vibration     4          0.645              1.817              1.997
 Vibration     5          0.673              1.733              1.613
 Vibration     6          0.703              1.643              1.332
 Vibration     7          0.730              1.567              1.147
 Vibration     8          0.818              1.339              0.767
 Vibration     9          0.829              1.311              0.731
 Vibration    10          0.951              1.045              0.461

 Normal termination of Gaussian 09 at Tue Jan 28 12:19:00 2020.
