 Gaussian 09, Revision D.01,
 Gaussian 09:  ES64L-G09RevD.01 24-Apr-2013

 -----------------------------
 # b3lyp 6-31G(2df,p) opt Freq
 -----------------------------

 -----
 titel
 -----
 Symbolic Z-matrix:
 Charge =  0 Multiplicity = 1

 SCF Done:  E(RB3LYP) =  -423.101674040     A.U. after   13 cycles
 Optimization completed.
    -- Stationary point found.
 Normal termination of Gaussian 09 at Tue Jan 28 14:10:46 2020.

 ----------------------------------------------------------------------
 #N Geom=AllCheck Guess=TCheck SCRF=Check GenChk RB3LYP/6-31G(2df,p) Fr
 eq
 ----------------------------------------------------------------------

 Structure from the checkpoint file:  "/scratch/puck/g09_bcf8e418-c2c1-48a3-b6f7-0fbb5ade0529/Gau-144539.chk"
 -----
 titel
 -----
 Charge =  0 Multiplicity = 1

                         Standard orientation:
 ---------------------------------------------------------------------
 Center     Atomic      Atomic             Coordinates (Angstroms)
 Number     Number       Type             X           Y           Z
 ---------------------------------------------------------------------
      1          8           0       -3.574833   -0.023157    0.273875
      2          6           0       -2.374838    0.268510   -0.426482
      3          6           0       -1.246925   -0.512910    0.237654
      4          6           0        0.100567   -0.328045   -0.452114
      5          6           0        0.788642    1.018431   -0.190703
      6          6           0        2.292722    0.689084   -0.206232
      7          8           0        2.441406   -0.692349   -0.532286
      8          6           0        1.299279   -0.925692    0.339098
      9          6           0        1.510806    0.470768    1.040235
     10          1           0       -4.291313    0.467754   -0.138630
     11          1           0       -2.451115   -0.021481   -1.487442
     12          1           0       -2.151062    1.347061   -0.399521
     13          1           0       -1.181788   -0.206820    1.288813
     14          1           0       -1.520636   -1.575553    0.231426
     15          1           0        0.056967   -0.662263   -1.496324
     16          1           0        0.414732    2.021570   -0.353603
     17          1           0        3.080148    1.382759   -0.469073
     18          1           0        1.278957   -1.920060    0.781750
     19          1           0        1.611007    0.810202    2.061159
 ---------------------------------------------------------------------

 SCF Done:  E(RB3LYP) =  -423.101674041     A.U. after    1 cycles

 The electronic state is 1-A.
 Alpha  occ. eigenvalues --  -19.13378 -19.13267 -10.24204 -10.23895 -10.22663
 Alpha  occ. eigenvalues --  -10.19571 -10.19466 -10.19225 -10.17996  -1.05990
 Alpha  occ. eigenvalues --   -1.01361  -0.85967  -0.77519  -0.70554  -0.64607
 Alpha  occ. eigenvalues --   -0.60598  -0.55564  -0.53715  -0.53399  -0.50071
 Alpha  occ. eigenvalues --   -0.48658  -0.44789  -0.43777  -0.40518  -0.40162
 Alpha  occ. eigenvalues --   -0.38824  -0.35960  -0.34848  -0.33204  -0.31490
 Alpha  occ. eigenvalues --   -0.29423  -0.26777  -0.26321  -0.22921
 Alpha virt. eigenvalues --    0.07648   0.08207   0.09295   0.10517   0.11801
 Alpha virt. eigenvalues --    0.12850   0.13539   0.15315   0.15680   0.16840
 Alpha virt. eigenvalues --    0.17415   0.19250   0.19935   0.21013   0.21634

 Mulliken charges:
               1
     1  O   -0.420780
     2  C   -0.072431
     3  C   -0.192863
     4  C   -0.013659
     5  C   -0.114827
     6  C    0.075517
     7  O   -0.295322
     8  C    0.056104
     9  C   -0.144679
    10  H    0.285308
    11  H    0.085570
    12  H    0.085499
    13  H    0.104793
    14  H    0.103805
    15  H    0.071689
    16  H    0.090101
    17  H    0.109521
    18  H    0.086815
    19  H    0.099838
 Sum of Mulliken charges =   0.00000

 Dipole moment (field-independent basis, Debye):
    X=             -1.0579    Y=              1.8067    Z=             -0.0549  Tot=              2.0944
 Quadrupole moment (field-independent basis, Debye-Ang):
   XX=            -54.5253   YY=            -50.5609   ZZ=            -53.3570
   XY=             -0.0657   XZ=              6.5709   YZ=             -1.2729

  Exact polarizability:  87.918   1.991  69.776   1.376  -1.458  65.054
 Approx polarizability: 112.763   0.446 107.405  -1.396  -2.226 104.082

                      1                      2                      3
                      A                      A                      A
 Frequencies --     81.9382                89.4860               127.6269
 Red. masses --      4.6300                 2.1159                 4.1532
 Frc consts  --      0.0183                 0.0100                 0.0399
 IR Inten    --      1.8255                 6.8955                 1.3583

                      4                      5                      6
                      A                      A                      A
 Frequencies --    252.9747               266.6967               332.1277
 Red. masses --      2.3993                 1.1314                 7.4152
 Frc consts  --      0.0905                 0.0474                 0.4819
 IR Inten    --      7.0845                95.9624                 0.5031

                      7                      8                      9
                      A                      A                      A
 Frequencies --    348.8081               552.4508               589.8946
 Red. masses --      3.2800                 4.8005                 3.0320
 Frc consts  --      0.2351                 0.8632                 0.6216
 IR Inten    --      7.0321                 9.4358                16.5896

                     10                     11                     12
                      A                      A                      A
 Frequencies --    750.2626               767.3058               779.7489
 Red. masses --      2.1497                 1.6082                 2.1886
 Frc consts  --      0.7130                 0.5579                 0.7840
 IR Inten    --      1.2400                11.6933                 9.8874

                     13                     14                     15
                      A                      A                      A
 Frequencies --    792.2616               819.5453               843.1310
 Red. masses --      2.5333                 1.5015                 1.8880
 Frc consts  --      0.9369                 0.5942                 0.7908
 IR Inten    --      5.9511                 3.3639                 0.5613

                     16                     17                     18
                      A                      A                      A
 Frequencies --    917.0384               930.1821               935.3376
 Red. masses --      2.2369                 1.9694                 2.6904
 Frc consts  --      1.1083                 1.0040                 1.3868
 IR Inten    --      9.9947                 8.9562                30.2398

                     19                     20                     21
                      A                      A                      A
 Frequencies --    984.9157              1023.4788              1025.0598
 Red. masses --      2.7970                 1.8191                 1.8674
 Frc consts  --      1.5986                 1.1227                 1.1561
 IR Inten    --     37.1182                10.0142                11.8992

                     22                     23                     24
                      A                      A                      A
 Frequencies --   1042.6879              1046.9192              1069.5970
 Red. masses --      2.6604                 2.0953                 2.4828
 Frc consts  --      1.7042                 1.3531                 1.6736
 IR Inten    --      4.2261                20.0335                 8.9657

                     25                     26                     27
                      A                      A                      A
 Frequencies --   1081.1538              1113.8597              1133.1432
 Red. masses --      3.5357                 2.4419                 2.2344
 Frc consts  --      2.4350                 1.7850                 1.6903
 IR Inten    --     66.3827                 4.9881                 4.0404

                     28                     29                     30
                      A                      A                      A
 Frequencies --   1158.5571              1179.1305              1203.1985
 Red. masses --      1.6144                 1.7275                 1.1699
 Frc consts  --      1.2767                 1.4151                 0.9979
 IR Inten    --      1.7658                 4.1204                 3.7882

                     31                     32                     33
                      A                      A                      A
 Frequencies --   1225.0214              1232.9417              1274.0746
 Red. masses --      1.2687                 1.3039                 1.4292
 Frc consts  --      1.1217                 1.1679                 1.3669
 IR Inten    --      5.3116                21.5215                23.9674

                     34                     35                     36
                      A                      A                      A
 Frequencies --   1292.0087              1315.8256              1341.8058
 Red. masses --      1.4605                 1.1560                 1.5065
 Frc consts  --      1.4364                 1.1793                 1.5981
 IR Inten    --      7.8417                 4.8135                 8.5503

                     37                     38                     39
                      A                      A                      A
 Frequencies --   1367.5351              1389.6617              1462.2992
 Red. masses --      2.4711                 1.6614                 1.4621
 Frc consts  --      2.7228                 1.8903                 1.8421
 IR Inten    --      9.8614                 4.3885                 5.7357

                     40                     41                     42
                      A                      A                      A
 Frequencies --   1489.2981              1527.2627              2961.2356
 Red. masses --      1.0913                 1.0864                 1.0550
 Frc consts  --      1.4261                 1.4931                 5.4507
 IR Inten    --      2.0534                 3.2092                50.6818

                     43                     44                     45
                      A                      A                      A
 Frequencies --   2987.8594              3026.1973              3029.5181
 Red. masses --      1.1048                 1.0595                 1.0829
 Frc consts  --      5.8110                 5.7170                 5.8555
 IR Inten    --     45.8423                22.8339                35.3785

                     46                     47                     48
                      A                      A                      A
 Frequencies --   3072.2374              3138.2091              3193.1293
 Red. masses --      1.1032                 1.0924                 1.0911
 Frc consts  --      6.1349                 6.3387                 6.5545
 IR Inten    --     48.1266                31.0569                11.6032

                     49                     50                     51
                      A                      A                      A
 Frequencies --   3206.1341              3221.9531              3830.3338
 Red. masses --      1.0902                 1.1048                 1.0664
 Frc consts  --      6.6027                 6.7573                 9.2179
 IR Inten    --     13.2606                12.4795                20.1700

 - Thermochemistry -
 -------------------
 Temperature   298.150 Kelvin.  Pressure   1.00000 Atm.
 Atom     1 has atomic number  8 and mass  15.99491

 Molecular mass:   126.06808 amu.
 Principal axes and moments of inertia in atomic units:
                           1         2         3
     Eigenvalues --   347.963122103.769442181.44998
           X            0.99993   0.00402   0.01110
           Y           -0.00331   0.99799  -0.06331
           Z           -0.01133   0.06327   0.99793
 This molecule is an asymmetric top.
 Rotational symmetry number  1.
 Rotational temperatures (Kelvin)      0.24892     0.04117     0.03970
 Rotational constants (GHZ):           5.18659     0.85786     0.82731
 Zero-point vibrational energy     417634.6 (Joules/Mol)
                                   99.81707 (Kcal/Mol)
 Warning -- explicit consideration of   9 degrees of freedom as
           vibrations may cause significant error
 Vibrational temperatures:    117.89   128.75   183.63   363.97   383.72
          (Kelvin)            477.86   501.86   794.85   848.73  1079.46
                             1103.98  1121.88  1139.89  1179.14  1213.08
                             1319.41  1338.32  1345.74  1417.07  1472.56
                             1474.83  1500.19  1506.28  1538.91  1555.54
                             1602.59  1630.34  1666.90  1696.50  1731.13
                             1762.53  1773.93  1833.11  1858.91  1893.18
                             1930.56  1967.58  1999.41  2103.92  2142.77
                             2197.39  4260.55  4298.86  4354.02  4358.80
                             4420.26  4515.18  4594.20  4612.91  4635.67
                             5510.99

 Zero-point correction=                           0.159069 (Hartree/Particle)
 Thermal correction to Energy=                    0.167214
 Thermal correction to Enthalpy=                  0.168158
 Thermal correction to Gibbs Free Energy=         0.125751
 Sum of electronic and zero-point Energies=           -422.942605
 Sum of electronic and thermal Energies=              -422.934460
 Sum of electronic and thermal Enthalpies=            -422.933516
 Sum of electronic and thermal Free Energies=         -422.975923

                     E (Thermal)             CV                S
                      KCal/Mol        Cal/Mol-Kelvin    Cal/Mol-Kelvin
 Total                  104.929             31.011             89.255
 Electronic               0.000              0.000              0.000
 Translational            0.889              2.981             40.409
 Rotational               0.889              2.981             28.859
 Vibrational            103.151             25.050             19.988
 Vibration     1          0.600              1.962              3.844
 Vibration     2          0.602              1.957              3.671
 Vibration     3          0.611              1.926              2.982
 Vibration     4          0.664              1.758              1.710
 Vibration     5          0.672              1.734              1.618
 Vibration     6          0.714              1.611              1.250
 Vibration     7          0.726              1.578              1.172
 Vibration     8          0.908              1.134              0.539
 Vibration     9          0.947              1.053              0.467

 Optimization completed.
    -- Stationary point found.
 Normal termination of Gaussian 09 at Tue Jan 28 14:55:36 2020.
