 Gaussian 09, Revision D.01,
 Gaussian 09:  ES64L-G09RevD.01 24-Apr-2013

 -----------------------------
 # b3lyp 6-31G(2df,p) opt Freq
 -----------------------------

 -----
 titel
 -----
 Symbolic Z-matrix:
 Charge =  0 Multiplicity = 1

 SCF Done:  E(RB3LYP) =  -423.188203948     A.U. after   13 cycles
 Optimization completed.
    -- Stationary point found.
 Normal termination of Gaussian 09 at Tue Jan 28 08:14:38 2020.

 ----------------------------------------------------------------------
 #N Geom=AllCheck Guess=TCheck SCRF=Check GenChk RB3LYP/6-31G(2df,p) Fr
 eq
 ----------------------------------------------------------------------

 Structure from the checkpoint file:  "/scratch/puck/g09_2473c42e-3eb1-4f95-a6db-d04bfaa4a03a/Gau-17860.chk"
 -----
 titel
 -----
 Charge =  0 Multiplicity = 1

                         Standard orientation:
 ---------------------------------------------------------------------
 Center     Atomic      Atomic             Coordinates (Angstroms)
 Number     Number       Type             X           Y           Z
 ---------------------------------------------------------------------
      1          8           0        2.364141   -0.295809    0.281748
      2          6           0        1.203951   -0.331888   -0.538979
      3          6           0        0.647320    1.076399   -0.849487
      4          8           0       -0.208299    1.606017    0.163392
      5          6           0       -1.181278    0.666101    0.665230
      6          6           0       -0.429180   -0.484876    1.347327
      7          6           0        0.085551   -1.213609    0.085784
      8          6           0       -1.157861   -1.143668   -0.795561
      9          6           0       -1.888846   -0.077346   -0.463434
     10          1           0        2.181189    0.286044    1.026772
     11          1           0        1.542664   -0.774442   -1.482919
     12          1           0        1.480473    1.779822   -0.936317
     13          1           0        0.126329    1.049695   -1.814961
     14          1           0       -1.830551    1.252681    1.317245
     15          1           0        0.353040   -0.129475    2.023410
     16          1           0       -1.111795   -1.126070    1.911816
     17          1           0        0.465266   -2.221697    0.265775
     18          1           0       -1.352233   -1.828005   -1.613524
     19          1           0       -2.779064    0.283107   -0.963695
 ---------------------------------------------------------------------

 SCF Done:  E(RB3LYP) =  -423.188203948     A.U. after    1 cycles

 The electronic state is 1-A.
 Alpha  occ. eigenvalues --  -19.13752 -19.13403 -10.23435 -10.23254 -10.22213
 Alpha  occ. eigenvalues --  -10.19245 -10.19067 -10.18367 -10.18233  -1.03181
 Alpha  occ. eigenvalues --   -1.01105  -0.84849  -0.75832  -0.71915  -0.65957
 Alpha  occ. eigenvalues --   -0.63896  -0.55068  -0.54263  -0.52101  -0.50444
 Alpha  occ. eigenvalues --   -0.46828  -0.43937  -0.43742  -0.41665  -0.40103
 Alpha  occ. eigenvalues --   -0.37832  -0.37114  -0.35869  -0.33950  -0.33521
 Alpha  occ. eigenvalues --   -0.29488  -0.28815  -0.25429  -0.23584
 Alpha virt. eigenvalues --   -0.00154   0.07723   0.10487   0.12116   0.13423
 Alpha virt. eigenvalues --    0.13832   0.14784   0.16210   0.16776   0.17300
 Alpha virt. eigenvalues --    0.17969   0.19185   0.19960   0.20908   0.22214

 Mulliken charges:
               1
     1  O   -0.445352
     2  C    0.131131
     3  C   -0.109222
     4  O   -0.288264
     5  C    0.088434
     6  C   -0.231976
     7  C   -0.078058
     8  C   -0.085133
     9  C   -0.095387
    10  H    0.285666
    11  H    0.084659
    12  H    0.111644
    13  H    0.096647
    14  H    0.075694
    15  H    0.084998
    16  H    0.101483
    17  H    0.071494
    18  H    0.101171
    19  H    0.100372
 Sum of Mulliken charges =   0.00000

 Dipole moment (field-independent basis, Debye):
    X=             -1.2992    Y=             -0.6187    Z=             -0.1644  Tot=              1.4484
 Quadrupole moment (field-independent basis, Debye-Ang):
   XX=            -56.0295   YY=            -55.2296   ZZ=            -49.5873
   XY=              2.0464   XZ=              0.5611   YZ=              1.0040

  Exact polarizability:  79.211  -2.426  71.876   0.245   3.312  70.569
 Approx polarizability: 116.068  -9.345 115.857  -0.685  10.015 105.294

                      1                      2                      3
                      A                      A                      A
 Frequencies --    131.4281               242.6103               302.8405
 Red. masses --      3.3348                 4.1297                 1.2701
 Frc consts  --      0.0339                 0.1432                 0.0686
 IR Inten    --      8.8553                 3.0972                78.2270

                      4                      5                      6
                      A                      A                      A
 Frequencies --    316.5450               378.7203               424.2797
 Red. masses --      3.1069                 3.0844                 2.7729
 Frc consts  --      0.1834                 0.2606                 0.2941
 IR Inten    --      6.9450                 1.7690                 5.0481

                      7                      8                      9
                      A                      A                      A
 Frequencies --    472.2582               473.5307               584.8344
 Red. masses --      2.0856                 3.1011                 3.8142
 Frc consts  --      0.2741                 0.4097                 0.7686
 IR Inten    --      4.0373                 1.4018                 9.8833

                     10                     11                     12
                      A                      A                      A
 Frequencies --    660.8494               748.4423               789.1605
 Red. masses --      3.5060                 1.8616                 3.1292
 Frc consts  --      0.9021                 0.6144                 1.1482
 IR Inten    --      2.2876                20.6937                 8.8938

                     13                     14                     15
                      A                      A                      A
 Frequencies --    802.8689               837.8012               875.6816
 Red. masses --      3.7476                 3.4774                 2.5018
 Frc consts  --      1.4233                 1.4381                 1.1303
 IR Inten    --     17.8170                 6.7221                 3.0121

                     16                     17                     18
                      A                      A                      A
 Frequencies --    885.3930               914.9457               941.4045
 Red. masses --      2.8479                 2.1411                 2.2125
 Frc consts  --      1.3154                 1.0560                 1.1553
 IR Inten    --      7.9015                 5.9805                16.3710

                     19                     20                     21
                      A                      A                      A
 Frequencies --    969.5893               991.2807              1009.2735
 Red. masses --      1.3678                 2.2395                 1.8047
 Frc consts  --      0.7576                 1.2966                 1.0831
 IR Inten    --      2.5228                14.1195                 6.7057

                     22                     23                     24
                      A                      A                      A
 Frequencies --   1045.6493              1052.5715              1090.6709
 Red. masses --      2.4767                 1.9792                 2.1098
 Frc consts  --      1.5955                 1.2919                 1.4787
 IR Inten    --     53.2376                34.0066                57.7247

                     25                     26                     27
                      A                      A                      A
 Frequencies --   1106.9079              1133.7803              1166.8867
 Red. masses --      2.3015                 1.3088                 1.3982
 Frc consts  --      1.6615                 0.9913                 1.1217
 IR Inten    --     58.4700                 6.0975                23.3853

                     28                     29                     30
                      A                      A                      A
 Frequencies --   1210.8782              1254.4677              1270.9927
 Red. masses --      1.9407                 1.3272                 1.3267
 Frc consts  --      1.6765                 1.2306                 1.2627
 IR Inten    --      6.0447                23.9215                 6.1793

                     31                     32                     33
                      A                      A                      A
 Frequencies --   1297.6897              1306.0996              1317.4029
 Red. masses --      1.3719                 1.6386                 1.4276
 Frc consts  --      1.3612                 1.6469                 1.4598
 IR Inten    --      0.6052                 1.4931                 0.8550

                     34                     35                     36
                      A                      A                      A
 Frequencies --   1343.7052              1365.1575              1369.1289
 Red. masses --      1.3539                 1.3274                 1.6072
 Frc consts  --      1.4403                 1.4575                 1.7751
 IR Inten    --      1.9281                 3.2116                16.6061

                     37                     38                     39
                      A                      A                      A
 Frequencies --   1400.2878              1428.1290              1491.4275
 Red. masses --      1.2662                 1.2499                 1.1064
 Frc consts  --      1.4628                 1.5020                 1.4500
 IR Inten    --      6.5006                44.5843                 5.4643

                     40                     41                     42
                      A                      A                      A
 Frequencies --   1497.1582              1654.6262              3018.4653
 Red. masses --      1.0807                 6.0197                 1.0677
 Frc consts  --      1.4273                 9.7101                 5.7313
 IR Inten    --      4.0646                 1.0218                29.9227

                     43                     44                     45
                      A                      A                      A
 Frequencies --   3046.7402              3058.3184              3086.7350
 Red. masses --      1.0840                 1.0594                 1.0869
 Frc consts  --      5.9288                 5.8384                 6.1014
 IR Inten    --     47.2714                27.0006                38.6988

                     46                     47                     48
                      A                      A                      A
 Frequencies --   3090.1759              3101.4550              3106.0430
 Red. masses --      1.0972                 1.0894                 1.1054
 Frc consts  --      6.1732                 6.1740                 6.2835
 IR Inten    --     26.0740                36.7577                32.4991

                     49                     50                     51
                      A                      A                      A
 Frequencies --   3190.6809              3218.2520              3815.0393
 Red. masses --      1.0860                 1.1049                 1.0658
 Frc consts  --      6.5138                 6.7422                 9.1396
 IR Inten    --      6.8081                14.2376                14.4942

 - Thermochemistry -
 -------------------
 Temperature   298.150 Kelvin.  Pressure   1.00000 Atm.
 Atom     1 has atomic number  8 and mass  15.99491

 Molecular mass:   126.06808 amu.
 Principal axes and moments of inertia in atomic units:
                           1         2         3
     Eigenvalues --   669.847861022.564441179.24028
           X            0.99984   0.01765  -0.00368
           Y           -0.01772   0.99968  -0.01832
           Z            0.00336   0.01838   0.99983
 This molecule is an asymmetric top.
 Rotational symmetry number  1.
 Warning -- assumption of classical behavior for rotation
           may cause significant error
 Rotational temperatures (Kelvin)      0.12930     0.08470     0.07345
 Rotational constants (GHZ):           2.69426     1.76492     1.53043
 Zero-point vibrational energy     426404.5 (Joules/Mol)
                                  101.91311 (Kcal/Mol)
 Warning -- explicit consideration of   9 degrees of freedom as
           vibrations may cause significant error
 Vibrational temperatures:    189.10   349.06   435.72   455.44   544.89
          (Kelvin)            610.44   679.47   681.30   841.45   950.81
                             1076.84  1135.42  1155.15  1205.41  1259.91
                             1273.88  1316.40  1354.47  1395.02  1426.23
                             1452.12  1504.45  1514.41  1569.23  1592.59
                             1631.25  1678.89  1742.18  1804.90  1828.67
                             1867.08  1879.18  1895.45  1933.29  1964.15
                             1969.87  2014.70  2054.76  2145.83  2154.07
                             2380.64  4342.89  4383.57  4400.23  4441.12
                             4446.07  4462.30  4468.90  4590.67  4630.34
                             5488.98

 Zero-point correction=                           0.162409 (Hartree/Particle)
 Thermal correction to Energy=                    0.169566
 Thermal correction to Enthalpy=                  0.170510
 Thermal correction to Gibbs Free Energy=         0.131250
 Sum of electronic and zero-point Energies=           -423.025795
 Sum of electronic and thermal Energies=              -423.018638
 Sum of electronic and thermal Enthalpies=            -423.017693
 Sum of electronic and thermal Free Energies=         -423.056954

                     E (Thermal)             CV                S
                      KCal/Mol        Cal/Mol-Kelvin    Cal/Mol-Kelvin
 Total                  106.404             29.708             82.631
 Electronic               0.000              0.000              0.000
 Translational            0.889              2.981             40.409
 Rotational               0.889              2.981             28.181
 Vibrational            104.627             23.747             14.041
 Vibration     1          0.612              1.922              2.925
 Vibration     2          0.659              1.775              1.784
 Vibration     3          0.694              1.668              1.401
 Vibration     4          0.703              1.642              1.328
 Vibration     5          0.749              1.516              1.044
 Vibration     6          0.786              1.417              0.878
 Vibration     7          0.829              1.312              0.731
 Vibration     8          0.830              1.309              0.728
 Vibration     9          0.942              1.064              0.476

 Optimization completed.
    -- Stationary point found.
 Normal termination of Gaussian 09 at Tue Jan 28 09:04:02 2020.
