 Gaussian 09, Revision D.01,
 Gaussian 09:  ES64L-G09RevD.01 24-Apr-2013

 -----------------------------
 # b3lyp 6-31G(2df,p) opt Freq
 -----------------------------

 -----
 titel
 -----
 Symbolic Z-matrix:
 Charge =  0 Multiplicity = 1

 SCF Done:  E(RB3LYP) =  -423.243530698     A.U. after   14 cycles
 Optimization completed.
    -- Stationary point found.
 Normal termination of Gaussian 09 at Tue Jan 28 12:40:17 2020.

 ----------------------------------------------------------------------
 #N Geom=AllCheck Guess=TCheck SCRF=Check GenChk RB3LYP/6-31G(2df,p) Fr
 eq
 ----------------------------------------------------------------------

 Structure from the checkpoint file:  "/scratch/puck/g09_2c2227af-eb4b-49b5-a64d-0dda4878b2fa/Gau-30226.chk"
 -----
 titel
 -----
 Charge =  0 Multiplicity = 1

                         Standard orientation:
 ---------------------------------------------------------------------
 Center     Atomic      Atomic             Coordinates (Angstroms)
 Number     Number       Type             X           Y           Z
 ---------------------------------------------------------------------
      1          6           0        2.692459   -0.322906    0.827018
      2          6           0        1.901106   -0.652390   -0.449944
      3          6           0        0.417199   -0.445413   -0.292920
      4          6           0       -0.488834   -1.430800   -0.322900
      5          6           0       -1.954025   -1.156476   -0.146392
      6          6           0       -2.120898    0.128046    0.651199
      7          8           0       -1.346355    1.203257    0.103053
      8          6           0       -0.044408    0.973942   -0.209169
      9          8           0        0.669632    1.911545   -0.463258
     10          1           0        3.762457   -0.486785    0.667963
     11          1           0        2.547781    0.723001    1.108148
     12          1           0        2.373224   -0.954111    1.662858
     13          1           0        2.260114   -0.010852   -1.261487
     14          1           0        2.083769   -1.691648   -0.744287
     15          1           0       -0.170187   -2.456408   -0.495267
     16          1           0       -2.449699   -1.075686   -1.124286
     17          1           0       -2.446265   -1.979784    0.383498
     18          1           0       -3.152625    0.485744    0.651557
     19          1           0       -1.810377   -0.035895    1.691575
 ---------------------------------------------------------------------

 SCF Done:  E(RB3LYP) =  -423.243530698     A.U. after    1 cycles

 The electronic state is 1-A.
 Alpha  occ. eigenvalues --  -19.17508 -19.11583 -10.30025 -10.25103 -10.20936
 Alpha  occ. eigenvalues --  -10.20847 -10.20369 -10.18806 -10.17360  -1.09183
 Alpha  occ. eigenvalues --   -1.01083  -0.83546  -0.78472  -0.73677  -0.66737
 Alpha  occ. eigenvalues --   -0.62243  -0.60968  -0.53722  -0.49801  -0.49300
 Alpha  occ. eigenvalues --   -0.46558  -0.43714  -0.42759  -0.42199  -0.41807
 Alpha  occ. eigenvalues --   -0.39983  -0.39740  -0.36588  -0.35537  -0.34056
 Alpha  occ. eigenvalues --   -0.32652  -0.28935  -0.26563  -0.26214
 Alpha virt. eigenvalues --   -0.03964   0.07159   0.08535   0.11488   0.12158
 Alpha virt. eigenvalues --    0.12414   0.13483   0.14778   0.15777   0.17287
 Alpha virt. eigenvalues --    0.17571   0.18598   0.18881   0.19589   0.22804

 Mulliken charges:
               1
     1  C   -0.379232
     2  C   -0.272247
     3  C    0.161559
     4  C   -0.162968
     5  C   -0.274411
     6  C   -0.078196
     7  O   -0.230479
     8  C    0.390319
     9  O   -0.338436
    10  H    0.115053
    11  H    0.143972
    12  H    0.109804
    13  H    0.128343
    14  H    0.094811
    15  H    0.103051
    16  H    0.131154
    17  H    0.119037
    18  H    0.124157
    19  H    0.114709
 Sum of Mulliken charges =   0.00000

 Dipole moment (field-independent basis, Debye):
    X=             -1.6937    Y=             -3.9691    Z=              0.7462  Tot=              4.3794
 Quadrupole moment (field-independent basis, Debye-Ang):
   XX=            -48.3327   YY=            -58.6681   ZZ=            -52.6735
   XY=              0.2043   XZ=             -0.7238   YZ=              1.7278

  Exact polarizability:  97.771   9.703  80.480  -2.473   0.684  58.541
 Approx polarizability: 133.325  26.005 133.962  -5.312  -2.082  87.942

                      1                      2                      3
                      A                      A                      A
 Frequencies --     79.6580                96.7132               163.4316
 Red. masses --      2.6202                 3.8916                 3.2554
 Frc consts  --      0.0098                 0.0214                 0.0512
 IR Inten    --      2.3414                 0.3091                 0.1088

                      4                      5                      6
                      A                      A                      A
 Frequencies --    211.3869               241.8402               316.1472
 Red. masses --      1.3033                 2.2526                 1.8684
 Frc consts  --      0.0343                 0.0776                 0.1100
 IR Inten    --      1.9432                 2.2694                 1.2592

                      7                      8                      9
                      A                      A                      A
 Frequencies --    324.5861               426.1059               465.1414
 Red. masses --      2.4074                 4.4471                 3.5365
 Frc consts  --      0.1494                 0.4757                 0.4508
 IR Inten    --      3.0669                 2.2811                 0.5624

                     10                     11                     12
                      A                      A                      A
 Frequencies --    504.3694               558.6184               650.9872
 Red. masses --      6.2518                 5.5454                 2.5142
 Frc consts  --      0.9370                 1.0196                 0.6278
 IR Inten    --      1.1878                 4.9462                 1.8249

                     13                     14                     15
                      A                      A                      A
 Frequencies --    721.6859               777.1875               813.6720
 Red. masses --      3.0423                 1.5165                 3.1278
 Frc consts  --      0.9336                 0.5397                 1.2201
 IR Inten    --      1.3514                 1.8297                 8.9544

                     16                     17                     18
                      A                      A                      A
 Frequencies --    877.8079               908.8823               921.4972
 Red. masses --      1.5568                 2.2619                 1.9578
 Frc consts  --      0.7068                 1.1009                 0.9795
 IR Inten    --     19.9632                 5.9510                 5.4340

                     19                     20                     21
                      A                      A                      A
 Frequencies --    977.7144               994.2438              1078.7722
 Red. masses --      2.4231                 2.3272                 2.1660
 Frc consts  --      1.3647                 1.3554                 1.4852
 IR Inten    --     17.8203                12.6425                21.9534

                     22                     23                     24
                      A                      A                      A
 Frequencies --   1083.4552              1098.5978              1110.0928
 Red. masses --      1.8789                 2.6566                 1.6002
 Frc consts  --      1.2995                 1.8891                 1.1618
 IR Inten    --      0.8260                36.1822                 7.2662

                     25                     26                     27
                      A                      A                      A
 Frequencies --   1152.9755              1204.8629              1236.0005
 Red. masses --      3.8478                 1.7913                 1.3482
 Frc consts  --      3.0137                 1.5322                 1.2135
 IR Inten    --    145.1072                11.1165                 5.7787

                     28                     29                     30
                      A                      A                      A
 Frequencies --   1286.6908              1299.6932              1356.1470
 Red. masses --      1.2055                 1.2789                 1.5279
 Frc consts  --      1.1759                 1.2729                 1.6556
 IR Inten    --      2.6759                44.1017                 9.8475

                     31                     32                     33
                      A                      A                      A
 Frequencies --   1368.6615              1383.1492              1404.3073
 Red. masses --      1.6546                 1.6102                 1.2467
 Frc consts  --      1.8262                 1.8150                 1.4485
 IR Inten    --      8.5948                24.9493                 4.1163

                     34                     35                     36
                      A                      A                      A
 Frequencies --   1427.8961              1466.7980              1472.4452
 Red. masses --      1.4657                 1.0945                 1.0829
 Frc consts  --      1.7608                 1.3874                 1.3833
 IR Inten    --     26.6150                 3.0214                 4.3026

                     37                     38                     39
                      A                      A                      A
 Frequencies --   1496.9095              1508.3268              1510.4707
 Red. masses --      1.0447                 1.0972                 1.0550
 Frc consts  --      1.3792                 1.4707                 1.4182
 IR Inten    --      7.2249                 5.4101                 3.4559

                     40                     41                     42
                      A                      A                      A
 Frequencies --   1710.7697              1811.3701              3011.4931
 Red. masses --      7.6217                12.4959                 1.0692
 Frc consts  --     13.1426                24.1563                 5.7130
 IR Inten    --      1.0004               306.7188                14.7864

                     43                     44                     45
                      A                      A                      A
 Frequencies --   3024.3453              3039.4263              3040.4850
 Red. masses --      1.0656                 1.0427                 1.0524
 Frc consts  --      5.7425                 5.6753                 5.7324
 IR Inten    --     38.5048                20.9778                27.4673

                     46                     47                     48
                      A                      A                      A
 Frequencies --   3067.5526              3082.5909              3108.3359
 Red. masses --      1.0934                 1.1016                 1.1017
 Frc consts  --      6.0618                 6.1674                 6.2717
 IR Inten    --     23.8571                 5.8171                38.5195

                     49                     50                     51
                      A                      A                      A
 Frequencies --   3109.5756              3129.2637              3154.1239
 Red. masses --      1.0982                 1.1016                 1.0904
 Frc consts  --      6.2565                 6.3558                 6.3914
 IR Inten    --     23.6297                18.7891                15.6860

 - Thermochemistry -
 -------------------
 Temperature   298.150 Kelvin.  Pressure   1.00000 Atm.
 Atom     1 has atomic number  6 and mass  12.00000

 Molecular mass:   126.06808 amu.
 Principal axes and moments of inertia in atomic units:
                           1         2         3
     Eigenvalues --   685.834541309.158691752.74315
           X            0.99998   0.00240   0.00574
           Y           -0.00249   0.99988   0.01545
           Z           -0.00570  -0.01547   0.99986
 This molecule is an asymmetric top.
 Rotational symmetry number  1.
 Warning -- assumption of classical behavior for rotation
           may cause significant error
 Rotational temperatures (Kelvin)      0.12629     0.06616     0.04942
 Rotational constants (GHZ):           2.63145     1.37855     1.02967
 Zero-point vibrational energy     420291.6 (Joules/Mol)
                                  100.45209 (Kcal/Mol)
 Warning -- explicit consideration of  11 degrees of freedom as
           vibrations may cause significant error
 Vibrational temperatures:    114.61   139.15   235.14   304.14   347.95
          (Kelvin)            454.86   467.01   613.07   669.23   725.67
                              803.73   936.62  1038.34  1118.20  1170.69
                             1262.97  1307.68  1325.83  1406.71  1430.49
                             1552.11  1558.85  1580.64  1597.17  1658.87
                             1733.53  1778.33  1851.26  1869.97  1951.19
                             1969.20  1990.04  2020.48  2054.42  2110.39
                             2118.52  2153.72  2170.14  2173.23  2461.41
                             2606.15  4332.86  4351.35  4373.05  4374.57
                             4413.52  4435.16  4472.20  4473.98  4502.31
                             4538.08

 Zero-point correction=                           0.160081 (Hartree/Particle)
 Thermal correction to Energy=                    0.168703
 Thermal correction to Enthalpy=                  0.169648
 Thermal correction to Gibbs Free Energy=         0.126549
 Sum of electronic and zero-point Energies=           -423.083450
 Sum of electronic and thermal Energies=              -423.074827
 Sum of electronic and thermal Enthalpies=            -423.073883
 Sum of electronic and thermal Free Energies=         -423.116981

                     E (Thermal)             CV                S
                      KCal/Mol        Cal/Mol-Kelvin    Cal/Mol-Kelvin
 Total                  105.863             32.114             90.708
 Electronic               0.000              0.000              0.000
 Translational            0.889              2.981             40.409
 Rotational               0.889              2.981             28.844
 Vibrational            104.085             26.152             21.455
 Vibration     1          0.600              1.963              3.899
 Vibration     2          0.603              1.952              3.520
 Vibration     3          0.623              1.887              2.510
 Vibration     4          0.643              1.823              2.032
 Vibration     5          0.658              1.776              1.789
 Vibration     6          0.703              1.643              1.330
 Vibration     7          0.709              1.626              1.287
 Vibration     8          0.788              1.413              0.871
 Vibration     9          0.823              1.327              0.751
 Vibration    10          0.860              1.240              0.647
 Vibration    11          0.914              1.121              0.527

 Optimization completed.
    -- Stationary point found.
 Normal termination of Gaussian 09 at Tue Jan 28 13:22:08 2020.
