 Gaussian 09, Revision D.01,
 Gaussian 09:  ES64L-G09RevD.01 24-Apr-2013

 -----------------------------
 # b3lyp 6-31G(2df,p) opt Freq
 -----------------------------

 -----
 titel
 -----
 Symbolic Z-matrix:
 Charge =  0 Multiplicity = 1

 SCF Done:  E(RB3LYP) =  -423.202241430     A.U. after   14 cycles
 Optimization completed.
    -- Stationary point found.
 Normal termination of Gaussian 09 at Mon Jan 27 16:14:44 2020.

 ----------------------------------------------------------------------
 #N Geom=AllCheck Guess=TCheck SCRF=Check GenChk RB3LYP/6-31G(2df,p) Fr
 eq
 ----------------------------------------------------------------------

 Structure from the checkpoint file:  "/scratch/puck/g09_c1643f90-b638-4e13-816e-f852d5c9ddc4/Gau-56973.chk"
 -----
 titel
 -----
 Charge =  0 Multiplicity = 1

                         Standard orientation:
 ---------------------------------------------------------------------
 Center     Atomic      Atomic             Coordinates (Angstroms)
 Number     Number       Type             X           Y           Z
 ---------------------------------------------------------------------
      1          6           0        1.438664   -1.180700    1.114074
      2          6           0        0.988281   -0.221291    0.000087
      3          6           0        2.178222    0.210553   -0.864859
      4          6           0       -0.161352   -0.854954   -0.835938
      5          6           0       -1.466142   -0.405539   -0.168596
      6          8           0       -2.516335   -0.994066   -0.155183
      7          6           0       -1.164188    0.882605    0.554074
      8          8           0       -0.417919    1.789579   -0.286491
      9          6           0        0.304303    0.990173    0.641245
     10          1           0        1.914676   -2.069422    0.687926
     11          1           0        2.164739   -0.699594    1.778583
     12          1           0        0.593273   -1.514658    1.725716
     13          1           0        2.609203   -0.647175   -1.391771
     14          1           0        1.866421    0.949098   -1.609109
     15          1           0        2.969700    0.657068   -0.252580
     16          1           0       -0.155151   -0.476855   -1.863732
     17          1           0       -0.116034   -1.944895   -0.882786
     18          1           0       -1.869373    1.327092    1.248408
     19          1           0        0.789848    1.530156    1.452213
 ---------------------------------------------------------------------

 SCF Done:  E(RB3LYP) =  -423.202241430     A.U. after    1 cycles

 The electronic state is 1-A.
 Alpha  occ. eigenvalues --  -19.17108 -19.13716 -10.27376 -10.25111 -10.24616
 Alpha  occ. eigenvalues --  -10.21475 -10.19293 -10.18923 -10.18373  -1.09286
 Alpha  occ. eigenvalues --   -1.04537  -0.83905  -0.74579  -0.70214  -0.68663
 Alpha  occ. eigenvalues --   -0.65707  -0.56904  -0.54847  -0.51254  -0.47339
 Alpha  occ. eigenvalues --   -0.45852  -0.45414  -0.43185  -0.42085  -0.41269
 Alpha  occ. eigenvalues --   -0.39816  -0.38609  -0.36688  -0.36502  -0.35543
 Alpha  occ. eigenvalues --   -0.34349  -0.31140  -0.29131  -0.24183
 Alpha virt. eigenvalues --   -0.02925   0.07875   0.09576   0.11250   0.11859
 Alpha virt. eigenvalues --    0.12859   0.13716   0.14271   0.15362   0.16354
 Alpha virt. eigenvalues --    0.17027   0.18276   0.19474   0.20135   0.20807

 Mulliken charges:
               1
     1  C   -0.431430
     2  C    0.250495
     3  C   -0.436017
     4  C   -0.378323
     5  C    0.413631
     6  O   -0.316212
     7  C   -0.092572
     8  O   -0.258714
     9  C    0.041684
    10  H    0.123713
    11  H    0.117441
    12  H    0.122559
    13  H    0.117925
    14  H    0.132725
    15  H    0.113213
    16  H    0.137600
    17  H    0.125935
    18  H    0.115142
    19  H    0.101203
 Sum of Mulliken charges =   0.00000

 Dipole moment (field-independent basis, Debye):
    X=              2.8491    Y=             -0.0108    Z=              1.0782  Tot=              3.0462
 Quadrupole moment (field-independent basis, Debye-Ang):
   XX=            -59.1845   YY=            -56.2696   ZZ=            -50.9308
   XY=             -3.7136   XZ=             -0.9102   YZ=              2.4695

  Exact polarizability:  87.061   2.453  71.124  -1.091   2.995  65.757
 Approx polarizability: 126.658  10.390 109.138  -0.747   0.818  99.052

                      1                      2                      3
                      A                      A                      A
 Frequencies --     85.7942               166.6603               234.1709
 Red. masses --      3.9131                 3.7678                 1.0540
 Frc consts  --      0.0170                 0.0617                 0.0341
 IR Inten    --      2.7699                 2.5274                 0.0664

                      4                      5                      6
                      A                      A                      A
 Frequencies --    243.3903               267.4087               317.7671
 Red. masses --      1.9196                 1.4417                 2.4265
 Frc consts  --      0.0670                 0.0607                 0.1444
 IR Inten    --      1.2264                 1.7957                 0.2272

                      7                      8                      9
                      A                      A                      A
 Frequencies --    342.2361               359.7305               467.4162
 Red. masses --      2.7253                 2.1931                 4.1718
 Frc consts  --      0.1881                 0.1672                 0.5370
 IR Inten    --      4.7761                 3.4492                 7.5286

                     10                     11                     12
                      A                      A                      A
 Frequencies --    492.3629               550.3200               567.9354
 Red. masses --      3.8799                 3.3604                 3.9418
 Frc consts  --      0.5542                 0.5996                 0.7491
 IR Inten    --      1.8199                 8.4373                 2.6673

                     13                     14                     15
                      A                      A                      A
 Frequencies --    656.8705               790.4877               821.6990
 Red. masses --      3.7670                 3.1129                 3.6014
 Frc consts  --      0.9577                 1.1461                 1.4327
 IR Inten    --      0.2415                 0.3391                 6.9542

                     16                     17                     18
                      A                      A                      A
 Frequencies --    857.7318               878.1660               918.2322
 Red. masses --      3.4279                 3.5930                 1.9864
 Frc consts  --      1.4859                 1.6325                 0.9868
 IR Inten    --     17.7288                18.2969                 1.1111

                     19                     20                     21
                      A                      A                      A
 Frequencies --    928.4126               956.3507               965.1869
 Red. masses --      2.5214                 1.4127                 2.0216
 Frc consts  --      1.2805                 0.7613                 1.1096
 IR Inten    --      6.6863                 0.7017                 2.3731

                     22                     23                     24
                      A                      A                      A
 Frequencies --   1011.8280              1039.1582              1092.0459
 Red. masses --      1.4368                 1.4926                 1.3842
 Frc consts  --      0.8667                 0.9496                 0.9726
 IR Inten    --      9.5467                 5.3300                 2.8341

                     25                     26                     27
                      A                      A                      A
 Frequencies --   1122.1702              1180.2149              1211.5304
 Red. masses --      1.5111                 2.4161                 1.7113
 Frc consts  --      1.1211                 1.9828                 1.4799
 IR Inten    --      1.4497                22.6277                 6.7779

                     28                     29                     30
                      A                      A                      A
 Frequencies --   1235.6773              1244.0622              1262.8714
 Red. masses --      1.7934                 1.8602                 2.3658
 Frc consts  --      1.6134                 1.6962                 2.2231
 IR Inten    --      0.7886                 9.8400                 5.8630

                     31                     32                     33
                      A                      A                      A
 Frequencies --   1289.7905              1326.5607              1399.8383
 Red. masses --      1.9217                 1.8419                 2.4196
 Frc consts  --      1.8836                 1.9097                 2.7935
 IR Inten    --     12.3783                 3.2149                 9.4929

                     34                     35                     36
                      A                      A                      A
 Frequencies --   1402.0351              1424.6227              1454.2007
 Red. masses --      1.3530                 1.2694                 1.1314
 Frc consts  --      1.5670                 1.5179                 1.4096
 IR Inten    --      2.7885                 4.9367                 7.6297

                     37                     38                     39
                      A                      A                      A
 Frequencies --   1486.1270              1489.4268              1504.1138
 Red. masses --      1.0461                 1.0511                 1.0582
 Frc consts  --      1.3613                 1.3738                 1.4105
 IR Inten    --      0.0721                 3.6325                 3.5136

                     40                     41                     42
                      A                      A                      A
 Frequencies --   1510.1435              1846.0381              3026.7420
 Red. masses --      1.0597                12.2539                 1.0349
 Frc consts  --      1.4238                24.6041                 5.5861
 IR Inten    --      7.7322               238.2853                20.0614

                     43                     44                     45
                      A                      A                      A
 Frequencies --   3031.4708              3058.8779              3093.9772
 Red. masses --      1.0358                 1.0631                 1.1016
 Frc consts  --      5.6082                 5.8608                 6.2128
 IR Inten    --     21.5262                 4.4758                 6.5258

                     46                     47                     48
                      A                      A                      A
 Frequencies --   3096.8719              3103.3863              3112.4911
 Red. masses --      1.1013                 1.1013                 1.1015
 Frc consts  --      6.2231                 6.2493                 6.2870
 IR Inten    --     30.2370                24.6526                16.1575

                     49                     50                     51
                      A                      A                      A
 Frequencies --   3119.2524              3133.2397              3182.1158
 Red. masses --      1.0998                 1.0898                 1.0941
 Frc consts  --      6.3045                 6.3033                 6.5274
 IR Inten    --     10.7037                20.6423                11.8535

 - Thermochemistry -
 -------------------
 Temperature   298.150 Kelvin.  Pressure   1.00000 Atm.
 Atom     1 has atomic number  6 and mass  12.00000

 Molecular mass:   126.06808 amu.
 Principal axes and moments of inertia in atomic units:
                           1         2         3
     Eigenvalues --   698.788801195.459221450.28373
           X            0.99918  -0.03953  -0.00918
           Y            0.03959   0.99920   0.00609
           Z            0.00893  -0.00645   0.99994
 This molecule is an asymmetric top.
 Rotational symmetry number  1.
 Warning -- assumption of classical behavior for rotation
           may cause significant error
 Rotational temperatures (Kelvin)      0.12395     0.07245     0.05972
 Rotational constants (GHZ):           2.58267     1.50966     1.24441
 Zero-point vibrational energy     414860.2 (Joules/Mol)
                                   99.15397 (Kcal/Mol)
 Warning -- explicit consideration of  12 degrees of freedom as
           vibrations may cause significant error
 Vibrational temperatures:    123.44   239.79   336.92   350.18   384.74
          (Kelvin)            457.20   492.40   517.57   672.51   708.40
                              791.79   817.13   945.09  1137.33  1182.24
                             1234.08  1263.48  1321.13  1335.78  1375.97
                             1388.69  1455.79  1495.12  1571.21  1614.55
                             1698.06  1743.12  1777.86  1789.93  1816.99
                             1855.72  1908.62  2014.05  2017.21  2049.71
                             2092.27  2138.20  2142.95  2164.08  2172.76
                             2656.03  4354.80  4361.60  4401.04  4451.54
                             4455.70  4465.08  4478.17  4487.90  4508.03
                             4578.35

 Zero-point correction=                           0.158012 (Hartree/Particle)
 Thermal correction to Energy=                    0.166508
 Thermal correction to Enthalpy=                  0.167452
 Thermal correction to Gibbs Free Energy=         0.125269
 Sum of electronic and zero-point Energies=           -423.044230
 Sum of electronic and thermal Energies=              -423.035734
 Sum of electronic and thermal Enthalpies=            -423.034789
 Sum of electronic and thermal Free Energies=         -423.076973

                     E (Thermal)             CV                S
                      KCal/Mol        Cal/Mol-Kelvin    Cal/Mol-Kelvin
 Total                  104.485             32.986             88.782
 Electronic               0.000              0.000              0.000
 Translational            0.889              2.981             40.409
 Rotational               0.889              2.981             28.584
 Vibrational            102.708             27.025             19.789
 Vibration     1          0.601              1.959              3.754
 Vibration     2          0.624              1.883              2.473
 Vibration     3          0.654              1.789              1.847
 Vibration     4          0.659              1.774              1.778
 Vibration     5          0.673              1.733              1.613
 Vibration     6          0.704              1.640              1.322
 Vibration     7          0.721              1.591              1.202
 Vibration     8          0.734              1.555              1.123
 Vibration     9          0.825              1.322              0.745
 Vibration    10          0.848              1.267              0.677
 Vibration    11          0.906              1.139              0.544
 Vibration    12          0.924              1.101              0.508

 Optimization completed.
    -- Stationary point found.
 Normal termination of Gaussian 09 at Mon Jan 27 16:58:52 2020.
 Normal termination of Gaussian 09 at Mon Jan 27 16:09:40 2020.
