 Gaussian 09, Revision D.01,
 Gaussian 09:  ES64L-G09RevD.01 24-Apr-2013

 -----------------------------
 # b3lyp 6-31G(2df,p) opt Freq
 -----------------------------

 -----
 titel
 -----
 Symbolic Z-matrix:
 Charge =  0 Multiplicity = 1

 SCF Done:  E(RB3LYP) =  -423.100947568     A.U. after   13 cycles
 Optimization completed.
    -- Stationary point found.
 Normal termination of Gaussian 09 at Tue Jan 28 09:17:52 2020.

 ----------------------------------------------------------------------
 #N Geom=AllCheck Guess=TCheck SCRF=Check GenChk RB3LYP/6-31G(2df,p) Fr
 eq
 ----------------------------------------------------------------------

 Structure from the checkpoint file:  "/scratch/puck/g09_1a25f32c-91fa-4333-a0f0-4f681d7d24ec/Gau-46293.chk"
 -----
 titel
 -----
 Charge =  0 Multiplicity = 1

                         Standard orientation:
 ---------------------------------------------------------------------
 Center     Atomic      Atomic             Coordinates (Angstroms)
 Number     Number       Type             X           Y           Z
 ---------------------------------------------------------------------
      1          6           0        2.890164   -0.105224    0.177658
      2          6           0        1.727126    0.582618   -0.552243
      3          6           0        0.396566    0.047429   -0.129896
      4          8           0       -0.112958    0.357594    1.173895
      5          6           0       -0.944460    0.621791    0.039120
      6          6           0       -1.531843    1.979074   -0.156199
      7          6           0       -1.588775   -0.763638   -0.397234
      8          8           0       -1.118400   -1.785383    0.478809
      9          6           0       -0.255092   -1.336537   -0.563651
     10          1           0        3.851158    0.300826   -0.150837
     11          1           0        2.805082    0.041517    1.257952
     12          1           0        2.896615   -1.183204   -0.013982
     13          1           0        1.750267    1.661235   -0.360860
     14          1           0        1.832553    0.449522   -1.636821
     15          1           0       -0.779981    2.754003    0.014982
     16          1           0       -1.922895    2.089503   -1.173289
     17          1           0       -2.359798    2.146288    0.542184
     18          1           0       -2.513896   -0.927107   -0.937183
     19          1           0        0.129639   -2.063349   -1.269113
 ---------------------------------------------------------------------

 SCF Done:  E(RB3LYP) =  -423.100947568     A.U. after    1 cycles

 The electronic state is 1-A.
 Alpha  occ. eigenvalues --  -19.15426 -19.14811 -10.24191 -10.23889 -10.23770
 Alpha  occ. eigenvalues --  -10.23735 -10.19544 -10.19190 -10.17913  -1.10249
 Alpha  occ. eigenvalues --   -1.04658  -0.78463  -0.76174  -0.72357  -0.65534
 Alpha  occ. eigenvalues --   -0.62170  -0.58432  -0.53039  -0.51515  -0.48891
 Alpha  occ. eigenvalues --   -0.45185  -0.45008  -0.42904  -0.41209  -0.39831
 Alpha  occ. eigenvalues --   -0.39522  -0.38015  -0.36210  -0.35346  -0.34672
 Alpha  occ. eigenvalues --   -0.32590  -0.28706  -0.24683  -0.23889
 Alpha virt. eigenvalues --    0.05035   0.08572   0.09558   0.11293   0.11920
 Alpha virt. eigenvalues --    0.13136   0.13948   0.14749   0.15311   0.16008
 Alpha virt. eigenvalues --    0.17088   0.17598   0.18477   0.19553   0.21386

 Mulliken charges:
               1
     1  C   -0.376637
     2  C   -0.316469
     3  C    0.335521
     4  O   -0.301139
     5  C    0.300624
     6  C   -0.513213
     7  C   -0.061656
     8  O   -0.212511
     9  C   -0.063814
    10  H    0.114311
    11  H    0.139821
    12  H    0.121447
    13  H    0.111364
    14  H    0.103483
    15  H    0.136046
    16  H    0.126069
    17  H    0.137515
    18  H    0.109705
    19  H    0.109536
 Sum of Mulliken charges =   0.00000

 Dipole moment (field-independent basis, Debye):
    X=              0.3111    Y=              1.4244    Z=             -2.9461  Tot=              3.2871
 Quadrupole moment (field-independent basis, Debye-Ang):
   XX=            -48.8211   YY=            -53.5116   ZZ=            -55.1122
   XY=             -2.5933   XZ=              1.3811   YZ=              2.3275

  Exact polarizability:  88.342  -3.444  76.289   0.167   2.466  61.016
 Approx polarizability: 119.496  -5.185 108.489  -1.598   2.016 101.827

                      1                      2                      3
                      A                      A                      A
 Frequencies --     75.4637               124.4331               183.5413
 Red. masses --      2.4149                 3.1609                 1.0409
 Frc consts  --      0.0081                 0.0288                 0.0207
 IR Inten    --      0.4275                 1.3543                 0.0522

                      4                      5                      6
                      A                      A                      A
 Frequencies --    199.3933               223.2306               269.6515
 Red. masses --      1.3621                 2.2264                 2.7211
 Frc consts  --      0.0319                 0.0654                 0.1166
 IR Inten    --      1.3772                 0.7277                 1.9998

                      7                      8                      9
                      A                      A                      A
 Frequencies --    312.9028               347.6578               443.6239
 Red. masses --      2.0673                 3.6034                 9.6682
 Frc consts  --      0.1193                 0.2566                 1.1210
 IR Inten    --      0.9989                 0.2890                 0.3433

                     10                     11                     12
                      A                      A                      A
 Frequencies --    554.7877               579.2060               615.1169
 Red. masses --      3.9625                 4.0182                 4.3847
 Frc consts  --      0.7186                 0.7942                 0.9775
 IR Inten    --      4.3321                 5.2696                12.7560

                     13                     14                     15
                      A                      A                      A
 Frequencies --    737.2219               742.6231               772.9344
 Red. masses --      2.3629                 3.5673                 3.6406
 Frc consts  --      0.7566                 1.1591                 1.2815
 IR Inten    --      7.1994                12.0976                 1.2216

                     16                     17                     18
                      A                      A                      A
 Frequencies --    801.3909               852.4639               856.3192
 Red. masses --      1.6421                 2.7265                 2.0967
 Frc consts  --      0.6214                 1.1674                 0.9059
 IR Inten    --      3.4588                 5.2214                 9.0836

                     19                     20                     21
                      A                      A                      A
 Frequencies --    895.1431               947.7782               980.0946
 Red. masses --      2.4814                 2.5197                 3.1702
 Frc consts  --      1.1715                 1.3336                 1.7942
 IR Inten    --     16.4695                20.2709                11.6504

                     22                     23                     24
                      A                      A                      A
 Frequencies --    984.2473              1016.2669              1093.0564
 Red. masses --      2.3194                 1.3049                 1.8319
 Frc consts  --      1.3238                 0.7941                 1.2896
 IR Inten    --     12.9789                 1.8213                 7.2570

                     25                     26                     27
                      A                      A                      A
 Frequencies --   1098.0252              1117.6072              1169.3196
 Red. masses --      2.0091                 1.7927                 1.6960
 Frc consts  --      1.4272                 1.3193                 1.3663
 IR Inten    --      4.7497                 4.5715                19.2300

                     28                     29                     30
                      A                      A                      A
 Frequencies --   1176.6467              1235.5525              1268.7125
 Red. masses --      1.6485                 1.6926                 2.1582
 Frc consts  --      1.3447                 1.5224                 2.0468
 IR Inten    --      2.4625                 0.4460                11.3974

                     31                     32                     33
                      A                      A                      A
 Frequencies --   1308.0226              1351.5193              1366.8856
 Red. masses --      1.2537                 1.9592                 3.5770
 Frc consts  --      1.2638                 2.1085                 3.9376
 IR Inten    --      2.1271                 6.9815                11.8661

                     34                     35                     36
                      A                      A                      A
 Frequencies --   1408.4286              1410.4531              1469.7425
 Red. masses --      1.2600                 1.2672                 1.0917
 Frc consts  --      1.4726                 1.4853                 1.3895
 IR Inten    --      1.5628                 4.3365                 1.8675

                     37                     38                     39
                      A                      A                      A
 Frequencies --   1473.7135              1488.9796              1497.5491
 Red. masses --      1.1306                 1.0654                 1.0394
 Frc consts  --      1.4468                 1.3916                 1.3733
 IR Inten    --      3.1435                 4.5615                 5.3525

                     40                     41                     42
                      A                      A                      A
 Frequencies --   1503.6490              1528.9336              3024.8060
 Red. masses --      1.1321                 3.6525                 1.0615
 Frc consts  --      1.5082                 5.0306                 5.7224
 IR Inten    --      1.8255                 8.5733                20.2047

                     43                     44                     45
                      A                      A                      A
 Frequencies --   3031.9239              3040.8301              3067.9320
 Red. masses --      1.0362                 1.0353                 1.0989
 Frc consts  --      5.6124                 5.6402                 6.0941
 IR Inten    --     24.9667                22.3534                10.8031

                     46                     47                     48
                      A                      A                      A
 Frequencies --   3093.6338              3109.8396              3117.8922
 Red. masses --      1.1002                 1.1015                 1.1007
 Frc consts  --      6.2038                 6.2764                 6.3046
 IR Inten    --     14.8969                31.0357                14.7029

                     49                     50                     51
                      A                      A                      A
 Frequencies --   3121.6946              3181.4054              3196.6174
 Red. masses --      1.1025                 1.0870                 1.1022
 Frc consts  --      6.3300                 6.4819                 6.6357
 IR Inten    --     21.9475                11.7270                14.7031

 - Thermochemistry -
 -------------------
 Temperature   298.150 Kelvin.  Pressure   1.00000 Atm.
 Atom     1 has atomic number  6 and mass  12.00000

 Molecular mass:   126.06808 amu.
 Principal axes and moments of inertia in atomic units:
                           1         2         3
     Eigenvalues --   740.945381167.375121590.67585
           X            0.99808  -0.06124   0.00927
           Y            0.06118   0.99811   0.00588
           Z           -0.00962  -0.00530   0.99994
 This molecule is an asymmetric top.
 Rotational symmetry number  1.
 Warning -- assumption of classical behavior for rotation
           may cause significant error
 Rotational temperatures (Kelvin)      0.11690     0.07420     0.05445
 Rotational constants (GHZ):           2.43573     1.54598     1.13458
 Zero-point vibrational energy     409534.7 (Joules/Mol)
                                   97.88115 (Kcal/Mol)
 Warning -- explicit consideration of  12 degrees of freedom as
           vibrations may cause significant error
 Vibrational temperatures:    108.58   179.03   264.07   286.88   321.18
          (Kelvin)            387.97   450.20   500.20   638.28   798.21
                              833.35   885.01  1060.70  1068.47  1112.08
                             1153.02  1226.50  1232.05  1287.91  1363.64
                             1410.14  1416.11  1462.18  1572.66  1579.81
                             1607.99  1682.39  1692.93  1777.68  1825.39
                             1881.95  1944.53  1966.64  2026.41  2029.32
                             2114.63  2120.34  2142.31  2154.64  2163.41
                             2199.79  4352.02  4362.26  4375.07  4414.06
                             4451.04  4474.36  4485.95  4491.42  4577.33
                             4599.21

 Zero-point correction=                           0.155984 (Hartree/Particle)
 Thermal correction to Energy=                    0.164882
 Thermal correction to Enthalpy=                  0.165826
 Thermal correction to Gibbs Free Energy=         0.122464
 Sum of electronic and zero-point Energies=           -422.944964
 Sum of electronic and thermal Energies=              -422.936066
 Sum of electronic and thermal Enthalpies=            -422.935121
 Sum of electronic and thermal Free Energies=         -422.978484

                     E (Thermal)             CV                S
                      KCal/Mol        Cal/Mol-Kelvin    Cal/Mol-Kelvin
 Total                  103.465             33.667             91.264
 Electronic               0.000              0.000              0.000
 Translational            0.889              2.981             40.409
 Rotational               0.889              2.981             28.711
 Vibrational            101.688             27.705             22.145
 Vibration     1          0.599              1.965              4.006
 Vibration     2          0.610              1.929              3.030
 Vibration     3          0.631              1.862              2.292
 Vibration     4          0.638              1.841              2.139
 Vibration     5          0.649              1.806              1.933
 Vibration     6          0.674              1.729              1.598
 Vibration     7          0.701              1.649              1.347
 Vibration     8          0.725              1.580              1.177
 Vibration     9          0.803              1.375              0.815
 Vibration    10          0.910              1.129              0.534
 Vibration    11          0.936              1.076              0.487
 Vibration    12          0.975              1.000              0.424

 Optimization completed.
    -- Stationary point found.
 Normal termination of Gaussian 09 at Tue Jan 28 10:02:02 2020.
