 Gaussian 09, Revision D.01,
 Gaussian 09:  ES64L-G09RevD.01 24-Apr-2013

 -----------------------------
 # b3lyp 6-31G(2df,p) opt Freq
 -----------------------------

 -----
 titel
 -----
 Symbolic Z-matrix:
 Charge =  0 Multiplicity = 1

 SCF Done:  E(RB3LYP) =  -423.120881987     A.U. after   14 cycles
 Optimization completed.
    -- Stationary point found.
 Normal termination of Gaussian 09 at Mon Jan 27 17:24:41 2020.

 ----------------------------------------------------------------------
 #N Geom=AllCheck Guess=TCheck SCRF=Check GenChk RB3LYP/6-31G(2df,p) Fr
 eq
 ----------------------------------------------------------------------

 Structure from the checkpoint file:  "/scratch/puck/g09_8cb52ce6-d319-46a3-ae01-112f8951480e/Gau-179336.chk"
 -----
 titel
 -----
 Charge =  0 Multiplicity = 1

                         Standard orientation:
 ---------------------------------------------------------------------
 Center     Atomic      Atomic             Coordinates (Angstroms)
 Number     Number       Type             X           Y           Z
 ---------------------------------------------------------------------
      1          6           0       -2.476983   -1.228440   -0.468485
      2          6           0       -1.579987   -0.156039    0.054906
      3          6           0       -1.915329    1.288640    0.259373
      4          6           0       -0.699555    0.909638   -0.567152
      5          6           0        0.382733    0.392438    0.374304
      6          8           0       -0.551321   -0.546360    0.984673
      7          6           0        1.511517   -0.351201   -0.285277
      8          6           0        2.813120   -0.503381    0.372473
      9          8           0        2.630208    0.448775   -0.677821
     10          1           0       -3.158957   -0.823118   -1.221327
     11          1           0       -1.899795   -2.041854   -0.919107
     12          1           0       -3.081616   -1.650133    0.342553
     13          1           0       -2.753278    1.664047   -0.320287
     14          1           0       -1.795245    1.739275    1.241240
     15          1           0       -0.553322    1.211886   -1.595614
     16          1           0        0.783047    1.109573    1.102163
     17          1           0        1.206074   -1.100857   -1.016240
     18          1           0        2.965781   -0.081647    1.364969
     19          1           0        3.443124   -1.356423    0.125979
 ---------------------------------------------------------------------

 SCF Done:  E(RB3LYP) =  -423.120881987     A.U. after    1 cycles

 The electronic state is 1-A.
 Alpha  occ. eigenvalues --  -19.15371 -19.13856 -10.24583 -10.24065 -10.23816
 Alpha  occ. eigenvalues --  -10.23542 -10.19497 -10.18927 -10.18693  -1.07396
 Alpha  occ. eigenvalues --   -1.05079  -0.83449  -0.75330  -0.71338  -0.66314
 Alpha  occ. eigenvalues --   -0.61010  -0.59332  -0.53549  -0.51217  -0.49177
 Alpha  occ. eigenvalues --   -0.48982  -0.46046  -0.43971  -0.41491  -0.40495
 Alpha  occ. eigenvalues --   -0.39547  -0.37825  -0.37509  -0.33958  -0.33185
 Alpha  occ. eigenvalues --   -0.29684  -0.28029  -0.26862  -0.23595
 Alpha virt. eigenvalues --    0.07065   0.09864   0.10309   0.10971   0.11443
 Alpha virt. eigenvalues --    0.12185   0.12662   0.14583   0.14846   0.15757
 Alpha virt. eigenvalues --    0.17306   0.18590   0.19058   0.19550   0.20456

 Mulliken charges:
               1
     1  C   -0.487725
     2  C    0.472261
     3  C   -0.344171
     4  C   -0.190046
     5  C    0.090760
     6  O   -0.336368
     7  C    0.081391
     8  C   -0.180431
     9  O   -0.238478
    10  H    0.125344
    11  H    0.126441
    12  H    0.134120
    13  H    0.114016
    14  H    0.113346
    15  H    0.106117
    16  H    0.082453
    17  H    0.094753
    18  H    0.117872
    19  H    0.118344
 Sum of Mulliken charges =   0.00000

 Dipole moment (field-independent basis, Debye):
    X=             -1.1306    Y=             -0.4446    Z=             -0.3682  Tot=              1.2694
 Quadrupole moment (field-independent basis, Debye-Ang):
   XX=            -51.2502   YY=            -53.1328   ZZ=            -53.7784
   XY=             -3.7633   XZ=              5.2004   YZ=              2.4497

  Exact polarizability:  94.705  -2.511  70.190   4.135   2.240  64.288
 Approx polarizability: 119.631   0.432 105.741   2.672  -2.897 101.108

                      1                      2                      3
                      A                      A                      A
 Frequencies --     64.4376               100.6474               169.7773
 Red. masses --      3.8183                 3.6564                 2.4632
 Frc consts  --      0.0093                 0.0218                 0.0418
 IR Inten    --      3.4707                 0.1397                 5.0131

                      4                      5                      6
                      A                      A                      A
 Frequencies --    200.6136               288.5309               311.2026
 Red. masses --      1.1696                 2.9074                 2.7188
 Frc consts  --      0.0277                 0.1426                 0.1551
 IR Inten    --      0.7452                 5.0780                 0.8272

                      7                      8                      9
                      A                      A                      A
 Frequencies --    359.6902               429.9946               441.7504
 Red. masses --      3.7096                 2.5168                 3.1788
 Frc consts  --      0.2828                 0.2742                 0.3655
 IR Inten    --      0.8489                 2.2512                 3.6707

                     10                     11                     12
                      A                      A                      A
 Frequencies --    494.0056               654.4342               803.0347
 Red. masses --      3.7437                 3.2717                 2.5729
 Frc consts  --      0.5383                 0.8256                 0.9776
 IR Inten    --      1.8475                 3.3385                 1.4356

                     13                     14                     15
                      A                      A                      A
 Frequencies --    817.9066               859.1112               868.4245
 Red. masses --      2.8726                 1.8089                 6.3038
 Frc consts  --      1.1322                 0.7866                 2.8010
 IR Inten    --      5.2213                 1.4896                14.4214

                     16                     17                     18
                      A                      A                      A
 Frequencies --    890.9917               929.3507               948.4320
 Red. masses --      1.9181                 2.1010                 2.1539
 Frc consts  --      0.8971                 1.0691                 1.1415
 IR Inten    --     60.3430                20.9329                 6.4463

                     19                     20                     21
                      A                      A                      A
 Frequencies --    973.3997               978.8195              1003.1226
 Red. masses --      1.9324                 2.3801                 1.6716
 Frc consts  --      1.0788                 1.3435                 0.9911
 IR Inten    --     41.6060                14.5470                33.8408

                     22                     23                     24
                      A                      A                      A
 Frequencies --   1047.3478              1061.3271              1077.9944
 Red. masses --      1.5135                 1.5824                 1.8191
 Frc consts  --      0.9782                 1.0502                 1.2455
 IR Inten    --      7.6622                 6.1267                 5.6437

                     25                     26                     27
                      A                      A                      A
 Frequencies --   1101.4323              1119.7767              1151.9861
 Red. masses --      1.4847                 1.7780                 1.4627
 Frc consts  --      1.0612                 1.3135                 1.1437
 IR Inten    --      6.4430                 9.0063                 1.5313

                     28                     29                     30
                      A                      A                      A
 Frequencies --   1165.1286              1186.5844              1202.5335
 Red. masses --      1.4576                 1.9971                 1.8599
 Frc consts  --      1.1658                 1.6567                 1.5846
 IR Inten    --      2.0917                 2.2238                33.9894

                     31                     32                     33
                      A                      A                      A
 Frequencies --   1257.1321              1278.6826              1285.8775
 Red. masses --      1.6350                 1.5858                 1.5505
 Frc consts  --      1.5224                 1.5276                 1.5105
 IR Inten    --     20.4439                 2.5692                 9.1750

                     34                     35                     36
                      A                      A                      A
 Frequencies --   1322.8815              1383.2663              1426.1456
 Red. masses --      1.7531                 1.4913                 1.6014
 Frc consts  --      1.8076                 1.6812                 1.9190
 IR Inten    --     13.0373                 7.0395                10.1012

                     37                     38                     39
                      A                      A                      A
 Frequencies --   1458.2226              1473.7196              1489.5441
 Red. masses --      1.7500                 1.0510                 1.3402
 Frc consts  --      2.1925                 1.3448                 1.7520
 IR Inten    --      1.4238                 2.5103                 7.8526

                     40                     41                     42
                      A                      A                      A
 Frequencies --   1502.1133              1529.0989              3030.0977
 Red. masses --      1.2960                 1.3981                 1.0840
 Frc consts  --      1.7229                 1.9261                 5.8641
 IR Inten    --      6.2533                 2.8399                45.7962

                     43                     44                     45
                      A                      A                      A
 Frequencies --   3033.1980              3085.2934              3096.5487
 Red. masses --      1.0364                 1.0500                 1.1002
 Frc consts  --      5.6178                 5.8889                 6.2156
 IR Inten    --     17.8141                27.9992                16.2318

                     46                     47                     48
                      A                      A                      A
 Frequencies --   3107.8195              3110.9335              3117.3704
 Red. masses --      1.0888                 1.0560                 1.0997
 Frc consts  --      6.1959                 6.0212                 6.2967
 IR Inten    --     22.1501                 9.8792                18.9170

                     49                     50                     51
                      A                      A                      A
 Frequencies --   3173.6125              3199.0219              3206.8761
 Red. masses --      1.1196                 1.1038                 1.1058
 Frc consts  --      6.6440                 6.6556                 6.7004
 IR Inten    --     24.6641                 2.8920                11.8636

 - Thermochemistry -
 -------------------
 Temperature   298.150 Kelvin.  Pressure   1.00000 Atm.
 Atom     1 has atomic number  6 and mass  12.00000

 Molecular mass:   126.06808 amu.
 Principal axes and moments of inertia in atomic units:
                           1         2         3
     Eigenvalues --   453.764791768.572111902.59009
           X            0.99978  -0.00807   0.01945
           Y            0.00594   0.99423   0.10715
           Z           -0.02020  -0.10701   0.99405
 This molecule is an asymmetric top.
 Rotational symmetry number  1.
 Warning -- assumption of classical behavior for rotation
           may cause significant error
 Rotational temperatures (Kelvin)      0.19088     0.04897     0.04552
 Rotational constants (GHZ):           3.97726     1.02045     0.94857
 Zero-point vibrational energy     414322.1 (Joules/Mol)
                                   99.02536 (Kcal/Mol)
 Warning -- explicit consideration of  10 degrees of freedom as
           vibrations may cause significant error
 Vibrational temperatures:     92.71   144.81   244.27   288.64   415.13
          (Kelvin)            447.75   517.51   618.67   635.58   710.76
                              941.58  1155.39  1176.78  1236.07  1249.47
                             1281.94  1337.13  1364.58  1400.50  1408.30
                             1443.27  1506.90  1527.01  1550.99  1584.71
                             1611.11  1657.45  1676.36  1707.23  1730.18
                             1808.73  1839.74  1850.09  1903.33  1990.21
                             2051.90  2098.05  2120.35  2143.12  2161.20
                             2200.03  4359.63  4364.09  4439.04  4455.24
                             4471.45  4475.93  4485.20  4566.11  4602.67
                             4613.97

 Zero-point correction=                           0.157807 (Hartree/Particle)
 Thermal correction to Energy=                    0.166290
 Thermal correction to Enthalpy=                  0.167234
 Thermal correction to Gibbs Free Energy=         0.124299
 Sum of electronic and zero-point Energies=           -422.963075
 Sum of electronic and thermal Energies=              -422.954592
 Sum of electronic and thermal Enthalpies=            -422.953648
 Sum of electronic and thermal Free Energies=         -422.996583

                     E (Thermal)             CV                S
                      KCal/Mol        Cal/Mol-Kelvin    Cal/Mol-Kelvin
 Total                  104.348             32.021             90.363
 Electronic               0.000              0.000              0.000
 Translational            0.889              2.981             40.409
 Rotational               0.889              2.981             28.814
 Vibrational            102.571             26.059             21.141
 Vibration     1          0.597              1.971              4.316
 Vibration     2          0.604              1.949              3.442
 Vibration     3          0.625              1.880              2.438
 Vibration     4          0.638              1.839              2.127
 Vibration     5          0.685              1.695              1.483
 Vibration     6          0.700              1.652              1.356
 Vibration     7          0.734              1.555              1.123
 Vibration     8          0.791              1.405              0.859
 Vibration     9          0.802              1.379              0.821
 Vibration    10          0.850              1.263              0.673

 Normal termination of Gaussian 09 at Mon Jan 27 18:01:56 2020.
