 Gaussian 09, Revision D.01,
 Gaussian 09:  ES64L-G09RevD.01 24-Apr-2013

 -----------------------------
 # b3lyp 6-31G(2df,p) opt Freq
 -----------------------------

 -----
 titel
 -----
 Symbolic Z-matrix:
 Charge =  0 Multiplicity = 1

 SCF Done:  E(RB3LYP) =  -423.172142480     A.U. after   15 cycles
 Optimization completed.
    -- Stationary point found.
 Normal termination of Gaussian 09 at Tue Jan 28 12:07:43 2020.

 ----------------------------------------------------------------------
 #N Geom=AllCheck Guess=TCheck SCRF=Check GenChk RB3LYP/6-31G(2df,p) Fr
 eq
 ----------------------------------------------------------------------

 Structure from the checkpoint file:  "/scratch/puck/g09_e4e6a8fc-0fc8-4d61-b022-cf450015c393/Gau-1492.chk"
 -----
 titel
 -----
 Charge =  0 Multiplicity = 1

                         Standard orientation:
 ---------------------------------------------------------------------
 Center     Atomic      Atomic             Coordinates (Angstroms)
 Number     Number       Type             X           Y           Z
 ---------------------------------------------------------------------
      1          6           0        2.356308    1.362525    0.667811
      2          6           0        2.693224    0.145412   -0.164885
      3          8           0        3.633636    0.106332   -0.919318
      4          6           0        1.802312   -1.103600    0.013317
      5          6           0        0.390137   -0.846412    0.256456
      6          6           0       -0.776780   -0.627797    0.462249
      7          6           0       -2.193474   -0.348009    0.658370
      8          6           0       -2.851599    0.280134   -0.587444
      9          8           0       -4.213674    0.591056   -0.367249
     10          1           0        1.391201    1.769589    0.349564
     11          1           0        2.243973    1.089680    1.722773
     12          1           0        3.136074    2.115513    0.551381
     13          1           0        1.954699   -1.730245   -0.870951
     14          1           0        2.230181   -1.659003    0.862123
     15          1           0       -2.724566   -1.276087    0.912797
     16          1           0       -2.339541    0.332240    1.506155
     17          1           0       -2.355725    1.226452   -0.822259
     18          1           0       -2.714065   -0.385372   -1.451722
     19          1           0       -4.702697   -0.235381   -0.302570
 ---------------------------------------------------------------------

 SCF Done:  E(RB3LYP) =  -423.172142480     A.U. after    1 cycles

 The electronic state is 1-A.
 Alpha  occ. eigenvalues --  -19.14385 -19.13303 -10.27818 -10.23805 -10.21630
 Alpha  occ. eigenvalues --  -10.21125 -10.18958 -10.18338 -10.18092  -1.04530
 Alpha  occ. eigenvalues --   -1.02569  -0.80791  -0.78361  -0.73482  -0.69780
 Alpha  occ. eigenvalues --   -0.63975  -0.54524  -0.51650  -0.50125  -0.47260
 Alpha  occ. eigenvalues --   -0.46956  -0.46155  -0.45435  -0.41993  -0.41455
 Alpha  occ. eigenvalues --   -0.40581  -0.39709  -0.38698  -0.35537  -0.33660
 Alpha  occ. eigenvalues --   -0.28835  -0.27668  -0.25644  -0.23850
 Alpha virt. eigenvalues --   -0.01502   0.04609   0.04692   0.06903   0.09595
 Alpha virt. eigenvalues --    0.12086   0.13208   0.14345   0.15061   0.15155
 Alpha virt. eigenvalues --    0.16675   0.17906   0.19510   0.20522   0.21717

 Mulliken charges:
               1
     1  C   -0.472003
     2  C    0.394039
     3  O   -0.287674
     4  C   -0.445008
     5  C    0.080179
     6  C    0.039568
     7  C   -0.356704
     8  C   -0.054884
     9  O   -0.407589
    10  H    0.154865
    11  H    0.140023
    12  H    0.140809
    13  H    0.153327
    14  H    0.152366
    15  H    0.119593
    16  H    0.138016
    17  H    0.123334
    18  H    0.102767
    19  H    0.284978
 Sum of Mulliken charges =   0.00000

 Dipole moment (field-independent basis, Debye):
    X=             -1.8315    Y=             -1.1638    Z=              1.5960  Tot=              2.6937
 Quadrupole moment (field-independent basis, Debye-Ang):
   XX=            -61.2946   YY=            -51.6146   ZZ=            -53.8871
   XY=              6.4089   XZ=              5.6374   YZ=              1.0088

  Exact polarizability: 114.878  -1.376  67.786  -7.676   2.008  62.627
 Approx polarizability: 159.795  -7.402  96.313 -19.317   2.846  95.115

                      1                      2                      3
                      A                      A                      A
 Frequencies --     25.1238                30.4196                66.0725
 Red. masses --      2.6019                 5.1778                 2.7300
 Frc consts  --      0.0010                 0.0028                 0.0070
 IR Inten    --      1.7750                 4.5184                 2.3286

                      4                      5                      6
                      A                      A                      A
 Frequencies --     97.8720               127.0731               141.9045
 Red. masses --      2.9645                 3.3501                 1.1069
 Frc consts  --      0.0167                 0.0319                 0.0131
 IR Inten    --      2.1525                 1.6252                 0.1142

                      7                      8                      9
                      A                      A                      A
 Frequencies --    264.6907               289.9697               304.9019
 Red. masses --      3.2369                 2.7994                 1.2098
 Frc consts  --      0.1336                 0.1387                 0.0663
 IR Inten    --      6.6473                10.5806                98.9912

                     10                     11                     12
                      A                      A                      A
 Frequencies --    348.6725               386.7657               435.8227
 Red. masses --      4.6173                 3.4777                 3.7848
 Frc consts  --      0.3307                 0.3065                 0.4236
 IR Inten    --     17.9670                 6.4257                 2.6812

                     13                     14                     15
                      A                      A                      A
 Frequencies --    474.7784               522.8319               570.1317
 Red. masses --      3.3015                 4.7511                 4.0390
 Frc consts  --      0.4385                 0.7652                 0.7735
 IR Inten    --      4.2456                11.4441                 5.5838

                     16                     17                     18
                      A                      A                      A
 Frequencies --    756.2753               780.0714               825.5818
 Red. masses --      3.4581                 1.1570                 2.4020
 Frc consts  --      1.1653                 0.4148                 0.9646
 IR Inten    --      3.4797                 1.7083                 0.6747

                     19                     20                     21
                      A                      A                      A
 Frequencies --    847.0424              1002.4379              1009.4948
 Red. masses --      1.9538                 1.8737                 3.1991
 Frc consts  --      0.8259                 1.1093                 1.9208
 IR Inten    --      1.5570                 6.6158                 6.0644

                     22                     23                     24
                      A                      A                      A
 Frequencies --   1048.5136              1050.9590              1084.1908
 Red. masses --      1.8406                 1.8684                 4.0482
 Frc consts  --      1.1922                 1.2159                 2.8036
 IR Inten    --     15.0727                68.7171                89.8292

                     25                     26                     27
                      A                      A                      A
 Frequencies --   1161.8900              1169.1566              1192.1704
 Red. masses --      2.6453                 1.1300                 1.6709
 Frc consts  --      2.1041                 0.9101                 1.3992
 IR Inten    --      0.8570                 8.1302                44.0191

                     28                     29                     30
                      A                      A                      A
 Frequencies --   1231.0360              1291.3869              1301.7268
 Red. masses --      1.7965                 1.3241                 1.5557
 Frc consts  --      1.6041                 1.3010                 1.5532
 IR Inten    --     60.6764                 3.7441                 3.5737

                     31                     32                     33
                      A                      A                      A
 Frequencies --   1313.6413              1383.9196              1395.8061
 Red. masses --      1.2504                 1.3126                 1.2791
 Frc consts  --      1.2714                 1.4811                 1.4682
 IR Inten    --     19.3096                29.9707                15.0187

                     34                     35                     36
                      A                      A                      A
 Frequencies --   1413.1244              1441.3438              1458.3294
 Red. masses --      1.2427                 1.0896                 1.0525
 Frc consts  --      1.4621                 1.3337                 1.3188
 IR Inten    --     41.9976                 4.0116                17.2851

                     37                     38                     39
                      A                      A                      A
 Frequencies --   1471.3819              1473.2969              1510.0225
 Red. masses --      1.0509                 1.0862                 1.0896
 Frc consts  --      1.3404                 1.3891                 1.4639
 IR Inten    --      8.5467                 2.5044                 0.5753

                     40                     41                     42
                      A                      A                      A
 Frequencies --   1822.6394              2364.7809              3002.1568
 Red. masses --     10.9598                11.8470                 1.0679
 Frc consts  --     21.4512                39.0336                 5.6709
 IR Inten    --    204.9181                 0.2524                14.9370

                     43                     44                     45
                      A                      A                      A
 Frequencies --   3004.4181              3010.9354              3044.4576
 Red. masses --      1.0678                 1.0652                 1.0363
 Frc consts  --      5.6788                 5.6894                 5.6592
 IR Inten    --     31.6528                35.7288                 1.6619

                     46                     47                     48
                      A                      A                      A
 Frequencies --   3055.2208              3080.5204              3094.2853
 Red. masses --      1.0930                 1.0905                 1.0981
 Frc consts  --      6.0110                 6.0973                 6.1947
 IR Inten    --     10.9701                 4.4249                30.3486

                     49                     50                     51
                      A                      A                      A
 Frequencies --   3106.7115              3157.9339              3817.9091
 Red. masses --      1.0971                 1.1034                 1.0662
 Frc consts  --      6.2389                 6.4831                 9.1569
 IR Inten    --      5.0078                11.2195                24.1590

 - Thermochemistry -
 -------------------
 Temperature   298.150 Kelvin.  Pressure   1.00000 Atm.
 Atom     1 has atomic number  6 and mass  12.00000

 Molecular mass:   126.06808 amu.
 Principal axes and moments of inertia in atomic units:
                           1         2         3
     Eigenvalues --   434.259183467.377853582.64831
           X            0.99994   0.00667   0.00903
           Y           -0.00742   0.99631   0.08555
           Z           -0.00843  -0.08561   0.99629
 This molecule is an asymmetric top.
 Rotational symmetry number  1.
 Warning -- assumption of classical behavior for rotation
           may cause significant error
 Rotational temperatures (Kelvin)      0.19945     0.02498     0.02418
 Rotational constants (GHZ):           4.15591     0.52049     0.50375
 Zero-point vibrational energy     408296.2 (Joules/Mol)
                                   97.58514 (Kcal/Mol)
 Warning -- explicit consideration of  15 degrees of freedom as
           vibrations may cause significant error
 Vibrational temperatures:     36.15    43.77    95.06   140.82   182.83
          (Kelvin)            204.17   380.83   417.20   438.69   501.66
                              556.47   627.05   683.10   752.24   820.29
                             1088.11  1122.35  1187.83  1218.70  1442.28
                             1452.44  1508.58  1512.09  1559.91  1671.70
                             1682.15  1715.27  1771.18  1858.02  1872.89
                             1890.03  1991.15  2008.25  2033.17  2073.77
                             2098.21  2116.99  2119.74  2172.58  2622.37
                             3402.39  4319.43  4322.68  4332.06  4380.29
                             4395.78  4432.18  4451.98  4469.86  4543.56
                             5493.11

 Zero-point correction=                           0.155512 (Hartree/Particle)
 Thermal correction to Energy=                    0.166522
 Thermal correction to Enthalpy=                  0.167467
 Thermal correction to Gibbs Free Energy=         0.116649
 Sum of electronic and zero-point Energies=           -423.016631
 Sum of electronic and thermal Energies=              -423.005620
 Sum of electronic and thermal Enthalpies=            -423.004676
 Sum of electronic and thermal Free Energies=         -423.055494

                     E (Thermal)             CV                S
                      KCal/Mol        Cal/Mol-Kelvin    Cal/Mol-Kelvin
 Total                  104.494             37.193            106.955
 Electronic               0.000              0.000              0.000
 Translational            0.889              2.981             40.409
 Rotational               0.889              2.981             30.068
 Vibrational            102.717             31.231             36.478
 Vibration     1          0.593              1.985              6.181
 Vibration     2          0.594              1.984              5.802
 Vibration     3          0.597              1.970              4.267
 Vibration     4          0.603              1.951              3.496
 Vibration     5          0.611              1.926              2.990
 Vibration     6          0.615              1.911              2.778
 Vibration     7          0.671              1.738              1.631
 Vibration     8          0.686              1.692              1.474
 Vibration     9          0.696              1.664              1.390
 Vibration    10          0.726              1.578              1.172
 Vibration    11          0.755              1.498              1.013
 Vibration    12          0.796              1.392              0.840
 Vibration    13          0.831              1.306              0.724
 Vibration    14          0.878              1.199              0.603
 Vibration    15          0.926              1.096              0.504

 Optimization completed.
    -- Stationary point found.
 Normal termination of Gaussian 09 at Tue Jan 28 12:44:55 2020.
