 Gaussian 09, Revision D.01,
 Gaussian 09:  ES64L-G09RevD.01 24-Apr-2013

 -----------------------------
 # b3lyp 6-31G(2df,p) opt Freq
 -----------------------------

 -----
 titel
 -----
 Symbolic Z-matrix:
 Charge =  0 Multiplicity = 1

 SCF Done:  E(RB3LYP) =  -423.130654381     A.U. after   14 cycles
 SCF Done:  E(RB3LYP) =  -423.130654324     A.U. after    7 cycles
 SCF Done:  E(RB3LYP) =  -423.130654449     A.U. after    7 cycles
 SCF Done:  E(RB3LYP) =  -423.130654451     A.U. after    6 cycles
 SCF Done:  E(RB3LYP) =  -423.130654369     A.U. after    7 cycles
 SCF Done:  E(RB3LYP) =  -423.130654480     A.U. after    6 cycles
 Optimization completed.
    -- Stationary point found.
 Normal termination of Gaussian 09 at Tue Jan 28 01:03:43 2020.

 ----------------------------------------------------------------------
 #N Geom=AllCheck Guess=TCheck SCRF=Check GenChk RB3LYP/6-31G(2df,p) Fr
 eq
 ----------------------------------------------------------------------

 Structure from the checkpoint file:  "/scratch/puck/g09_8bd1d94c-0b27-4d38-b4b6-7daf9a93d766/Gau-189851.chk"
 -----
 titel
 -----
 Charge =  0 Multiplicity = 1

                         Standard orientation:
 ---------------------------------------------------------------------
 Center     Atomic      Atomic             Coordinates (Angstroms)
 Number     Number       Type             X           Y           Z
 ---------------------------------------------------------------------
      1          8           0       -3.010178    0.136854    0.527261
      2          6           0       -1.857813   -0.004457   -0.264183
      3          6           0       -1.113154   -1.363313   -0.360305
      4          6           0        0.215918   -0.561779   -0.456565
      5          6           0        1.458780   -1.134716    0.233166
      6          6           0        2.614185   -0.245720    0.188648
      7          6           0        3.560870    0.493044    0.143315
      8          6           0       -0.517822    0.644831    0.171088
      9          8           0       -0.152543    1.900207   -0.336752
     10          1           0       -2.815235   -0.213647    1.402862
     11          1           0       -2.125429    0.362456   -1.259736
     12          1           0       -1.177356   -1.916473    0.584739
     13          1           0       -1.374641   -2.036546   -1.178137
     14          1           0        0.445083   -0.321424   -1.498833
     15          1           0        1.215914   -1.367015    1.279187
     16          1           0        1.718269   -2.093715   -0.234974
     17          1           0        4.394351    1.149303    0.103541
     18          1           0       -0.431988    0.606455    1.272083
     19          1           0       -0.712976    2.566776    0.074207
 ---------------------------------------------------------------------

 SCF Done:  E(RB3LYP) =  -423.130654480     A.U. after    1 cycles

 The electronic state is 1-A.
 Alpha  occ. eigenvalues --  -19.14204 -19.13767 -10.23061 -10.23024 -10.20905
 Alpha  occ. eigenvalues --  -10.19643 -10.18705 -10.17597 -10.16514  -1.02955
 Alpha  occ. eigenvalues --   -1.01683  -0.84790  -0.77565  -0.70502  -0.65704
 Alpha  occ. eigenvalues --   -0.63197  -0.57289  -0.53008  -0.52261  -0.50111
 Alpha  occ. eigenvalues --   -0.45926  -0.45738  -0.43847  -0.40871  -0.40539
 Alpha  occ. eigenvalues --   -0.39248  -0.36319  -0.34877  -0.33120  -0.30239
 Alpha  occ. eigenvalues --   -0.29391  -0.25931  -0.25817  -0.24238
 Alpha virt. eigenvalues --    0.05334   0.05921   0.07408   0.08085   0.10084
 Alpha virt. eigenvalues --    0.11004   0.12991   0.13470   0.15918   0.16133
 Alpha virt. eigenvalues --    0.17221   0.18996   0.19392   0.20253   0.21523

 Mulliken charges:
               1
     1  O   -0.434407
     2  C    0.112904
     3  C   -0.317734
     4  C    0.021642
     5  C   -0.382541
     6  C    0.312085
     7  C   -0.445479
     8  C    0.096858
     9  O   -0.428943
    10  H    0.276743
    11  H    0.101713
    12  H    0.091284
    13  H    0.111380
    14  H    0.099777
    15  H    0.119928
    16  H    0.130927
    17  H    0.194433
    18  H    0.052473
    19  H    0.286957
 Sum of Mulliken charges =   0.00000

 Dipole moment (field-independent basis, Debye):
    X=             -0.3414    Y=             -0.8020    Z=              1.2833  Tot=              1.5513
 Quadrupole moment (field-independent basis, Debye-Ang):
   XX=            -59.0309   YY=            -49.5393   ZZ=            -50.4288
   XY=              1.0439   XZ=             -2.0114   YZ=              1.2145

  Exact polarizability:  94.563  10.099  75.482  -1.271  -0.119  61.603
 Approx polarizability: 125.799  20.921 113.232  -3.978  -2.408  96.013

                      1                      2                      3
                      A                      A                      A
 Frequencies --     48.6919                78.6492               138.5003
 Red. masses --      4.5281                 4.8122                 3.0537
 Frc consts  --      0.0063                 0.0175                 0.0345
 IR Inten    --      0.6394                 0.2449                 0.9279

                      4                      5                      6
                      A                      A                      A
 Frequencies --    213.8591               239.7083               269.8659
 Red. masses --      1.7978                 2.8915                 1.6847
 Frc consts  --      0.0484                 0.0979                 0.0723
 IR Inten    --     30.9980                 1.4737                60.1595

                      7                      8                      9
                      A                      A                      A
 Frequencies --    305.5881               319.4539               345.4520
 Red. masses --      2.8172                 1.3249                 3.1963
 Frc consts  --      0.1550                 0.0797                 0.2247
 IR Inten    --     19.4039                86.8117                 3.2685

                     10                     11                     12
                      A                      A                      A
 Frequencies --    390.2261               446.0829               465.9809
 Red. masses --      2.6823                 5.3366                 3.2262
 Frc consts  --      0.2407                 0.6257                 0.4127
 IR Inten    --     12.5574                 3.1642                 3.0789

                     13                     14                     15
                      A                      A                      A
 Frequencies --    545.4066               618.3137               621.2462
 Red. masses --      3.0047                 1.7541                 1.6658
 Frc consts  --      0.5266                 0.3951                 0.3788
 IR Inten    --     13.1171                19.9009                28.8486

                     16                     17                     18
                      A                      A                      A
 Frequencies --    636.1685               818.1008               850.6045
 Red. masses --      1.3249                 1.9824                 2.1278
 Frc consts  --      0.3159                 0.7817                 0.9070
 IR Inten    --     48.0090                 0.3344                 4.8850

                     19                     20                     21
                      A                      A                      A
 Frequencies --    879.7803               943.4614               970.1697
 Red. masses --      1.6778                 3.5911                 3.1871
 Frc consts  --      0.7651                 1.8833                 1.7675
 IR Inten    --      4.3419                 8.3397                 8.2046

                     22                     23                     24
                      A                      A                      A
 Frequencies --   1044.2582              1067.5113              1076.8364
 Red. masses --      2.6964                 2.0267                 2.5189
 Frc consts  --      1.7324                 1.3608                 1.7209
 IR Inten    --     41.0728                12.1259                30.5324

                     25                     26                     27
                      A                      A                      A
 Frequencies --   1085.3811              1139.2314              1158.5143
 Red. masses --      1.5854                 3.9680                 1.3342
 Frc consts  --      1.1004                 3.0342                 1.0550
 IR Inten    --     15.3575                84.4686                 1.4411

                     28                     29                     30
                      A                      A                      A
 Frequencies --   1171.0831              1216.0845              1237.9112
 Red. masses --      2.1944                 1.2203                 1.3229
 Frc consts  --      1.7731                 1.0633                 1.1945
 IR Inten    --     75.2658                 5.4576                10.3939

                     31                     32                     33
                      A                      A                      A
 Frequencies --   1243.4703              1276.4702              1292.0883
 Red. masses --      1.3089                 1.3083                 1.3522
 Frc consts  --      1.1924                 1.2560                 1.3301
 IR Inten    --      5.6633                13.8802                24.9572

                     34                     35                     36
                      A                      A                      A
 Frequencies --   1324.5980              1351.1578              1373.9870
 Red. masses --      1.3907                 1.5797                 1.4247
 Frc consts  --      1.4377                 1.6992                 1.5847
 IR Inten    --     29.8286                13.9705                 5.4965

                     37                     38                     39
                      A                      A                      A
 Frequencies --   1425.7729              1443.1225              1470.2471
 Red. masses --      1.3411                 1.3723                 1.0891
 Frc consts  --      1.6062                 1.6839                 1.3871
 IR Inten    --     30.3981                36.8351                 2.0730

                     40                     41                     42
                      A                      A                      A
 Frequencies --   1491.4840              2240.2308              2940.4171
 Red. masses --      1.1697                 5.9259                 1.0823
 Frc consts  --      1.5331                17.5223                 5.5135
 IR Inten    --      9.1843                 1.9337                46.9680

                     43                     44                     45
                      A                      A                      A
 Frequencies --   3009.1146              3036.3929              3038.3514
 Red. masses --      1.0591                 1.0664                 1.0990
 Frc consts  --      5.6502                 5.7930                 5.9774
 IR Inten    --     18.0327                24.7403                10.9768

                     46                     47                     48
                      A                      A                      A
 Frequencies --   3073.2829              3079.4008              3119.1957
 Red. masses --      1.0855                 1.0851                 1.1003
 Frc consts  --      6.0406                 6.0626                 6.3074
 IR Inten    --      3.5376                32.0190                32.1101

                     49                     50                     51
                      A                      A                      A
 Frequencies --   3507.8194              3806.8717              3812.6153
 Red. masses --      1.1623                 1.0658                 1.0660
 Frc consts  --      8.4261                 9.1005                 9.1294
 IR Inten    --     64.1560                13.1818                24.7681

 - Thermochemistry -
 -------------------
 Temperature   298.150 Kelvin.  Pressure   1.00000 Atm.
 Atom     1 has atomic number  8 and mass  15.99491

 Molecular mass:   126.06808 amu.
 Principal axes and moments of inertia in atomic units:
                           1         2         3
     Eigenvalues --   552.479501890.941582273.66429
           X            0.99998   0.00652   0.00001
           Y           -0.00652   0.99995   0.00751
           Z            0.00004  -0.00751   0.99997
 This molecule is an asymmetric top.
 Rotational symmetry number  1.
 Warning -- assumption of classical behavior for rotation
           may cause significant error
 Rotational temperatures (Kelvin)      0.15677     0.04580     0.03809
 Rotational constants (GHZ):           3.26662     0.95441     0.79376
 Zero-point vibrational energy     410906.6 (Joules/Mol)
                                   98.20902 (Kcal/Mol)
 Warning -- explicit consideration of  14 degrees of freedom as
           vibrations may cause significant error
 Vibrational temperatures:     70.06   113.16   199.27   307.70   344.89
          (Kelvin)            388.28   439.67   459.62   497.03   561.45
                              641.81   670.44   784.72   889.61   893.83
                              915.30  1177.06  1223.83  1265.81  1357.43
                             1395.86  1502.45  1535.91  1549.33  1561.62
                             1639.10  1666.84  1684.93  1749.67  1781.08
                             1789.07  1836.55  1859.02  1905.80  1944.01
                             1976.86  2051.37  2076.33  2115.36  2145.91
                             3223.19  4230.60  4329.44  4368.69  4371.50
                             4421.76  4430.57  4487.82  5046.96  5477.23
                             5485.50

 Zero-point correction=                           0.156506 (Hartree/Particle)
 Thermal correction to Energy=                    0.166337
 Thermal correction to Enthalpy=                  0.167281
 Thermal correction to Gibbs Free Energy=         0.121490
 Sum of electronic and zero-point Energies=           -422.974148
 Sum of electronic and thermal Energies=              -422.964318
 Sum of electronic and thermal Enthalpies=            -422.963373
 Sum of electronic and thermal Free Energies=         -423.009164

                     E (Thermal)             CV                S
                      KCal/Mol        Cal/Mol-Kelvin    Cal/Mol-Kelvin
 Total                  104.378             36.414             96.375
 Electronic               0.000              0.000              0.000
 Translational            0.889              2.981             40.409
 Rotational               0.889              2.981             29.253
 Vibrational            102.601             30.453             26.713
 Vibration     1          0.595              1.978              4.870
 Vibration     2          0.600              1.964              3.924
 Vibration     3          0.614              1.915              2.824
 Vibration     4          0.644              1.820              2.010
 Vibration     5          0.657              1.780              1.805
 Vibration     6          0.674              1.729              1.597
 Vibration     7          0.696              1.663              1.386
 Vibration     8          0.705              1.636              1.313
 Vibration     9          0.724              1.585              1.187
 Vibration    10          0.758              1.491              0.999
 Vibration    11          0.805              1.370              0.808
 Vibration    12          0.823              1.326              0.749
 Vibration    13          0.901              1.150              0.554
 Vibration    14          0.978              0.993              0.419

 Optimization completed.
    -- Stationary point found.
 Normal termination of Gaussian 09 at Tue Jan 28 01:42:21 2020.
