 Gaussian 09, Revision D.01,
 Gaussian 09:  ES64L-G09RevD.01 24-Apr-2013

 -----------------------------
 # b3lyp 6-31G(2df,p) opt Freq
 -----------------------------

 -----
 titel
 -----
 Symbolic Z-matrix:
 Charge =  0 Multiplicity = 1

 SCF Done:  E(RB3LYP) =  -423.180471180     A.U. after   14 cycles
 Optimization completed.
    -- Stationary point found.
 Normal termination of Gaussian 09 at Mon Jan 27 22:13:38 2020.

 ----------------------------------------------------------------------
 #N Geom=AllCheck Guess=TCheck SCRF=Check GenChk RB3LYP/6-31G(2df,p) Fr
 eq
 ----------------------------------------------------------------------

 Structure from the checkpoint file:  "/scratch/puck/g09_a1a18b70-612c-494c-896c-e90b22303e63/Gau-28441.chk"
 -----
 titel
 -----
 Charge =  0 Multiplicity = 1

                         Standard orientation:
 ---------------------------------------------------------------------
 Center     Atomic      Atomic             Coordinates (Angstroms)
 Number     Number       Type             X           Y           Z
 ---------------------------------------------------------------------
      1          6           0        2.716257   -0.775786   -0.080043
      2          6           0        1.283684   -0.615517   -0.552168
      3          6           0        0.170882   -0.949757    0.390211
      4          6           0       -1.180886   -0.838067   -0.328697
      5          6           0       -2.440674   -1.114899    0.484530
      6          6           0       -0.866983    0.679566   -0.447072
      7          8           0       -1.591589    1.645659   -0.454054
      8          6           0        0.537655    0.568164    0.005809
      9          8           0        1.207266    1.572561    0.646458
     10          1           0        3.051729   -1.805871   -0.234078
     11          1           0        3.384603   -0.112139   -0.636300
     12          1           0        2.817353   -0.533038    0.980491
     13          1           0        1.136495   -0.863287   -1.604143
     14          1           0        0.327654   -1.418810    1.353194
     15          1           0       -1.208372   -1.377179   -1.283038
     16          1           0       -2.567981   -2.187652    0.658862
     17          1           0       -2.402841   -0.611315    1.455833
     18          1           0       -3.321990   -0.744180   -0.045717
     19          1           0        0.538333    2.185481    0.980242
 ---------------------------------------------------------------------

 SCF Done:  E(RB3LYP) =  -423.180471180     A.U. after    1 cycles

 The electronic state is 1-A.
 Alpha  occ. eigenvalues --  -19.16658 -19.12647 -10.26249 -10.25302 -10.21283
 Alpha  occ. eigenvalues --  -10.20986 -10.20188 -10.18710 -10.18276  -1.06056
 Alpha  occ. eigenvalues --   -1.03064  -0.90165  -0.77823  -0.72455  -0.64648
 Alpha  occ. eigenvalues --   -0.63008  -0.58247  -0.56250  -0.49677  -0.47926
 Alpha  occ. eigenvalues --   -0.46124  -0.43591  -0.42484  -0.41189  -0.40060
 Alpha  occ. eigenvalues --   -0.38637  -0.38241  -0.37805  -0.36415  -0.35506
 Alpha  occ. eigenvalues --   -0.34165  -0.30382  -0.24136  -0.23844
 Alpha virt. eigenvalues --   -0.00588   0.07325   0.09980   0.10654   0.10986
 Alpha virt. eigenvalues --    0.11722   0.13938   0.15592   0.16194   0.16808
 Alpha virt. eigenvalues --    0.17492   0.17938   0.19290   0.20176   0.22801

 Mulliken charges:
               1
     1  C   -0.419011
     2  C   -0.080128
     3  C   -0.153760
     4  C   -0.117157
     5  C   -0.408111
     6  C    0.307489
     7  O   -0.352125
     8  C    0.317556
     9  O   -0.450499
    10  H    0.121652
    11  H    0.133328
    12  H    0.132607
    13  H    0.090510
    14  H    0.110955
    15  H    0.087794
    16  H    0.117357
    17  H    0.120562
    18  H    0.137627
    19  H    0.303356
 Sum of Mulliken charges =   0.00000

 Dipole moment (field-independent basis, Debye):
    X=              0.9912    Y=             -2.2834    Z=              0.6901  Tot=              2.5831
 Quadrupole moment (field-independent basis, Debye-Ang):
   XX=            -56.1660   YY=            -54.7926   ZZ=            -51.1198
   XY=              2.3145   XZ=             -1.8579   YZ=              2.4689

  Exact polarizability:  92.196  -2.720  79.135   0.227   0.577  61.760
 Approx polarizability: 121.936  -9.803 129.169   3.555  -1.801  97.472

                      1                      2                      3
                      A                      A                      A
 Frequencies --     84.3531               167.8961               187.6396
 Red. masses --      5.2499                 2.4683                 1.3397
 Frc consts  --      0.0220                 0.0410                 0.0278
 IR Inten    --      4.5316                 2.1647                 1.7778

                      4                      5                      6
                      A                      A                      A
 Frequencies --    192.6993               208.7346               229.6492
 Red. masses --      1.0998                 2.2979                 2.3340
 Frc consts  --      0.0241                 0.0590                 0.0725
 IR Inten    --      0.2329                 4.2550                 7.2257

                      7                      8                      9
                      A                      A                      A
 Frequencies --    238.5737               341.8579               390.4111
 Red. masses --      3.2525                 2.9242                 1.4562
 Frc consts  --      0.1091                 0.2014                 0.1308
 IR Inten    --     13.1481                 0.9828                56.1718

                     10                     11                     12
                      A                      A                      A
 Frequencies --    408.5268               457.9524               543.6896
 Red. masses --      2.8409                 3.3954                 4.6937
 Frc consts  --      0.2794                 0.4196                 0.8175
 IR Inten    --     17.7562                 1.2710                 2.5362

                     13                     14                     15
                      A                      A                      A
 Frequencies --    587.5411               682.7436               714.8717
 Red. masses --      4.2872                 5.6944                 3.8440
 Frc consts  --      0.8720                 1.5639                 1.1574
 IR Inten    --      3.8166                12.0531                11.5145

                     16                     17                     18
                      A                      A                      A
 Frequencies --    781.3976               887.7473               906.8210
 Red. masses --      3.2722                 1.6459                 1.7706
 Frc consts  --      1.1772                 0.7642                 0.8578
 IR Inten    --      8.1475                 5.0209                 2.4888

                     19                     20                     21
                      A                      A                      A
 Frequencies --    934.8257               946.7207              1011.5059
 Red. masses --      2.6076                 2.4391                 3.6070
 Frc consts  --      1.3426                 1.2880                 2.1743
 IR Inten    --      8.4059                13.9186                88.7784

                     22                     23                     24
                      A                      A                      A
 Frequencies --   1018.9228              1052.3522              1081.2312
 Red. masses --      1.2686                 1.5492                 1.9689
 Frc consts  --      0.7760                 1.0108                 1.3561
 IR Inten    --      3.1743                11.5659                 0.7585

                     25                     26                     27
                      A                      A                      A
 Frequencies --   1109.6397              1156.3850              1176.5150
 Red. masses --      1.4922                 2.1683                 1.6070
 Frc consts  --      1.0826                 1.7083                 1.3105
 IR Inten    --      1.3150                13.2431                15.7507

                     28                     29                     30
                      A                      A                      A
 Frequencies --   1208.3572              1228.3771              1247.1664
 Red. masses --      1.9122                 1.5226                 1.5164
 Frc consts  --      1.6450                 1.3536                 1.3897
 IR Inten    --     29.8666                16.4692                 1.8661

                     31                     32                     33
                      A                      A                      A
 Frequencies --   1351.3436              1357.1402              1380.8843
 Red. masses --      1.3442                 1.8095                 3.1011
 Frc consts  --      1.4463                 1.9636                 3.4840
 IR Inten    --     64.7884                17.1148                62.9016

                     34                     35                     36
                      A                      A                      A
 Frequencies --   1408.9570              1421.3462              1449.2529
 Red. masses --      1.2270                 1.3338                 2.4060
 Frc consts  --      1.4351                 1.5877                 2.9774
 IR Inten    --      3.9484                 2.2973                 1.9147

                     37                     38                     39
                      A                      A                      A
 Frequencies --   1492.2835              1492.7158              1495.7063
 Red. masses --      1.0522                 1.0456                 1.0494
 Frc consts  --      1.3805                 1.3727                 1.3833
 IR Inten    --      4.6897                 3.6614                 2.9821

                     40                     41                     42
                      A                      A                      A
 Frequencies --   1504.3623              1824.5259              3030.5172
 Red. masses --      1.1205                12.6644                 1.0837
 Frc consts  --      1.4941                24.8390                 5.8641
 IR Inten    --      8.2410               343.4055                24.3816

                     43                     44                     45
                      A                      A                      A
 Frequencies --   3039.7114              3045.6368              3085.4000
 Red. masses --      1.0351                 1.0356                 1.0881
 Frc consts  --      5.6349                 5.6599                 6.1031
 IR Inten    --     23.8585                24.8309                17.4019

                     46                     47                     48
                      A                      A                      A
 Frequencies --   3108.2670              3111.3908              3119.9169
 Red. masses --      1.1021                 1.1018                 1.1011
 Frc consts  --      6.2735                 6.2846                 6.3149
 IR Inten    --     24.6444                17.0926                13.8306

                     49                     50                     51
                      A                      A                      A
 Frequencies --   3128.3601              3205.1489              3763.2188
 Red. masses --      1.1009                 1.0929                 1.0655
 Frc consts  --      6.3478                 6.6148                 8.8902
 IR Inten    --     21.3580                 1.7976                41.4181

 - Thermochemistry -
 -------------------
 Temperature   298.150 Kelvin.  Pressure   1.00000 Atm.
 Atom     1 has atomic number  6 and mass  12.00000

 Molecular mass:   126.06808 amu.
 Principal axes and moments of inertia in atomic units:
                           1         2         3
     Eigenvalues --   677.134701292.857021734.01968
           X            0.99969   0.02007  -0.01472
           Y           -0.01996   0.99977   0.00725
           Z            0.01486  -0.00696   0.99987
 This molecule is an asymmetric top.
 Rotational symmetry number  1.
 Warning -- assumption of classical behavior for rotation
           may cause significant error
 Rotational temperatures (Kelvin)      0.12791     0.06699     0.04995
 Rotational constants (GHZ):           2.66526     1.39593     1.04078
 Zero-point vibrational energy     412718.8 (Joules/Mol)
                                   98.64215 (Kcal/Mol)
 Warning -- explicit consideration of  13 degrees of freedom as
           vibrations may cause significant error
 Vibrational temperatures:    121.37   241.56   269.97   277.25   300.32
          (Kelvin)            330.41   343.25   491.86   561.71   587.78
                              658.89   782.25   845.34   982.31  1028.54
                             1124.26  1277.27  1304.71  1345.00  1362.12
                             1455.33  1466.00  1514.10  1555.65  1596.52
                             1663.78  1692.74  1738.55  1767.36  1794.39
                             1944.28  1952.62  1986.78  2027.17  2045.00
                             2085.15  2147.06  2147.68  2151.99  2164.44
                             2625.08  4360.23  4373.46  4381.99  4439.20
                             4472.10  4476.59  4488.86  4501.01  4611.49
                             5414.43

 Zero-point correction=                           0.157196 (Hartree/Particle)
 Thermal correction to Energy=                    0.166546
 Thermal correction to Enthalpy=                  0.167491
 Thermal correction to Gibbs Free Energy=         0.123443
 Sum of electronic and zero-point Energies=           -423.023275
 Sum of electronic and thermal Energies=              -423.013925
 Sum of electronic and thermal Enthalpies=            -423.012981
 Sum of electronic and thermal Free Energies=         -423.057028

                     E (Thermal)             CV                S
                      KCal/Mol        Cal/Mol-Kelvin    Cal/Mol-Kelvin
 Total                  104.509             34.861             92.706
 Electronic               0.000              0.000              0.000
 Translational            0.889              2.981             40.409
 Rotational               0.889              2.981             28.808
 Vibrational            102.732             28.900             23.489
 Vibration     1          0.601              1.960              3.787
 Vibration     2          0.625              1.882              2.459
 Vibration     3          0.632              1.857              2.251
 Vibration     4          0.635              1.850              2.202
 Vibration     5          0.642              1.827              2.055
 Vibration     6          0.652              1.796              1.882
 Vibration     7          0.657              1.782              1.813
 Vibration     8          0.721              1.592              1.203
 Vibration     9          0.758              1.491              0.999
 Vibration    10          0.773              1.452              0.932
 Vibration    11          0.816              1.343              0.772
 Vibration    12          0.899              1.154              0.557
 Vibration    13          0.945              1.058              0.472

 Normal termination of Gaussian 09 at Tue Jan 28 00:22:09 2020.
