 Gaussian 09, Revision D.01,
 Gaussian 09:  ES64L-G09RevD.01 24-Apr-2013

 -----------------------------
 # b3lyp 6-31G(2df,p) opt Freq
 -----------------------------

 -----
 titel
 -----
 Symbolic Z-matrix:
 Charge =  0 Multiplicity = 1

 SCF Done:  E(RB3LYP) =  -423.098133283     A.U. after   14 cycles
 Optimization completed.
    -- Stationary point found.
 Normal termination of Gaussian 09 at Tue Jan 28 09:18:53 2020.

 ----------------------------------------------------------------------
 #N Geom=AllCheck Guess=TCheck SCRF=Check GenChk RB3LYP/6-31G(2df,p) Fr
 eq
 ----------------------------------------------------------------------

 Structure from the checkpoint file:  "/scratch/puck/g09_fb856afa-42df-49f6-a271-cdb09b4f1eda/Gau-84011.chk"
 -----
 titel
 -----
 Charge =  0 Multiplicity = 1

                         Standard orientation:
 ---------------------------------------------------------------------
 Center     Atomic      Atomic             Coordinates (Angstroms)
 Number     Number       Type             X           Y           Z
 ---------------------------------------------------------------------
      1          6           0        2.316701   -0.889146    0.191471
      2          8           0        1.676390    0.037684   -0.677257
      3          6           0        0.463331    0.477441   -0.216260
      4          6           0        0.108105    1.201126    1.138118
      5          6           0       -1.226951    1.136501    0.330299
      6          6           0       -0.402028    1.543731   -0.933304
      7          6           0       -0.852108   -0.309229   -0.017770
      8          6           0       -1.503003   -1.450260   -0.636526
      9          8           0       -1.059558   -1.469543    0.750011
     10          1           0        1.669839   -1.746294    0.411860
     11          1           0        3.217599   -1.231642   -0.321328
     12          1           0        2.602806   -0.412657    1.139066
     13          1           0        0.153371    0.605661    2.051446
     14          1           0        0.537147    2.197342    1.269487
     15          1           0       -2.196768    1.518949    0.634506
     16          1           0       -0.813665    1.273066   -1.908321
     17          1           0        0.000308    2.558553   -0.922937
     18          1           0       -2.583780   -1.463963   -0.767738
     19          1           0       -0.945799   -2.105127   -1.304240
 ---------------------------------------------------------------------

 SCF Done:  E(RB3LYP) =  -423.098133283     A.U. after    1 cycles

 The electronic state is 1-A.
 Alpha  occ. eigenvalues --  -19.15003 -19.15003 -10.24905 -10.24222 -10.23228
 Alpha  occ. eigenvalues --  -10.22504 -10.20542 -10.19255 -10.18997  -1.07126
 Alpha  occ. eigenvalues --   -1.04430  -0.90887  -0.70534  -0.68221  -0.65702
 Alpha  occ. eigenvalues --   -0.63232  -0.61015  -0.53170  -0.51973  -0.48744
 Alpha  occ. eigenvalues --   -0.47909  -0.45585  -0.44176  -0.43024  -0.39674
 Alpha  occ. eigenvalues --   -0.37833  -0.35443  -0.34483  -0.33890  -0.33260
 Alpha  occ. eigenvalues --   -0.31125  -0.29714  -0.27386  -0.23802
 Alpha virt. eigenvalues --    0.08820   0.10691   0.11434   0.11740   0.12428
 Alpha virt. eigenvalues --    0.13714   0.13923   0.15310   0.15610   0.16097
 Alpha virt. eigenvalues --    0.16983   0.17356   0.18262   0.20412   0.21746

 Mulliken charges:
               1
     1  C   -0.270114
     2  O   -0.291522
     3  C    0.342353
     4  C   -0.302447
     5  C   -0.164111
     6  C   -0.283002
     7  C    0.475814
     8  C   -0.321624
     9  O   -0.309351
    10  H    0.135552
    11  H    0.127702
    12  H    0.116204
    13  H    0.112581
    14  H    0.096014
    15  H    0.091367
    16  H    0.099471
    17  H    0.101735
    18  H    0.120689
    19  H    0.122689
 Sum of Mulliken charges =   0.00000

 Dipole moment (field-independent basis, Debye):
    X=             -0.2540    Y=              0.4483    Z=             -0.3992  Tot=              0.6518
 Quadrupole moment (field-independent basis, Debye-Ang):
   XX=            -50.6720   YY=            -52.6298   ZZ=            -54.4029
   XY=             -2.4439   XZ=              4.0582   YZ=              3.0786

  Exact polarizability:  78.889   0.220  79.717   4.155   3.696  68.779
 Approx polarizability: 107.989   1.541 112.454   3.277   1.777 109.055

                      1                      2                      3
                      A                      A                      A
 Frequencies --     90.8823               159.7750               188.7002
 Red. masses --      2.8415                 1.7896                 1.6490
 Frc consts  --      0.0138                 0.0269                 0.0346
 IR Inten    --      3.7199                 1.9528                 2.8803

                      4                      5                      6
                      A                      A                      A
 Frequencies --    210.0835               235.6674               308.0358
 Red. masses --      3.3054                 2.7279                 3.8111
 Frc consts  --      0.0860                 0.0893                 0.2131
 IR Inten    --      1.4088                 5.8457                 0.8681

                      7                      8                      9
                      A                      A                      A
 Frequencies --    431.7759               447.8875               474.7240
 Red. masses --      3.5161                 3.4819                 2.3692
 Frc consts  --      0.3862                 0.4115                 0.3146
 IR Inten    --      2.2724                 0.5337                 2.8624

                     10                     11                     12
                      A                      A                      A
 Frequencies --    623.2061               638.1289               670.8448
 Red. masses --      3.7198                 3.1516                 3.3914
 Frc consts  --      0.8512                 0.7561                 0.8992
 IR Inten    --     10.4635                 7.6158                11.4926

                     13                     14                     15
                      A                      A                      A
 Frequencies --    757.5397               819.4063               890.6550
 Red. masses --      2.5798                 3.2014                 4.3169
 Frc consts  --      0.8722                 1.2665                 2.0176
 IR Inten    --      6.9793                 4.6830                20.2381

                     16                     17                     18
                      A                      A                      A
 Frequencies --    908.6468               944.4996               960.0424
 Red. masses --      2.0428                 2.0046                 1.8770
 Frc consts  --      0.9937                 1.0536                 1.0193
 IR Inten    --      6.4300                 7.8738                 3.9568

                     19                     20                     21
                      A                      A                      A
 Frequencies --    975.5606              1036.6053              1047.4886
 Red. masses --      1.7762                 1.3743                 1.4680
 Frc consts  --      0.9960                 0.8701                 0.9490
 IR Inten    --     19.8259                 1.3861                 5.6111

                     22                     23                     24
                      A                      A                      A
 Frequencies --   1059.1476              1071.6786              1108.4378
 Red. masses --      2.8425                 4.5674                 1.2991
 Frc consts  --      1.8787                 3.0906                 0.9404
 IR Inten    --     13.5164                83.8040                 1.5799

                     25                     26                     27
                      A                      A                      A
 Frequencies --   1114.0628              1139.4270              1159.1958
 Red. masses --      1.6006                 1.6907                 1.4686
 Frc consts  --      1.1704                 1.2933                 1.1627
 IR Inten    --      1.8136                 1.0662                 2.8029

                     28                     29                     30
                      A                      A                      A
 Frequencies --   1163.4028              1183.9830              1198.6848
 Red. masses --      1.4710                 1.2784                 1.5804
 Frc consts  --      1.1731                 1.0559                 1.3379
 IR Inten    --      2.1238                 2.7312                 2.5820

                     31                     32                     33
                      A                      A                      A
 Frequencies --   1203.1435              1227.5521              1241.0422
 Red. masses --      1.6713                 2.0621                 1.7859
 Frc consts  --      1.4254                 1.8308                 1.6206
 IR Inten    --      0.1890                 1.7695                 1.2046

                     34                     35                     36
                      A                      A                      A
 Frequencies --   1332.2083              1455.6097              1486.7738
 Red. masses --      4.0188                 1.5832                 1.1787
 Frc consts  --      4.2024                 1.9764                 1.5352
 IR Inten    --    244.0548                23.3603                 7.2502

                     37                     38                     39
                      A                      A                      A
 Frequencies --   1489.2916              1490.2496              1512.2560
 Red. masses --      1.0647                 1.0902                 1.0537
 Frc consts  --      1.3914                 1.4265                 1.4198
 IR Inten    --      3.6209                 1.5049                 9.8898

                     40                     41                     42
                      A                      A                      A
 Frequencies --   1525.8666              1568.6960              3006.8515
 Red. masses --      1.2390                 2.3096                 1.0366
 Frc consts  --      1.6997                 3.3486                 5.5218
 IR Inten    --      7.9118                39.1224                42.8563

                     43                     44                     45
                      A                      A                      A
 Frequencies --   3063.1812              3066.4260              3072.5684
 Red. masses --      1.0545                 1.0550                 1.0990
 Frc consts  --      5.8299                 5.8449                 6.1127
 IR Inten    --     39.1568                18.6697                37.3086

                     46                     47                     48
                      A                      A                      A
 Frequencies --   3087.9000              3130.0463              3135.0759
 Red. masses --      1.0510                 1.1017                 1.1120
 Frc consts  --      5.9046                 6.3591                 6.4397
 IR Inten    --     22.8556                24.7539                21.6139

                     49                     50                     51
                      A                      A                      A
 Frequencies --   3139.5450              3165.8193              3174.2769
 Red. masses --      1.1113                 1.0939                 1.1188
 Frc consts  --      6.4537                 6.4594                 6.6421
 IR Inten    --     29.4070                21.2277                18.7582

 - Thermochemistry -
 -------------------
 Temperature   298.150 Kelvin.  Pressure   1.00000 Atm.
 Atom     1 has atomic number  6 and mass  12.00000

 Molecular mass:   126.06808 amu.
 Principal axes and moments of inertia in atomic units:
                           1         2         3
     Eigenvalues --   804.063271014.092231362.52427
           X            0.99475  -0.09263   0.04345
           Y            0.09134   0.99534   0.03084
           Z           -0.04610  -0.02671   0.99858
 This molecule is an asymmetric top.
 Rotational symmetry number  1.
 Warning -- assumption of classical behavior for rotation
           may cause significant error
 Rotational temperatures (Kelvin)      0.10772     0.08541     0.06357
 Rotational constants (GHZ):           2.24453     1.77966     1.32456
 Zero-point vibrational energy     416255.9 (Joules/Mol)
                                   99.48755 (Kcal/Mol)
 Warning -- explicit consideration of   9 degrees of freedom as
           vibrations may cause significant error
 Vibrational temperatures:    130.76   229.88   271.50   302.26   339.07
          (Kelvin)            443.19   621.23   644.41   683.02   896.65
                              918.12   965.19  1089.93  1178.94  1281.45
                             1307.34  1358.92  1381.29  1403.61  1491.44
                             1507.10  1523.88  1541.90  1594.79  1602.89
                             1639.38  1667.82  1673.88  1703.49  1724.64
                             1731.05  1766.17  1785.58  1916.75  2094.30
                             2139.13  2142.76  2144.13  2175.80  2195.38
                             2257.00  4326.18  4407.23  4411.90  4420.74
                             4442.79  4503.43  4510.67  4517.10  4554.90
                             4567.07

 Zero-point correction=                           0.158544 (Hartree/Particle)
 Thermal correction to Energy=                    0.166751
 Thermal correction to Enthalpy=                  0.167696
 Thermal correction to Gibbs Free Energy=         0.125867
 Sum of electronic and zero-point Energies=           -422.939590
 Sum of electronic and thermal Energies=              -422.931382
 Sum of electronic and thermal Enthalpies=            -422.930438
 Sum of electronic and thermal Free Energies=         -422.972266

                     E (Thermal)             CV                S
                      KCal/Mol        Cal/Mol-Kelvin    Cal/Mol-Kelvin
 Total                  104.638             31.628             88.035
 Electronic               0.000              0.000              0.000
 Translational            0.889              2.981             40.409
 Rotational               0.889              2.981             28.498
 Vibrational            102.861             25.667             19.129
 Vibration     1          0.602              1.956              3.641
 Vibration     2          0.622              1.892              2.552
 Vibration     3          0.633              1.855              2.241
 Vibration     4          0.642              1.825              2.043
 Vibration     5          0.655              1.786              1.835
 Vibration     6          0.698              1.658              1.373
 Vibration     7          0.793              1.401              0.853
 Vibration     8          0.807              1.366              0.802
 Vibration     9          0.831              1.306              0.724

 Normal termination of Gaussian 09 at Tue Jan 28 10:08:44 2020.
