 Gaussian 09, Revision D.01,
 Gaussian 09:  ES64L-G09RevD.01 24-Apr-2013

 -----------------------------
 # b3lyp 6-31G(2df,p) opt Freq
 -----------------------------

 -----
 titel
 -----
 Symbolic Z-matrix:
 Charge =  0 Multiplicity = 1

 SCF Done:  E(RB3LYP) =  -423.205982218     A.U. after   14 cycles
 Optimization completed.
    -- Stationary point found.
 Normal termination of Gaussian 09 at Mon Jan 27 13:07:43 2020.

 ----------------------------------------------------------------------
 #N Geom=AllCheck Guess=TCheck SCRF=Check GenChk RB3LYP/6-31G(2df,p) Fr
 eq
 ----------------------------------------------------------------------

 Structure from the checkpoint file:  "/scratch/puck/g09_7f640489-23f2-48e0-912f-f1084ac1bc8e/Gau-47923.chk"
 -----
 titel
 -----
 Charge =  0 Multiplicity = 1

                         Standard orientation:
 ---------------------------------------------------------------------
 Center     Atomic      Atomic             Coordinates (Angstroms)
 Number     Number       Type             X           Y           Z
 ---------------------------------------------------------------------
      1          8           0        2.436039   -0.209727    0.616322
      2          6           0        1.440919   -0.129437   -0.067584
      3          6           0        0.921807    1.212411   -0.574959
      4          6           0       -0.345376    1.718640    0.157015
      5          6           0       -1.460926    0.670845    0.241682
      6          6           0       -1.183525   -0.541494    1.158268
      7          6           0       -0.847269   -1.261874   -0.163408
      8          6           0        0.648928   -1.376834   -0.466327
      9          8           0       -1.467527   -0.195590   -0.926849
     10          1           0        1.726300    1.942715   -0.462655
     11          1           0        0.677799    1.109462   -1.636739
     12          1           0       -0.092126    2.043978    1.173299
     13          1           0       -0.709504    2.603154   -0.376215
     14          1           0       -2.434493    1.152492    0.378053
     15          1           0       -0.384703   -0.449404    1.897346
     16          1           0       -2.084485   -0.923302    1.640195
     17          1           0       -1.345487   -2.218725   -0.348566
     18          1           0        1.083441   -2.233459    0.057422
     19          1           0        0.767805   -1.537912   -1.546050
 ---------------------------------------------------------------------

 SCF Done:  E(RB3LYP) =  -423.205982218     A.U. after    1 cycles

 The electronic state is 1-A.
 Alpha  occ. eigenvalues --  -19.13797 -19.12754 -10.26743 -10.24601 -10.24247
 Alpha  occ. eigenvalues --  -10.19626 -10.19312 -10.19081 -10.18975  -1.04616
 Alpha  occ. eigenvalues --   -1.03644  -0.79956  -0.77686  -0.74297  -0.66872
 Alpha  occ. eigenvalues --   -0.63437  -0.54321  -0.52992  -0.50475  -0.47955
 Alpha  occ. eigenvalues --   -0.47220  -0.46400  -0.42658  -0.42279  -0.41855
 Alpha  occ. eigenvalues --   -0.39832  -0.37361  -0.36645  -0.35564  -0.33811
 Alpha  occ. eigenvalues --   -0.31925  -0.31096  -0.25726  -0.23920
 Alpha virt. eigenvalues --   -0.01565   0.08071   0.09332   0.10404   0.11442
 Alpha virt. eigenvalues --    0.12907   0.13553   0.14458   0.15605   0.16808
 Alpha virt. eigenvalues --    0.17694   0.18449   0.20419   0.20652   0.22191

 Mulliken charges:
               1
     1  O   -0.310196
     2  C    0.370570
     3  C   -0.276187
     4  C   -0.235110
     5  C    0.116653
     6  C   -0.285223
     7  C    0.102997
     8  C   -0.301892
     9  O   -0.295123
    10  H    0.115891
    11  H    0.124074
    12  H    0.115598
    13  H    0.111881
    14  H    0.081604
    15  H    0.121066
    16  H    0.112266
    17  H    0.086198
    18  H    0.118906
    19  H    0.126027
 Sum of Mulliken charges =   0.00000

 Dipole moment (field-independent basis, Debye):
    X=             -1.9012    Y=              0.1803    Z=              0.1051  Tot=              1.9127
 Quadrupole moment (field-independent basis, Debye-Ang):
   XX=            -61.2014   YY=            -48.7502   ZZ=            -53.7785
   XY=              0.4497   XZ=             -6.3413   YZ=              0.2986

  Exact polarizability:  78.133  -0.933  78.870   0.185   0.127  64.688
 Approx polarizability: 113.705  -2.824 108.409   9.419   0.259 104.738

                      1                      2                      3
                      A                      A                      A
 Frequencies --     88.5363               158.8834               282.3056
 Red. masses --      5.5844                 2.4562                 4.5973
 Frc consts  --      0.0258                 0.0365                 0.2159
 IR Inten    --      5.3480                 2.6415                 2.3903

                      4                      5                      6
                      A                      A                      A
 Frequencies --    303.8011               349.9761               379.2905
 Red. masses --      2.3466                 2.9379                 2.2200
 Frc consts  --      0.1276                 0.2120                 0.1882
 IR Inten    --      1.7293                 0.1519                 4.6841

                      7                      8                      9
                      A                      A                      A
 Frequencies --    486.1622               496.3375               560.8891
 Red. masses --      2.5036                 3.4102                 3.2392
 Frc consts  --      0.3486                 0.4950                 0.6004
 IR Inten    --      2.5788                10.7463                 3.0139

                     10                     11                     12
                      A                      A                      A
 Frequencies --    667.2273               747.5349               795.4427
 Red. masses --      3.9354                 1.9683                 2.1077
 Frc consts  --      1.0323                 0.6480                 0.7858
 IR Inten    --      0.3152                 2.1273                 4.0240

                     13                     14                     15
                      A                      A                      A
 Frequencies --    825.8705               863.5647               874.4152
 Red. masses --      2.6555                 2.2183                 2.7015
 Frc consts  --      1.0671                 0.9747                 1.2170
 IR Inten    --      1.3575                 2.8697                11.0452

                     16                     17                     18
                      A                      A                      A
 Frequencies --    899.7673               935.4120               945.3444
 Red. masses --      4.4913                 2.6708                 2.3503
 Frc consts  --      2.1423                 1.3769                 1.2375
 IR Inten    --      1.5777                10.1134                31.3114

                     19                     20                     21
                      A                      A                      A
 Frequencies --    966.5661              1034.1271              1048.4906
 Red. masses --      2.2040                 2.8970                 1.5678
 Frc consts  --      1.2132                 1.8253                 1.0155
 IR Inten    --     12.9383                51.8021                 1.1837

                     22                     23                     24
                      A                      A                      A
 Frequencies --   1068.4473              1117.1887              1123.6034
 Red. masses --      1.9601                 2.2772                 1.4272
 Frc consts  --      1.3183                 1.6746                 1.0616
 IR Inten    --      0.2793                 3.9730                13.6552

                     25                     26                     27
                      A                      A                      A
 Frequencies --   1144.3607              1197.8987              1208.9062
 Red. masses --      1.4597                 1.1936                 1.6445
 Frc consts  --      1.1262                 1.0092                 1.4160
 IR Inten    --     15.2997                14.3130                33.8670

                     28                     29                     30
                      A                      A                      A
 Frequencies --   1249.7653              1262.3057              1274.3243
 Red. masses --      1.5567                 1.5391                 1.3132
 Frc consts  --      1.4326                 1.4450                 1.2565
 IR Inten    --      3.1074                 7.9275                 0.5363

                     31                     32                     33
                      A                      A                      A
 Frequencies --   1298.1691              1320.7125              1357.1204
 Red. masses --      1.5306                 1.4724                 1.4970
 Frc consts  --      1.5197                 1.5131                 1.6244
 IR Inten    --      8.9725                 5.2656                 5.1739

                     34                     35                     36
                      A                      A                      A
 Frequencies --   1366.7428              1377.1882              1388.5347
 Red. masses --      1.4137                 1.4710                 1.4405
 Frc consts  --      1.5559                 1.6438                 1.6363
 IR Inten    --      5.8963                13.0943                 7.5443

                     37                     38                     39
                      A                      A                      A
 Frequencies --   1448.8785              1469.1576              1485.3237
 Red. masses --      1.1000                 1.0928                 1.1036
 Frc consts  --      1.3605                 1.3897                 1.4345
 IR Inten    --      7.3282                 6.2677                 6.1872

                     40                     41                     42
                      A                      A                      A
 Frequencies --   1495.3855              1806.0623              3028.3974
 Red. masses --      1.1169                10.9515                 1.0631
 Frc consts  --      1.4715                21.0470                 5.7445
 IR Inten    --      6.3126               160.0543                 5.4212

                     43                     44                     45
                      A                      A                      A
 Frequencies --   3034.2365              3053.0139              3056.4845
 Red. masses --      1.0622                 1.0840                 1.0857
 Frc consts  --      5.7619                 5.9529                 5.9758
 IR Inten    --     11.6341                69.4546                36.8092

                     46                     47                     48
                      A                      A                      A
 Frequencies --   3057.6684              3077.1420              3079.6377
 Red. masses --      1.0624                 1.0627                 1.0993
 Frc consts  --      5.8524                 5.9288                 6.1427
 IR Inten    --     11.6813                19.2550                27.5968

                     49                     50                     51
                      A                      A                      A
 Frequencies --   3098.8805              3119.9187              3134.2263
 Red. masses --      1.0986                 1.1049                 1.1082
 Frc consts  --      6.2160                 6.3365                 6.4140
 IR Inten    --     14.0877                13.0405                20.6773

 - Thermochemistry -
 -------------------
 Temperature   298.150 Kelvin.  Pressure   1.00000 Atm.
 Atom     1 has atomic number  8 and mass  15.99491

 Molecular mass:   126.06808 amu.
 Principal axes and moments of inertia in atomic units:
                           1         2         3
     Eigenvalues --   690.048771061.849791344.64432
           X            0.99916   0.00660  -0.04051
           Y           -0.00671   0.99997  -0.00280
           Z            0.04049   0.00307   0.99918
 This molecule is an asymmetric top.
 Rotational symmetry number  1.
 Warning -- assumption of classical behavior for rotation
           may cause significant error
 Rotational temperatures (Kelvin)      0.12552     0.08157     0.06441
 Rotational constants (GHZ):           2.61538     1.69962     1.34217
 Zero-point vibrational energy     424133.7 (Joules/Mol)
                                  101.37040 (Kcal/Mol)
 Warning -- explicit consideration of   9 degrees of freedom as
           vibrations may cause significant error
 Vibrational temperatures:    127.38   228.60   406.17   437.10   503.54
          (Kelvin)            545.71   699.48   714.12   806.99   959.99
                             1075.53  1144.46  1188.24  1242.48  1258.09
                             1294.56  1345.85  1360.14  1390.67  1487.88
                             1508.54  1537.26  1607.38  1616.61  1646.48
                             1723.51  1739.34  1798.13  1816.17  1833.47
                             1867.77  1900.21  1952.59  1966.44  1981.46
                             1997.79  2084.61  2113.79  2137.05  2151.52
                             2598.52  4357.18  4365.58  4392.60  4397.59
                             4399.30  4427.32  4430.91  4458.59  4488.86
                             4509.45

 Zero-point correction=                           0.161544 (Hartree/Particle)
 Thermal correction to Energy=                    0.168946
 Thermal correction to Enthalpy=                  0.169890
 Thermal correction to Gibbs Free Energy=         0.129688
 Sum of electronic and zero-point Energies=           -423.044438
 Sum of electronic and thermal Energies=              -423.037036
 Sum of electronic and thermal Enthalpies=            -423.036092
 Sum of electronic and thermal Free Energies=         -423.076294

                     E (Thermal)             CV                S
                      KCal/Mol        Cal/Mol-Kelvin    Cal/Mol-Kelvin
 Total                  106.015             29.490             84.613
 Electronic               0.000              0.000              0.000
 Translational            0.889              2.981             40.409
 Rotational               0.889              2.981             28.379
 Vibrational            104.238             23.528             15.825
 Vibration     1          0.601              1.957              3.692
 Vibration     2          0.621              1.893              2.563
 Vibration     3          0.681              1.706              1.520
 Vibration     4          0.695              1.666              1.396
 Vibration     5          0.727              1.575              1.166
 Vibration     6          0.749              1.514              1.042
 Vibration     7          0.842              1.281              0.694
 Vibration     8          0.852              1.258              0.667
 Vibration     9          0.917              1.116              0.522

 Optimization completed.
    -- Stationary point found.
 Normal termination of Gaussian 09 at Mon Jan 27 13:54:16 2020.
