 Gaussian 09, Revision D.01,
 Gaussian 09:  ES64L-G09RevD.01 24-Apr-2013

 -----------------------------
 # b3lyp 6-31G(2df,p) opt Freq
 -----------------------------

 -----
 titel
 -----
 Symbolic Z-matrix:
 Charge =  0 Multiplicity = 1

 SCF Done:  E(RB3LYP) =  -423.205639336     A.U. after   14 cycles
 Optimization completed.
    -- Stationary point found.
 Normal termination of Gaussian 09 at Tue Jan 28 03:04:17 2020.

 ----------------------------------------------------------------------
 #N Geom=AllCheck Guess=TCheck SCRF=Check GenChk RB3LYP/6-31G(2df,p) Fr
 eq
 ----------------------------------------------------------------------

 Structure from the checkpoint file:  "/scratch/puck/g09_df67767c-9a8c-452c-89c7-71a6b18c5f84/Gau-88233.chk"
 -----
 titel
 -----
 Charge =  0 Multiplicity = 1

                         Standard orientation:
 ---------------------------------------------------------------------
 Center     Atomic      Atomic             Coordinates (Angstroms)
 Number     Number       Type             X           Y           Z
 ---------------------------------------------------------------------
      1          8           0        2.635988   -0.935639   -0.251158
      2          6           0        1.398612   -0.289718   -0.439040
      3          6           0        1.348615    1.261402   -0.350593
      4          6           0        0.147517    1.147646    0.628809
      5          6           0       -1.257466    1.205534    0.007402
      6          6           0       -1.756187   -0.244312   -0.135700
      7          8           0       -2.724854   -0.585940   -0.761941
      8          6           0       -0.819194   -1.172748    0.649667
      9          6           0        0.474152   -0.384811    0.800167
     10          1           0        3.157658   -0.834276   -1.053832
     11          1           0        0.893516   -0.662481   -1.343783
     12          1           0        2.243437    1.637328    0.152735
     13          1           0        1.194313    1.821743   -1.277466
     14          1           0        0.221893    1.765389    1.524311
     15          1           0       -1.970456    1.737745    0.647769
     16          1           0       -1.295859    1.699004   -0.968768
     17          1           0       -1.287822   -1.365044    1.624613
     18          1           0       -0.717925   -2.137096    0.144754
     19          1           0        1.055889   -0.627631    1.690179
 ---------------------------------------------------------------------

 SCF Done:  E(RB3LYP) =  -423.205639336     A.U. after    1 cycles

 The electronic state is 1-A.
 Alpha  occ. eigenvalues --  -19.14168 -19.12719 -10.26613 -10.23576 -10.19498
 Alpha  occ. eigenvalues --  -10.19022 -10.18970 -10.18830 -10.18303  -1.03851
 Alpha  occ. eigenvalues --   -1.02456  -0.86478  -0.75908  -0.73318  -0.63813
 Alpha  occ. eigenvalues --   -0.63275  -0.54128  -0.53827  -0.52378  -0.47366
 Alpha  occ. eigenvalues --   -0.46376  -0.45358  -0.42847  -0.41919  -0.40653
 Alpha  occ. eigenvalues --   -0.38758  -0.37392  -0.35407  -0.34290  -0.33522
 Alpha  occ. eigenvalues --   -0.31435  -0.29889  -0.26235  -0.23754
 Alpha virt. eigenvalues --   -0.01610   0.06863   0.08600   0.10022   0.11847
 Alpha virt. eigenvalues --    0.13235   0.13855   0.14479   0.15729   0.16886
 Alpha virt. eigenvalues --    0.18214   0.19334   0.20803   0.21327   0.23167

 Mulliken charges:
               1
     1  O   -0.433938
     2  C    0.135113
     3  C   -0.276209
     4  C   -0.039082
     5  C   -0.332630
     6  C    0.385062
     7  O   -0.306742
     8  C   -0.342717
     9  C   -0.024573
    10  H    0.283548
    11  H    0.067901
    12  H    0.108135
    13  H    0.094526
    14  H    0.076308
    15  H    0.132525
    16  H    0.129086
    17  H    0.127002
    18  H    0.131473
    19  H    0.085213
 Sum of Mulliken charges =   0.00000

 Dipole moment (field-independent basis, Debye):
    X=              2.0852    Y=              1.3960    Z=              0.3348  Tot=              2.5316
 Quadrupole moment (field-independent basis, Debye-Ang):
   XX=            -60.8564   YY=            -53.2954   ZZ=            -50.2852
   XY=             -1.2299   XZ=             -8.3311   YZ=              0.0081

  Exact polarizability:  83.711   1.059  73.682   0.839  -0.878  66.379
 Approx polarizability: 114.820   1.873 105.591   6.297   0.303 104.706

                      1                      2                      3
                      A                      A                      A
 Frequencies --     43.0190                71.5176               238.1885
 Red. masses --      3.2224                 3.7941                 1.7750
 Frc consts  --      0.0035                 0.0114                 0.0593
 IR Inten    --      3.7702                 1.4166                19.1871

                      4                      5                      6
                      A                      A                      A
 Frequencies --    280.1525               315.4334               343.8639
 Red. masses --      1.4542                 2.3371                 3.0620
 Frc consts  --      0.0672                 0.1370                 0.2133
 IR Inten    --     84.3532                 2.0967                 9.8644

                      7                      8                      9
                      A                      A                      A
 Frequencies --    446.0498               450.6136               469.6022
 Red. masses --      2.2936                 2.9486                 3.4472
 Frc consts  --      0.2689                 0.3528                 0.4479
 IR Inten    --      2.4059                 2.6707                10.1384

                     10                     11                     12
                      A                      A                      A
 Frequencies --    574.8925               635.1313               731.1954
 Red. masses --      4.1968                 3.2863                 2.0867
 Frc consts  --      0.8172                 0.7811                 0.6573
 IR Inten    --      0.2199                 2.6392                 0.8462

                     13                     14                     15
                      A                      A                      A
 Frequencies --    743.4037               773.8517               836.2491
 Red. masses --      3.5561                 3.6007                 1.8810
 Frc consts  --      1.1579                 1.2704                 0.7750
 IR Inten    --      2.8062                 6.0192                 0.2722

                     16                     17                     18
                      A                      A                      A
 Frequencies --    850.4796               892.5087               925.3794
 Red. masses --      2.3998                 2.4551                 2.0118
 Frc consts  --      1.0227                 1.1522                 1.0150
 IR Inten    --      1.6046                 1.7197                 9.5412

                     19                     20                     21
                      A                      A                      A
 Frequencies --    971.2532              1020.6763              1037.2074
 Red. masses --      1.6428                 2.0688                 1.7189
 Frc consts  --      0.9130                 1.2698                 1.0895
 IR Inten    --      9.9345                 4.4164                 3.1012

                     22                     23                     24
                      A                      A                      A
 Frequencies --   1076.7366              1105.3761              1130.6860
 Red. masses --      1.6892                 2.2356                 2.6851
 Frc consts  --      1.1538                 1.6094                 2.0225
 IR Inten    --     50.6480                35.6770                77.0477

                     25                     26                     27
                      A                      A                      A
 Frequencies --   1135.9079              1166.4501              1169.7809
 Red. masses --      1.9071                 2.0251                 1.4544
 Frc consts  --      1.4498                 1.6234                 1.1725
 IR Inten    --      5.4491                15.4077                 4.2676

                     28                     29                     30
                      A                      A                      A
 Frequencies --   1214.3792              1232.8490              1246.2981
 Red. masses --      1.1988                 1.3056                 1.5672
 Frc consts  --      1.0416                 1.1691                 1.4343
 IR Inten    --      8.3352                 5.7794                 1.9473

                     31                     32                     33
                      A                      A                      A
 Frequencies --   1263.2883              1274.1196              1291.1998
 Red. masses --      1.5104                 1.6170                 1.5742
 Frc consts  --      1.4202                 1.5466                 1.5463
 IR Inten    --      1.8271                 3.3243                 6.8383

                     34                     35                     36
                      A                      A                      A
 Frequencies --   1322.1446              1329.1153              1350.7726
 Red. masses --      1.4777                 1.3986                 1.5046
 Frc consts  --      1.5219                 1.4556                 1.6175
 IR Inten    --     62.3977                 4.5014                 0.2133

                     37                     38                     39
                      A                      A                      A
 Frequencies --   1436.8646              1442.5720              1448.3871
 Red. masses --      1.3723                 1.1131                 1.0920
 Frc consts  --      1.6693                 1.3648                 1.3497
 IR Inten    --      7.3080                11.6604                 1.4896

                     40                     41                     42
                      A                      A                      A
 Frequencies --   1481.7517              1844.1479              2974.5017
 Red. masses --      1.1440                12.6941                 1.0843
 Frc consts  --      1.4799                25.4357                 5.6525
 IR Inten    --      4.4982               217.1258                43.7689

                     43                     44                     45
                      A                      A                      A
 Frequencies --   3025.9682              3045.4124              3051.0145
 Red. masses --      1.0673                 1.0635                 1.0587
 Frc consts  --      5.7580                 5.8116                 5.8065
 IR Inten    --     12.6147                12.6263                32.4076

                     46                     47                     48
                      A                      A                      A
 Frequencies --   3085.2637              3094.5944              3100.5828
 Red. masses --      1.0942                 1.0944                 1.0944
 Frc consts  --      6.1368                 6.1750                 6.1986
 IR Inten    --     10.3888                18.3360                 6.0326

                     49                     50                     51
                      A                      A                      A
 Frequencies --   3107.0480              3113.1232              3814.7856
 Red. masses --      1.0922                 1.1013                 1.0661
 Frc consts  --      6.2122                 6.2885                 9.1408
 IR Inten    --      2.8964                44.0901                22.9854

 - Thermochemistry -
 -------------------
 Temperature   298.150 Kelvin.  Pressure   1.00000 Atm.
 Atom     1 has atomic number  8 and mass  15.99491

 Molecular mass:   126.06808 amu.
 Principal axes and moments of inertia in atomic units:
                           1         2         3
     Eigenvalues --   573.123001478.623541726.61449
           X            0.99984  -0.00017  -0.01772
           Y           -0.00026   0.99971  -0.02423
           Z            0.01772   0.02424   0.99955
 This molecule is an asymmetric top.
 Rotational symmetry number  1.
 Warning -- assumption of classical behavior for rotation
           may cause significant error
 Rotational temperatures (Kelvin)      0.15113     0.05858     0.05016
 Rotational constants (GHZ):           3.14896     1.22055     1.04525
 Zero-point vibrational energy     418847.2 (Joules/Mol)
                                  100.10689 (Kcal/Mol)
 Warning -- explicit consideration of  10 degrees of freedom as
           vibrations may cause significant error
 Vibrational temperatures:     61.89   102.90   342.70   403.08   453.84
          (Kelvin)            494.74   641.77   648.33   675.65   827.14
                              913.81  1052.03  1069.59  1113.40  1203.17
                             1223.65  1284.12  1331.41  1397.41  1468.52
                             1492.31  1549.18  1590.39  1626.80  1634.32
                             1678.26  1683.05  1747.22  1773.79  1793.14
                             1817.59  1833.17  1857.75  1902.27  1912.30
                             1943.46  2067.33  2075.54  2083.90  2131.91
                             2653.31  4279.64  4353.69  4381.66  4389.72
                             4439.00  4452.43  4461.04  4470.34  4479.08
                             5488.62

 Zero-point correction=                           0.159530 (Hartree/Particle)
 Thermal correction to Energy=                    0.167714
 Thermal correction to Enthalpy=                  0.168658
 Thermal correction to Gibbs Free Energy=         0.125978
 Sum of electronic and zero-point Energies=           -423.046109
 Sum of electronic and thermal Energies=              -423.037926
 Sum of electronic and thermal Enthalpies=            -423.036982
 Sum of electronic and thermal Free Energies=         -423.079661

                     E (Thermal)             CV                S
                      KCal/Mol        Cal/Mol-Kelvin    Cal/Mol-Kelvin
 Total                  105.242             31.528             89.827
 Electronic               0.000              0.000              0.000
 Translational            0.889              2.981             40.409
 Rotational               0.889              2.981             28.772
 Vibrational            103.464             25.566             20.646
 Vibration     1          0.595              1.980              5.115
 Vibration     2          0.598              1.968              4.111
 Vibration     3          0.656              1.782              1.816
 Vibration     4          0.680              1.710              1.533
 Vibration     5          0.703              1.644              1.334
 Vibration     6          0.723              1.588              1.194
 Vibration     7          0.805              1.370              0.808
 Vibration     8          0.809              1.360              0.794
 Vibration     9          0.827              1.317              0.739
 Vibration    10          0.931              1.086              0.495

 Normal termination of Gaussian 09 at Tue Jan 28 03:47:16 2020.
