 Gaussian 09, Revision D.01,
 Gaussian 09:  ES64L-G09RevD.01 24-Apr-2013

 -----------------------------
 # b3lyp 6-31G(2df,p) opt Freq
 -----------------------------

 -----
 titel
 -----
 Symbolic Z-matrix:
 Charge =  0 Multiplicity = 1

 SCF Done:  E(RB3LYP) =  -423.196000663     A.U. after   14 cycles
 Optimization completed.
    -- Stationary point found.
 Normal termination of Gaussian 09 at Tue Jan 28 00:38:54 2020.

 ----------------------------------------------------------------------
 #N Geom=AllCheck Guess=TCheck SCRF=Check GenChk RB3LYP/6-31G(2df,p) Fr
 eq
 ----------------------------------------------------------------------

 Structure from the checkpoint file:  "/scratch/puck/g09_d32bacb0-8e74-4fac-aacc-4b3a8b74d81b/Gau-71495.chk"
 -----
 titel
 -----
 Charge =  0 Multiplicity = 1

                         Standard orientation:
 ---------------------------------------------------------------------
 Center     Atomic      Atomic             Coordinates (Angstroms)
 Number     Number       Type             X           Y           Z
 ---------------------------------------------------------------------
      1          6           0        2.317999   -0.805743   -0.492445
      2          6           0        1.063992   -0.830698    0.390401
      3          6           0        0.809947    0.547900    1.044822
      4          6           0       -0.010136    1.313201    0.005041
      5          8           0        0.016633    2.494300   -0.219646
      6          6           0       -0.867656    0.274107   -0.731433
      7          8           0       -2.012108   -0.067798    0.092485
      8          6           0       -1.499869   -1.400621    0.327228
      9          6           0       -0.206484   -1.098604   -0.454888
     10          1           0        3.211737   -0.585153    0.099400
     11          1           0        2.469393   -1.768898   -0.990252
     12          1           0        2.241179   -0.036695   -1.270716
     13          1           0        1.179953   -1.611518    1.150177
     14          1           0        0.193907    0.449499    1.947264
     15          1           0        1.715671    1.092255    1.318359
     16          1           0       -1.151294    0.579247   -1.741822
     17          1           0       -1.378689   -1.615450    1.396685
     18          1           0       -2.152206   -2.161763   -0.117060
     19          1           0       -0.012608   -1.750791   -1.307097
 ---------------------------------------------------------------------

 SCF Done:  E(RB3LYP) =  -423.196000663     A.U. after    1 cycles

 The electronic state is 1-A.
 Alpha  occ. eigenvalues --  -19.14666 -19.13632 -10.26753 -10.23989 -10.23903
 Alpha  occ. eigenvalues --  -10.20698 -10.20353 -10.19285 -10.18792  -1.05475
 Alpha  occ. eigenvalues --   -1.03907  -0.84034  -0.73485  -0.73112  -0.69924
 Alpha  occ. eigenvalues --   -0.61888  -0.56590  -0.54054  -0.50785  -0.49028
 Alpha  occ. eigenvalues --   -0.46516  -0.44195  -0.43577  -0.42450  -0.41444
 Alpha  occ. eigenvalues --   -0.40224  -0.38930  -0.36344  -0.35196  -0.34056
 Alpha  occ. eigenvalues --   -0.33341  -0.30734  -0.27884  -0.23129
 Alpha virt. eigenvalues --   -0.03054   0.07801   0.09077   0.10182   0.10700
 Alpha virt. eigenvalues --    0.13114   0.13657   0.14720   0.15418   0.16283
 Alpha virt. eigenvalues --    0.17251   0.17914   0.19791   0.20353   0.21097

 Mulliken charges:
               1
     1  C   -0.403272
     2  C   -0.009826
     3  C   -0.339243
     4  C    0.408593
     5  O   -0.309689
     6  C    0.024646
     7  O   -0.294700
     8  C   -0.094810
     9  C   -0.069472
    10  H    0.121746
    11  H    0.117975
    12  H    0.125173
    13  H    0.078883
    14  H    0.136204
    15  H    0.123637
    16  H    0.090389
    17  H    0.103615
    18  H    0.108046
    19  H    0.082104
 Sum of Mulliken charges =   0.00000

 Dipole moment (field-independent basis, Debye):
    X=              1.5473    Y=             -3.5874    Z=              0.1775  Tot=              3.9108
 Quadrupole moment (field-independent basis, Debye-Ang):
   XX=            -55.6470   YY=            -59.3881   ZZ=            -50.5429
   XY=              1.6097   XZ=              0.9226   YZ=              0.7995

  Exact polarizability:  75.976   3.004  79.928   1.613  -2.058  66.834
 Approx polarizability: 103.325   3.308 121.283   1.066  -6.605 101.556

                      1                      2                      3
                      A                      A                      A
 Frequencies --     86.1477               105.9130               220.8935
 Red. masses --      4.7755                 3.0465                 2.3235
 Frc consts  --      0.0209                 0.0201                 0.0668
 IR Inten    --      2.9748                 1.0822                 2.7707

                      4                      5                      6
                      A                      A                      A
 Frequencies --    227.9246               257.8182               335.4041
 Red. masses --      2.4330                 1.4087                 2.3053
 Frc consts  --      0.0745                 0.0552                 0.1528
 IR Inten    --      2.5523                 0.4110                 0.2181

                      7                      8                      9
                      A                      A                      A
 Frequencies --    405.0142               446.4653               528.8008
 Red. masses --      3.2709                 3.1933                 3.2767
 Frc consts  --      0.3161                 0.3750                 0.5398
 IR Inten    --      2.5632                 4.1229                 6.3443

                     10                     11                     12
                      A                      A                      A
 Frequencies --    628.9781               678.3434               775.0691
 Red. masses --      3.7651                 3.6651                 2.6307
 Frc consts  --      0.8776                 0.9937                 0.9311
 IR Inten    --      2.5821                 3.2049                 2.0743

                     13                     14                     15
                      A                      A                      A
 Frequencies --    786.0841               869.4714               872.5264
 Red. masses --      2.6626                 3.4201                 2.2625
 Frc consts  --      0.9694                 1.5233                 1.0149
 IR Inten    --      4.3984                 2.4560                11.0025

                     16                     17                     18
                      A                      A                      A
 Frequencies --    897.1950               931.8958               972.0382
 Red. masses --      2.0791                 1.7396                 3.2706
 Frc consts  --      0.9860                 0.8901                 1.8207
 IR Inten    --      7.5091                 0.9645                14.7137

                     19                     20                     21
                      A                      A                      A
 Frequencies --    999.4841              1023.3267              1027.0022
 Red. masses --      1.4823                 5.8106                 2.2873
 Frc consts  --      0.8724                 3.5851                 1.4214
 IR Inten    --      1.4505                62.5784                15.0997

                     22                     23                     24
                      A                      A                      A
 Frequencies --   1059.8787              1085.2429              1136.7982
 Red. masses --      2.1892                 1.6336                 1.4182
 Frc consts  --      1.4489                 1.1336                 1.0798
 IR Inten    --      3.9816                 0.8769                 3.8017

                     25                     26                     27
                      A                      A                      A
 Frequencies --   1157.3647              1176.8885              1193.3121
 Red. masses --      1.2111                 3.5108                 1.7683
 Frc consts  --      0.9558                 2.8650                 1.4836
 IR Inten    --      0.6134                34.8633                 0.8681

                     28                     29                     30
                      A                      A                      A
 Frequencies --   1217.9466              1247.6823              1263.8741
 Red. masses --      1.7133                 1.5052                 1.5644
 Frc consts  --      1.4974                 1.3805                 1.4723
 IR Inten    --      0.0682                 2.2495                 2.7843

                     31                     32                     33
                      A                      A                      A
 Frequencies --   1289.0482              1316.3539              1329.3754
 Red. masses --      1.3352                 1.3332                 1.6006
 Frc consts  --      1.3072                 1.3611                 1.6666
 IR Inten    --      1.3467                 1.7617                 5.3853

                     34                     35                     36
                      A                      A                      A
 Frequencies --   1355.1339              1372.4702              1416.4618
 Red. masses --      1.4385                 1.5718                 1.2243
 Frc consts  --      1.5564                 1.7444                 1.4473
 IR Inten    --      1.5986                 2.2234                 4.0792

                     37                     38                     39
                      A                      A                      A
 Frequencies --   1455.0979              1496.8598              1499.6927
 Red. masses --      1.0914                 1.0514                 1.0447
 Frc consts  --      1.3614                 1.3880                 1.3844
 IR Inten    --      9.5183                 1.5025                 6.0210

                     40                     41                     42
                      A                      A                      A
 Frequencies --   1523.1832              1851.5720              3012.5276
 Red. masses --      1.0964                12.2511                 1.0558
 Frc consts  --      1.4987                24.7461                 5.6453
 IR Inten    --      1.0268               194.6112                66.5020

                     43                     44                     45
                      A                      A                      A
 Frequencies --   3026.6639              3037.1340              3047.9101
 Red. masses --      1.0378                 1.0757                 1.0744
 Frc consts  --      5.6014                 5.8459                 5.8806
 IR Inten    --     15.5064                16.6393                12.7379

                     46                     47                     48
                      A                      A                      A
 Frequencies --   3057.2338              3082.3683              3094.0050
 Red. masses --      1.1094                 1.0881                 1.0995
 Frc consts  --      6.1094                 6.0911                 6.2015
 IR Inten    --     37.1416                23.7222                36.5045

                     49                     50                     51
                      A                      A                      A
 Frequencies --   3103.6950              3108.0729              3119.8816
 Red. masses --      1.0954                 1.0957                 1.0968
 Frc consts  --      6.2170                 6.2362                 6.2899
 IR Inten    --      4.7257                47.3012                11.5997

 - Thermochemistry -
 -------------------
 Temperature   298.150 Kelvin.  Pressure   1.00000 Atm.
 Atom     1 has atomic number  6 and mass  12.00000

 Molecular mass:   126.06808 amu.
 Principal axes and moments of inertia in atomic units:
                           1         2         3
     Eigenvalues --   864.05337 950.175891491.33777
           X            0.99986  -0.01628  -0.00345
           Y            0.01631   0.99982   0.00948
           Z            0.00329  -0.00954   0.99995
 This molecule is an asymmetric top.
 Rotational symmetry number  1.
 Warning -- assumption of classical behavior for rotation
           may cause significant error
 Rotational temperatures (Kelvin)      0.10024     0.09116     0.05808
 Rotational constants (GHZ):           2.08869     1.89938     1.21015
 Zero-point vibrational energy     419946.2 (Joules/Mol)
                                  100.36955 (Kcal/Mol)
 Warning -- explicit consideration of   9 degrees of freedom as
           vibrations may cause significant error
 Vibrational temperatures:    123.95   152.38   317.82   327.93   370.94
          (Kelvin)            482.57   582.72   642.36   760.83   904.96
                              975.98  1115.15  1131.00  1250.97  1255.37
                             1290.86  1340.79  1398.54  1438.03  1472.34
                             1477.63  1524.93  1561.42  1635.60  1665.19
                             1693.28  1716.91  1752.35  1795.13  1818.43
                             1854.65  1893.94  1912.67  1949.73  1974.68
                             2037.97  2093.56  2153.64  2157.72  2191.52
                             2664.00  4334.35  4354.69  4369.75  4385.26
                             4398.67  4434.83  4451.58  4465.52  4471.82
                             4488.81

 Zero-point correction=                           0.159949 (Hartree/Particle)
 Thermal correction to Energy=                    0.167997
 Thermal correction to Enthalpy=                  0.168941
 Thermal correction to Gibbs Free Energy=         0.127158
 Sum of electronic and zero-point Energies=           -423.036052
 Sum of electronic and thermal Energies=              -423.028004
 Sum of electronic and thermal Enthalpies=            -423.027059
 Sum of electronic and thermal Free Energies=         -423.068843

                     E (Thermal)             CV                S
                      KCal/Mol        Cal/Mol-Kelvin    Cal/Mol-Kelvin
 Total                  105.420             30.737             87.940
 Electronic               0.000              0.000              0.000
 Translational            0.889              2.981             40.409
 Rotational               0.889              2.981             28.595
 Vibrational            103.642             24.776             18.937
 Vibration     1          0.601              1.959              3.746
 Vibration     2          0.605              1.945              3.342
 Vibration     3          0.648              1.809              1.952
 Vibration     4          0.651              1.798              1.895
 Vibration     5          0.667              1.750              1.677
 Vibration     6          0.717              1.605              1.234
 Vibration     7          0.770              1.459              0.944
 Vibration     8          0.806              1.369              0.807
 Vibration     9          0.884              1.186              0.590

 Optimization completed.
    -- Stationary point found.
 Normal termination of Gaussian 09 at Tue Jan 28 01:23:12 2020.
