 Gaussian 09, Revision D.01,
 Gaussian 09:  ES64L-G09RevD.01 24-Apr-2013

 -----------------------------
 # b3lyp 6-31G(2df,p) opt Freq
 -----------------------------

 -----
 titel
 -----
 Symbolic Z-matrix:
 Charge =  0 Multiplicity = 1

 SCF Done:  E(RB3LYP) =  -423.160326963     A.U. after   14 cycles
 Optimization completed.
    -- Stationary point found.
 Normal termination of Gaussian 09 at Mon Jan 27 18:51:05 2020.

 ----------------------------------------------------------------------
 #N Geom=AllCheck Guess=TCheck SCRF=Check GenChk RB3LYP/6-31G(2df,p) Fr
 eq
 ----------------------------------------------------------------------

 Structure from the checkpoint file:  "/scratch/puck/g09_1581501a-a539-46b4-b91a-faa5dea30293/Gau-54708.chk"
 -----
 titel
 -----
 Charge =  0 Multiplicity = 1

                         Standard orientation:
 ---------------------------------------------------------------------
 Center     Atomic      Atomic             Coordinates (Angstroms)
 Number     Number       Type             X           Y           Z
 ---------------------------------------------------------------------
      1          6           0       -0.805916    1.900484   -0.868109
      2          6           0       -0.481312    0.570440   -0.228466
      3          6           0       -0.687809    0.426708    1.298515
      4          8           0       -1.483196   -0.775404    1.132962
      5          6           0       -1.359411   -0.718379   -0.294418
      6          6           0       -0.166374   -1.553006   -0.824746
      7          6           0        0.710246   -0.250021   -0.804965
      8          6           0        2.028319   -0.300766   -0.085332
      9          8           0        2.379688    0.461672    0.780810
     10          1           0       -0.851934    1.820736   -1.960050
     11          1           0       -1.769986    2.284498   -0.518120
     12          1           0       -0.039115    2.644084   -0.621456
     13          1           0        0.201237    0.265953    1.912593
     14          1           0       -1.285665    1.237087    1.734896
     15          1           0       -2.319943   -0.803821   -0.810867
     16          1           0        0.136560   -2.338221   -0.128120
     17          1           0       -0.302521   -1.985247   -1.818331
     18          1           0        0.936895    0.060948   -1.833716
     19          1           0        2.696085   -1.128930   -0.421873
 ---------------------------------------------------------------------

 SCF Done:  E(RB3LYP) =  -423.160326963     A.U. after    1 cycles

 The electronic state is 1-A.
 Alpha  occ. eigenvalues --  -19.14444 -19.13258 -10.27489 -10.23641 -10.22585
 Alpha  occ. eigenvalues --  -10.20635 -10.20391 -10.19590 -10.18557  -1.05092
 Alpha  occ. eigenvalues --   -1.04007  -0.84382  -0.75247  -0.70219  -0.67362
 Alpha  occ. eigenvalues --   -0.62692  -0.58060  -0.52799  -0.50166  -0.48581
 Alpha  occ. eigenvalues --   -0.46305  -0.45130  -0.42990  -0.42349  -0.41125
 Alpha  occ. eigenvalues --   -0.40315  -0.39901  -0.37255  -0.35274  -0.33224
 Alpha  occ. eigenvalues --   -0.30491  -0.28787  -0.25425  -0.24269
 Alpha virt. eigenvalues --   -0.02675   0.07087   0.07601   0.10514   0.11866
 Alpha virt. eigenvalues --    0.12686   0.13940   0.14168   0.14608   0.16083
 Alpha virt. eigenvalues --    0.17175   0.17470   0.18640   0.19633   0.20919

 Mulliken charges:
               1
     1  C   -0.507025
     2  C    0.292214
     3  C   -0.131963
     4  O   -0.292263
     5  C    0.083043
     6  C   -0.274809
     7  C   -0.150482
     8  C    0.143715
     9  O   -0.249739
    10  H    0.114661
    11  H    0.123699
    12  H    0.134928
    13  H    0.127055
    14  H    0.099085
    15  H    0.076779
    16  H    0.120009
    17  H    0.108743
    18  H    0.102800
    19  H    0.079550
 Sum of Mulliken charges =   0.00000

 Dipole moment (field-independent basis, Debye):
    X=             -0.4613    Y=             -0.1190    Z=             -2.8335  Tot=              2.8732
 Quadrupole moment (field-independent basis, Debye-Ang):
   XX=            -58.2787   YY=            -52.6335   ZZ=            -53.3887
   XY=             -4.6346   XZ=             -1.1488   YZ=              1.6470

  Exact polarizability:  77.835  -2.031  75.968   1.823   6.400  72.103
 Approx polarizability: 109.189   3.771 109.983   4.573  12.318 112.360

                      1                      2                      3
                      A                      A                      A
 Frequencies --     61.2026                93.1851               169.8221
 Red. masses --      4.2169                 3.2283                 4.2449
 Frc consts  --      0.0093                 0.0165                 0.0721
 IR Inten    --      3.3714                 3.7922                 5.3570

                      4                      5                      6
                      A                      A                      A
 Frequencies --    214.0584               220.4012               288.3116
 Red. masses --      1.1308                 2.3959                 2.1179
 Frc consts  --      0.0305                 0.0686                 0.1037
 IR Inten    --      0.2357                 3.7718                 0.8159

                      7                      8                      9
                      A                      A                      A
 Frequencies --    365.0622               382.4635               403.3785
 Red. masses --      2.2415                 3.6230                 2.6242
 Frc consts  --      0.1760                 0.3122                 0.2516
 IR Inten    --      2.1304                 2.3011                 1.8761

                     10                     11                     12
                      A                      A                      A
 Frequencies --    600.2534               617.1774               709.3394
 Red. masses --      3.0379                 4.2108                 4.1722
 Frc consts  --      0.6449                 0.9450                 1.2369
 IR Inten    --      2.7458                 1.8010                12.5089

                     13                     14                     15
                      A                      A                      A
 Frequencies --    751.8898               832.6460               865.5695
 Red. masses --      2.4061                 2.1257                 1.9437
 Frc consts  --      0.8014                 0.8683                 0.8580
 IR Inten    --      7.7362                 4.8381                 7.1129

                     16                     17                     18
                      A                      A                      A
 Frequencies --    893.9825               935.3511               973.6989
 Red. masses --      2.1681                 1.5950                 1.5124
 Frc consts  --      1.0209                 0.8221                 0.8448
 IR Inten    --     12.4875                 3.1288                 0.6452

                     19                     20                     21
                      A                      A                      A
 Frequencies --    993.7898              1001.6213              1011.0331
 Red. masses --      2.3513                 2.9776                 2.4511
 Frc consts  --      1.3682                 1.7601                 1.4762
 IR Inten    --     10.0656                 9.6973                54.2446

                     22                     23                     24
                      A                      A                      A
 Frequencies --   1045.2112              1095.0968              1139.7643
 Red. masses --      2.9277                 2.2316                 1.7327
 Frc consts  --      1.8844                 1.5768                 1.3262
 IR Inten    --     13.6554                12.4034                 6.8924

                     25                     26                     27
                      A                      A                      A
 Frequencies --   1147.6294              1168.0545              1179.2153
 Red. masses --      1.5101                 1.9107                 1.5472
 Frc consts  --      1.1718                 1.5360                 1.2676
 IR Inten    --      2.0126                 1.3812                 5.8182

                     28                     29                     30
                      A                      A                      A
 Frequencies --   1191.0856              1245.9433              1267.9185
 Red. masses --      1.5721                 2.1492                 1.6653
 Frc consts  --      1.3141                 1.9657                 1.5773
 IR Inten    --      4.8019                 6.1987                 0.3166

                     31                     32                     33
                      A                      A                      A
 Frequencies --   1275.8546              1308.9595              1330.5213
 Red. masses --      1.6046                 1.4380                 1.6081
 Frc consts  --      1.5389                 1.4517                 1.6772
 IR Inten    --      2.3240                10.7608                 7.4422

                     34                     35                     36
                      A                      A                      A
 Frequencies --   1383.7817              1413.2918              1422.9546
 Red. masses --      1.9884                 1.2892                 1.2064
 Frc consts  --      2.2433                 1.5172                 1.4392
 IR Inten    --      7.2960                 1.7836                10.2499

                     37                     38                     39
                      A                      A                      A
 Frequencies --   1470.0377              1491.5078              1494.1214
 Red. masses --      1.1081                 1.0501                 1.0518
 Frc consts  --      1.4109                 1.3764                 1.3834
 IR Inten    --      2.9674                 5.5289                 4.1095

                     40                     41                     42
                      A                      A                      A
 Frequencies --   1531.8377              1816.8393              2853.2094
 Red. masses --      1.0940                10.5411                 1.0819
 Frc consts  --      1.5125                20.5007                 5.1891
 IR Inten    --      1.9533               145.6117               136.3178

                     43                     44                     45
                      A                      A                      A
 Frequencies --   3018.1533              3020.8263              3025.4787
 Red. masses --      1.0629                 1.0709                 1.0497
 Frc consts  --      5.7045                 5.7578                 5.6609
 IR Inten    --     52.7442                10.0256                35.6538

                     46                     47                     48
                      A                      A                      A
 Frequencies --   3061.7405              3070.9764              3088.8906
 Red. masses --      1.0717                 1.0754                 1.1008
 Frc consts  --      5.9191                 5.9756                 6.1880
 IR Inten    --     28.3686                46.2223                19.6025

                     49                     50                     51
                      A                      A                      A
 Frequencies --   3096.3029              3103.8489              3125.9410
 Red. masses --      1.1009                 1.0995                 1.1088
 Frc consts  --      6.2186                 6.2407                 6.3835
 IR Inten    --     19.4164                22.1748                17.1101

 - Thermochemistry -
 -------------------
 Temperature   298.150 Kelvin.  Pressure   1.00000 Atm.
 Atom     1 has atomic number  6 and mass  12.00000

 Molecular mass:   126.06808 amu.
 Principal axes and moments of inertia in atomic units:
                           1         2         3
     Eigenvalues --   797.864041198.831311311.83527
           X            0.99741  -0.07190   0.00097
           Y            0.07182   0.99684   0.03396
           Z           -0.00341  -0.03381   0.99942
 This molecule is an asymmetric top.
 Rotational symmetry number  1.
 Warning -- assumption of classical behavior for rotation
           may cause significant error
 Rotational temperatures (Kelvin)      0.10856     0.07225     0.06602
 Rotational constants (GHZ):           2.26197     1.50542     1.37574
 Zero-point vibrational energy     414322.0 (Joules/Mol)
                                   99.02534 (Kcal/Mol)
 Warning -- explicit consideration of  11 degrees of freedom as
           vibrations may cause significant error
 Vibrational temperatures:     88.06   134.07   244.34   307.98   317.11
          (Kelvin)            414.82   525.24   550.28   580.37   863.63
                              887.98  1020.58  1081.80  1197.99  1245.36
                             1286.24  1345.76  1400.93  1429.84  1441.11
                             1454.65  1503.82  1575.60  1639.86  1651.18
                             1680.57  1696.63  1713.70  1792.63  1824.25
                             1835.67  1883.30  1914.32  1990.95  2033.41
                             2047.31  2115.05  2145.94  2149.70  2203.97
                             2614.02  4105.13  4342.44  4346.29  4352.98
                             4405.16  4418.44  4444.22  4454.88  4465.74
                             4497.53

 Zero-point correction=                           0.157807 (Hartree/Particle)
 Thermal correction to Energy=                    0.166442
 Thermal correction to Enthalpy=                  0.167386
 Thermal correction to Gibbs Free Energy=         0.124131
 Sum of electronic and zero-point Energies=           -423.002520
 Sum of electronic and thermal Energies=              -422.993885
 Sum of electronic and thermal Enthalpies=            -422.992941
 Sum of electronic and thermal Free Energies=         -423.036196

                     E (Thermal)             CV                S
                      KCal/Mol        Cal/Mol-Kelvin    Cal/Mol-Kelvin
 Total                  104.444             31.999             91.039
 Electronic               0.000              0.000              0.000
 Translational            0.889              2.981             40.409
 Rotational               0.889              2.981             28.619
 Vibrational            102.667             26.038             22.011
 Vibration     1          0.597              1.973              4.418
 Vibration     2          0.602              1.954              3.592
 Vibration     3          0.625              1.880              2.437
 Vibration     4          0.644              1.820              2.009
 Vibration     5          0.647              1.810              1.956
 Vibration     6          0.685              1.695              1.484
 Vibration     7          0.738              1.544              1.100
 Vibration     8          0.752              1.508              1.029
 Vibration     9          0.769              1.463              0.950
 Vibration    10          0.958              1.031              0.449
 Vibration    11          0.977              0.996              0.421

 Normal termination of Gaussian 09 at Mon Jan 27 19:34:15 2020.
