 Gaussian 09, Revision D.01,
 Gaussian 09:  ES64L-G09RevD.01 24-Apr-2013

 -----------------------------
 # b3lyp 6-31G(2df,p) opt Freq
 -----------------------------

 -----
 titel
 -----
 Symbolic Z-matrix:
 Charge =  0 Multiplicity = 1

 SCF Done:  E(RB3LYP) =  -423.124415995     A.U. after   13 cycles
 Optimization completed.
    -- Stationary point found.
 Normal termination of Gaussian 09 at Tue Jan 28 01:53:17 2020.

 ----------------------------------------------------------------------
 #N Geom=AllCheck Guess=TCheck SCRF=Check GenChk RB3LYP/6-31G(2df,p) Fr
 eq
 ----------------------------------------------------------------------

 Structure from the checkpoint file:  "/scratch/puck/g09_9f5f80f7-3ba8-416c-af4c-8cb91251e510/Gau-190727.chk"
 -----
 titel
 -----
 Charge =  0 Multiplicity = 1

                         Standard orientation:
 ---------------------------------------------------------------------
 Center     Atomic      Atomic             Coordinates (Angstroms)
 Number     Number       Type             X           Y           Z
 ---------------------------------------------------------------------
      1          8           0        2.375749   -1.221666   -0.354097
      2          6           0        1.904205   -0.207190    0.485459
      3          6           0        1.739041    1.197062   -0.060082
      4          6           0        0.540520    0.311847    0.190040
      5          6           0       -0.615472    0.497526    1.197249
      6          6           0       -1.562904   -0.060037    0.120142
      7          8           0       -2.593865   -0.943772    0.384701
      8          6           0       -1.489884    0.743018   -1.148396
      9          6           0       -0.401280   -0.268644   -0.843057
     10          1           0        3.313092   -1.066661   -0.510555
     11          1           0        2.190280   -0.309317    1.533864
     12          1           0        1.924617    2.033908    0.606300
     13          1           0        2.027767    1.358829   -1.094178
     14          1           0       -0.532532   -0.181736    2.050177
     15          1           0       -0.815024    1.513492    1.556665
     16          1           0       -3.402787   -0.435620    0.510738
     17          1           0       -2.193896    0.422813   -1.910486
     18          1           0       -1.273252    1.809337   -1.141099
     19          1           0       -0.178692   -1.103037   -1.494400
 ---------------------------------------------------------------------

 SCF Done:  E(RB3LYP) =  -423.124415995     A.U. after    1 cycles

 The electronic state is 1-A.
 Alpha  occ. eigenvalues --  -19.14271 -19.14000 -10.23503 -10.22968 -10.19356
 Alpha  occ. eigenvalues --  -10.18329 -10.18034 -10.17994 -10.17754  -1.02904
 Alpha  occ. eigenvalues --   -1.02427  -0.89060  -0.82233  -0.70694  -0.61838
 Alpha  occ. eigenvalues --   -0.60108  -0.58353  -0.52207  -0.51552  -0.51132
 Alpha  occ. eigenvalues --   -0.46885  -0.44586  -0.42605  -0.42020  -0.39904
 Alpha  occ. eigenvalues --   -0.38150  -0.36252  -0.34787  -0.31900  -0.30847
 Alpha  occ. eigenvalues --   -0.28301  -0.26705  -0.24407  -0.23597
 Alpha virt. eigenvalues --    0.08029   0.08384   0.10962   0.11390   0.11797
 Alpha virt. eigenvalues --    0.13105   0.13570   0.14985   0.15316   0.17388
 Alpha virt. eigenvalues --    0.18885   0.19600   0.20693   0.23103   0.25011

 Mulliken charges:
               1
     1  O   -0.420802
     2  C    0.020137
     3  C   -0.395681
     4  C    0.381049
     5  C   -0.395552
     6  C    0.407027
     7  O   -0.461049
     8  C   -0.347918
     9  C   -0.182323
    10  H    0.287551
    11  H    0.082307
    12  H    0.107634
    13  H    0.113095
    14  H    0.112619
    15  H    0.088164
    16  H    0.284011
    17  H    0.110448
    18  H    0.102196
    19  H    0.107086
 Sum of Mulliken charges =   0.00000

 Dipole moment (field-independent basis, Debye):
    X=              0.4359    Y=              1.9244    Z=              0.2702  Tot=              1.9915
 Quadrupole moment (field-independent basis, Debye-Ang):
   XX=            -42.2616   YY=            -56.8767   ZZ=            -51.8362
   XY=             -2.3146   XZ=             -0.2366   YZ=              0.8294

  Exact polarizability:  90.808  -0.183  68.583   0.456   0.123  70.788
 Approx polarizability: 118.964  -0.657 105.790  -2.391  -0.142 104.362

                      1                      2                      3
                      A                      A                      A
 Frequencies --     98.9693               159.2693               192.5016
 Red. masses --      4.7321                 3.6031                 3.5187
 Frc consts  --      0.0273                 0.0538                 0.0768
 IR Inten    --      1.7191                 1.8532                 1.8234

                      4                      5                      6
                      A                      A                      A
 Frequencies --    249.3173               282.9035               333.8260
 Red. masses --      1.1839                 1.3287                 1.8621
 Frc consts  --      0.0434                 0.0627                 0.1223
 IR Inten    --     67.2751                97.7141                27.1209

                      7                      8                      9
                      A                      A                      A
 Frequencies --    386.5912               393.4674               417.0177
 Red. masses --      4.0226                 2.3268                 2.6068
 Frc consts  --      0.3542                 0.2122                 0.2671
 IR Inten    --     21.1649                 2.9844                 2.2552

                     10                     11                     12
                      A                      A                      A
 Frequencies --    447.8884               534.0203               558.0569
 Red. masses --      2.2490                 2.9368                 3.2566
 Frc consts  --      0.2658                 0.4934                 0.5975
 IR Inten    --      3.0085                 5.0577                 2.9765

                     13                     14                     15
                      A                      A                      A
 Frequencies --    666.3560               767.2947               815.2161
 Red. masses --      2.8663                 2.5792                 2.3369
 Frc consts  --      0.7499                 0.8947                 0.9150
 IR Inten    --      1.9769                 4.5905                10.1235

                     16                     17                     18
                      A                      A                      A
 Frequencies --    847.5564               876.3533               888.7012
 Red. masses --      2.5807                 1.7531                 1.7201
 Frc consts  --      1.0923                 0.7933                 0.8004
 IR Inten    --      3.5443                18.6500                 1.7477

                     19                     20                     21
                      A                      A                      A
 Frequencies --    947.8110               969.2503               990.7689
 Red. masses --      1.9527                 1.5519                 1.6941
 Frc consts  --      1.0336                 0.8590                 0.9798
 IR Inten    --      3.0014                 3.7938                 7.1046

                     22                     23                     24
                      A                      A                      A
 Frequencies --   1004.7239              1031.4875              1038.4599
 Red. masses --      1.6173                 1.3951                 1.8896
 Frc consts  --      0.9619                 0.8745                 1.2006
 IR Inten    --      2.3664                 5.2640                19.0333

                     25                     26                     27
                      A                      A                      A
 Frequencies --   1069.5690              1089.1605              1095.4376
 Red. masses --      1.3438                 1.7684                 2.1451
 Frc consts  --      0.9057                 1.2360                 1.5166
 IR Inten    --     14.5596                21.0351                 4.6124

                     28                     29                     30
                      A                      A                      A
 Frequencies --   1139.0180              1165.1889              1187.7549
 Red. masses --      1.4915                 2.5782                 1.7276
 Frc consts  --      1.1400                 2.0623                 1.4360
 IR Inten    --     21.8050                40.1056                 2.4399

                     31                     32                     33
                      A                      A                      A
 Frequencies --   1214.2174              1231.8725              1269.2164
 Red. masses --      1.6491                 1.8386                 2.4943
 Frc consts  --      1.4325                 1.6438                 2.3674
 IR Inten    --     37.2268                17.8482                32.6693

                     34                     35                     36
                      A                      A                      A
 Frequencies --   1297.7385              1301.7867              1363.2307
 Red. masses --      1.5510                 1.4006                 1.7552
 Frc consts  --      1.5390                 1.3984                 1.9218
 IR Inten    --     66.6750                70.9287                 8.1213

                     37                     38                     39
                      A                      A                      A
 Frequencies --   1400.5811              1427.4544              1474.7463
 Red. masses --      2.0862                 1.3255                 1.1640
 Frc consts  --      2.4112                 1.5913                 1.4915
 IR Inten    --     37.8545                 4.6640                 2.7807

                     40                     41                     42
                      A                      A                      A
 Frequencies --   1491.7873              1506.2579              3032.7957
 Red. masses --      1.6942                 1.7276                 1.0610
 Frc consts  --      2.2214                 2.3094                 5.7500
 IR Inten    --     14.5126                17.1300                45.3598

                     43                     44                     45
                      A                      A                      A
 Frequencies --   3080.8045              3098.0299              3100.4302
 Red. masses --      1.0870                 1.1033                 1.0567
 Frc consts  --      6.0786                 6.2389                 5.9846
 IR Inten    --     38.2727                15.3748                23.8171

                     46                     47                     48
                      A                      A                      A
 Frequencies --   3119.5772              3197.4143              3209.6271
 Red. masses --      1.0540                 1.1122                 1.1168
 Frc consts  --      6.0433                 6.6995                 6.7786
 IR Inten    --     11.4641                 6.4646                 8.5640

                     49                     50                     51
                      A                      A                      A
 Frequencies --   3211.7825              3791.9564              3805.2467
 Red. masses --      1.0944                 1.0662                 1.0663
 Frc consts  --      6.6516                 9.0323                 9.0967
 IR Inten    --      7.9792                19.5312                21.3400

 - Thermochemistry -
 -------------------
 Temperature   298.150 Kelvin.  Pressure   1.00000 Atm.
 Atom     1 has atomic number  8 and mass  15.99491

 Molecular mass:   126.06808 amu.
 Principal axes and moments of inertia in atomic units:
                           1         2         3
     Eigenvalues --   534.471971622.437651672.86741
           X            0.99997  -0.00084   0.00752
           Y            0.00066   0.99969   0.02499
           Z           -0.00754  -0.02499   0.99966
 This molecule is an asymmetric top.
 Rotational symmetry number  1.
 Warning -- assumption of classical behavior for rotation
           may cause significant error
 Rotational temperatures (Kelvin)      0.16205     0.05338     0.05178
 Rotational constants (GHZ):           3.37668     1.11236     1.07883
 Zero-point vibrational energy     414329.5 (Joules/Mol)
                                   99.02714 (Kcal/Mol)
 Warning -- explicit consideration of  12 degrees of freedom as
           vibrations may cause significant error
 Vibrational temperatures:    142.39   229.15   276.97   358.71   407.03
          (Kelvin)            480.30   556.22   566.11   599.99   644.41
                              768.34   802.92   958.74  1103.96  1172.91
                             1219.44  1260.88  1278.64  1363.69  1394.53
                             1425.49  1445.57  1484.08  1494.11  1538.87
                             1567.06  1576.09  1638.79  1676.44  1708.91
                             1746.99  1772.39  1826.12  1867.15  1872.98
                             1961.38  2015.12  2053.79  2121.83  2146.35
                             2167.17  4363.51  4432.59  4457.37  4460.82
                             4488.37  4600.36  4617.93  4621.03  5455.77
                             5474.89

 Zero-point correction=                           0.157810 (Hartree/Particle)
 Thermal correction to Energy=                    0.166407
 Thermal correction to Enthalpy=                  0.167351
 Thermal correction to Gibbs Free Energy=         0.125002
 Sum of electronic and zero-point Energies=           -422.966606
 Sum of electronic and thermal Energies=              -422.958009
 Sum of electronic and thermal Enthalpies=            -422.957065
 Sum of electronic and thermal Free Energies=         -422.999414

                     E (Thermal)             CV                S
                      KCal/Mol        Cal/Mol-Kelvin    Cal/Mol-Kelvin
 Total                  104.422             33.918             89.132
 Electronic               0.000              0.000              0.000
 Translational            0.889              2.981             40.409
 Rotational               0.889              2.981             28.763
 Vibrational            102.644             27.956             19.960
 Vibration     1          0.604              1.950              3.475
 Vibration     2          0.621              1.892              2.558
 Vibration     3          0.634              1.850              2.204
 Vibration     4          0.662              1.764              1.735
 Vibration     5          0.682              1.705              1.516
 Vibration     6          0.715              1.608              1.242
 Vibration     7          0.755              1.499              1.013
 Vibration     8          0.761              1.484              0.987
 Vibration     9          0.780              1.433              0.902
 Vibration    10          0.807              1.366              0.802
 Vibration    11          0.889              1.175              0.578
 Vibration    12          0.914              1.122              0.528

 Optimization completed.
    -- Stationary point found.
 Normal termination of Gaussian 09 at Tue Jan 28 02:42:13 2020.
 Normal termination of Gaussian 09 at Tue Jan 28 01:46:49 2020.
