 Gaussian 09, Revision D.01,
 Gaussian 09:  ES64L-G09RevD.01 24-Apr-2013

 -----------------------------
 # b3lyp 6-31G(2df,p) opt Freq
 -----------------------------

 -----
 titel
 -----
 Symbolic Z-matrix:
 Charge =  0 Multiplicity = 1

 SCF Done:  E(RB3LYP) =  -423.164566009     A.U. after   13 cycles
 Optimization completed.
    -- Stationary point found.
 Normal termination of Gaussian 09 at Tue Jan 28 03:43:18 2020.

 ----------------------------------------------------------------------
 #N Geom=AllCheck Guess=TCheck SCRF=Check GenChk RB3LYP/6-31G(2df,p) Fr
 eq
 ----------------------------------------------------------------------

 Structure from the checkpoint file:  "/scratch/puck/g09_bba1a56f-f5c2-4710-b5d0-f58097d36f79/Gau-80547.chk"
 -----
 titel
 -----
 Charge =  0 Multiplicity = 1

                         Standard orientation:
 ---------------------------------------------------------------------
 Center     Atomic      Atomic             Coordinates (Angstroms)
 Number     Number       Type             X           Y           Z
 ---------------------------------------------------------------------
      1          6           0        2.395145   -0.152269   -0.616511
      2          6           0        1.361083    0.205713    0.439854
      3          8           0        0.617444    1.359422    0.016768
      4          6           0       -0.768556    1.198752    0.267583
      5          6           0       -1.580302    0.607903   -0.930956
      6          6           0       -1.524655   -0.776248   -0.255913
      7          8           0       -0.261294   -1.447027   -0.481243
      8          6           0        0.321396   -0.877637    0.720341
      9          6           0       -0.980683   -0.133288    1.047941
     10          1           0        3.010922    0.719970   -0.849964
     11          1           0        3.051880   -0.951085   -0.256333
     12          1           0        1.895481   -0.491716   -1.526218
     13          1           0        1.864354    0.443592    1.392136
     14          1           0       -1.160922    2.122678    0.698908
     15          1           0       -2.602197    1.001011   -0.952903
     16          1           0       -1.125372    0.695075   -1.919526
     17          1           0       -2.370757   -1.461148   -0.337022
     18          1           0        0.681413   -1.658462    1.397792
     19          1           0       -1.434580   -0.156637    2.034898
 ---------------------------------------------------------------------

 SCF Done:  E(RB3LYP) =  -423.164566009     A.U. after    1 cycles

 The electronic state is 1-A.
 Alpha  occ. eigenvalues --  -19.13555 -19.13285 -10.23611 -10.23580 -10.23357
 Alpha  occ. eigenvalues --  -10.22971 -10.19265 -10.17900 -10.16960  -1.05523
 Alpha  occ. eigenvalues --   -1.01608  -0.82056  -0.76594  -0.71358  -0.64794
 Alpha  occ. eigenvalues --   -0.63681  -0.55678  -0.54442  -0.52691  -0.48306
 Alpha  occ. eigenvalues --   -0.47083  -0.44009  -0.43020  -0.42190  -0.39281
 Alpha  occ. eigenvalues --   -0.38474  -0.37021  -0.36312  -0.34497  -0.32040
 Alpha  occ. eigenvalues --   -0.29902  -0.28600  -0.24991  -0.24283
 Alpha virt. eigenvalues --    0.07086   0.08706   0.10584   0.11921   0.12477
 Alpha virt. eigenvalues --    0.13533   0.15260   0.15808   0.17019   0.17669
 Alpha virt. eigenvalues --    0.18247   0.18728   0.18971   0.20099   0.21153

 Mulliken charges:
               1
     1  C   -0.399127
     2  C    0.123862
     3  O   -0.288618
     4  C    0.102716
     5  C   -0.254436
     6  C    0.112613
     7  O   -0.312890
     8  C    0.092748
     9  C   -0.145916
    10  H    0.124265
    11  H    0.110586
    12  H    0.137544
    13  H    0.068720
    14  H    0.080622
    15  H    0.098951
    16  H    0.112836
    17  H    0.079415
    18  H    0.077926
    19  H    0.078182
 Sum of Mulliken charges =   0.00000

 Dipole moment (field-independent basis, Debye):
    X=             -0.9937    Y=             -0.0803    Z=              1.5111  Tot=              1.8103
 Quadrupole moment (field-independent basis, Debye-Ang):
   XX=            -48.8506   YY=            -57.0573   ZZ=            -51.8114
   XY=             -1.9136   XZ=              0.4658   YZ=             -1.4303

  Exact polarizability:  85.451  -2.856  68.379   2.806  -1.579  68.006
 Approx polarizability: 113.330  -3.171 103.531   4.227  -0.418 102.638

                      1                      2                      3
                      A                      A                      A
 Frequencies --     88.3870               222.2781               229.5833
 Red. masses --      3.6395                 1.5746                 1.5632
 Frc consts  --      0.0168                 0.0458                 0.0485
 IR Inten    --      2.3292                 1.5321                 1.1713

                      4                      5                      6
                      A                      A                      A
 Frequencies --    326.8571               356.0117               403.3045
 Red. masses --      4.0111                 2.8204                 2.1854
 Frc consts  --      0.2525                 0.2106                 0.2094
 IR Inten    --      3.7654                 1.3274                 1.7505

                      7                      8                      9
                      A                      A                      A
 Frequencies --    504.0613               637.3538               661.3066
 Red. masses --      3.4411                 3.9464                 4.8034
 Frc consts  --      0.5151                 0.9445                 1.2377
 IR Inten    --      2.9135                 0.2586                 4.5760

                     10                     11                     12
                      A                      A                      A
 Frequencies --    733.0483               785.2487               818.8513
 Red. masses --      3.1484                 2.7068                 2.3735
 Frc consts  --      0.9968                 0.9834                 0.9377
 IR Inten    --      4.4177                11.7486                 4.8052

                     13                     14                     15
                      A                      A                      A
 Frequencies --    845.1263               857.5615               909.3107
 Red. masses --      2.1076                 2.4700                 2.2887
 Frc consts  --      0.8869                 1.0702                 1.1150
 IR Inten    --     12.6732                11.2009                 8.4974

                     16                     17                     18
                      A                      A                      A
 Frequencies --    927.3353               932.4235               963.8527
 Red. masses --      1.9446                 1.6916                 2.4399
 Frc consts  --      0.9853                 0.8665                 1.3355
 IR Inten    --      6.6026                 7.4848                28.8293

                     19                     20                     21
                      A                      A                      A
 Frequencies --    969.0016               999.2364              1048.0490
 Red. masses --      4.1167                 1.8860                 2.8657
 Frc consts  --      2.2775                 1.1095                 1.8546
 IR Inten    --      4.6628                11.3369                30.6579

                     22                     23                     24
                      A                      A                      A
 Frequencies --   1052.6720              1097.5215              1113.6682
 Red. masses --      3.0387                 2.3125                 2.3493
 Frc consts  --      1.9839                 1.6412                 1.7167
 IR Inten    --     13.3926                97.7630                19.6243

                     25                     26                     27
                      A                      A                      A
 Frequencies --   1141.3361              1153.7917              1170.5645
 Red. masses --      1.5900                 2.1452                 2.0983
 Frc consts  --      1.2203                 1.6826                 1.6940
 IR Inten    --      4.4320                34.3318                19.6489

                     28                     29                     30
                      A                      A                      A
 Frequencies --   1202.6218              1216.5211              1242.3060
 Red. masses --      1.5578                 2.0912                 1.3677
 Frc consts  --      1.3275                 1.8234                 1.2437
 IR Inten    --      5.9645                21.6717                 0.5792

                     31                     32                     33
                      A                      A                      A
 Frequencies --   1271.4019              1297.8686              1305.6010
 Red. masses --      1.7445                 1.2058                 1.7404
 Frc consts  --      1.6614                 1.1967                 1.7479
 IR Inten    --     14.7657                 2.6582                 3.4293

                     34                     35                     36
                      A                      A                      A
 Frequencies --   1332.8301              1349.8219              1370.8436
 Red. masses --      1.3895                 1.2914                 1.4039
 Frc consts  --      1.4543                 1.3863                 1.5544
 IR Inten    --      1.0922                 9.5879                10.3022

                     37                     38                     39
                      A                      A                      A
 Frequencies --   1379.8563              1403.9903              1450.3549
 Red. masses --      1.4182                 1.3274                 1.1143
 Frc consts  --      1.5910                 1.5416                 1.3810
 IR Inten    --      2.6408                12.0722                 3.7496

                     40                     41                     42
                      A                      A                      A
 Frequencies --   1487.3200              1497.1189              2960.8616
 Red. masses --      1.0485                 1.0540                 1.0827
 Frc consts  --      1.3665                 1.3920                 5.5926
 IR Inten    --      4.1540                 2.1166                57.7120

                     43                     44                     45
                      A                      A                      A
 Frequencies --   3045.3557              3050.6633              3059.3430
 Red. masses --      1.0373                 1.0619                 1.0867
 Frc consts  --      5.6677                 5.8224                 5.9924
 IR Inten    --     17.1225                18.1912                58.4958

                     46                     47                     48
                      A                      A                      A
 Frequencies --   3077.9790              3092.5041              3115.7868
 Red. masses --      1.0881                 1.0899                 1.0996
 Frc consts  --      6.0736                 6.1411                 6.2896
 IR Inten    --     51.8380                58.1214                19.2840

                     49                     50                     51
                      A                      A                      A
 Frequencies --   3125.1350              3140.1536              3151.4597
 Red. masses --      1.1050                 1.1024                 1.0928
 Frc consts  --      6.3584                 6.4043                 6.3946
 IR Inten    --     16.6327                13.5123                24.4347

 - Thermochemistry -
 -------------------
 Temperature   298.150 Kelvin.  Pressure   1.00000 Atm.
 Atom     1 has atomic number  6 and mass  12.00000

 Molecular mass:   126.06808 amu.
 Principal axes and moments of inertia in atomic units:
                           1         2         3
     Eigenvalues --   619.25945 992.365521194.21486
           X            0.99921  -0.03947  -0.00520
           Y            0.03927   0.99866  -0.03371
           Z            0.00652   0.03348   0.99942
 This molecule is an asymmetric top.
 Rotational symmetry number  1.
 Warning -- assumption of classical behavior for rotation
           may cause significant error
 Rotational temperatures (Kelvin)      0.13987     0.08728     0.07253
 Rotational constants (GHZ):           2.91435     1.81863     1.51124
 Zero-point vibrational energy     422134.9 (Joules/Mol)
                                  100.89266 (Kcal/Mol)
 Warning -- explicit consideration of   7 degrees of freedom as
           vibrations may cause significant error
 Vibrational temperatures:    127.17   319.81   330.32   470.27   512.22
          (Kelvin)            580.26   725.23   917.01   951.47  1054.69
                             1129.80  1178.14  1215.95  1233.84  1308.29
                             1334.23  1341.55  1386.77  1394.18  1437.68
                             1507.91  1514.56  1579.09  1602.32  1642.13
                             1660.05  1684.18  1730.30  1750.30  1787.40
                             1829.26  1867.34  1878.47  1917.64  1942.09
                             1972.34  1985.30  2020.03  2086.73  2139.92
                             2154.02  4260.01  4381.58  4389.22  4401.71
                             4428.52  4449.42  4482.92  4496.37  4517.98
                             4534.24

 Zero-point correction=                           0.160783 (Hartree/Particle)
 Thermal correction to Energy=                    0.167919
 Thermal correction to Enthalpy=                  0.168863
 Thermal correction to Gibbs Free Energy=         0.129309
 Sum of electronic and zero-point Energies=           -423.003783
 Sum of electronic and thermal Energies=              -422.996647
 Sum of electronic and thermal Enthalpies=            -422.995703
 Sum of electronic and thermal Free Energies=         -423.035257

                     E (Thermal)             CV                S
                      KCal/Mol        Cal/Mol-Kelvin    Cal/Mol-Kelvin
 Total                  105.371             28.870             83.248
 Electronic               0.000              0.000              0.000
 Translational            0.889              2.981             40.409
 Rotational               0.889              2.981             28.086
 Vibrational            103.593             22.908             14.753
 Vibration     1          0.601              1.957              3.695
 Vibration     2          0.648              1.807              1.940
 Vibration     3          0.652              1.796              1.882
 Vibration     4          0.711              1.622              1.276
 Vibration     5          0.732              1.563              1.139
 Vibration     6          0.769              1.463              0.951
 Vibration     7          0.859              1.241              0.648

 Optimization completed.
    -- Stationary point found.
 Normal termination of Gaussian 09 at Tue Jan 28 04:28:04 2020.
