 Gaussian 09, Revision D.01,
 Gaussian 09:  ES64L-G09RevD.01 24-Apr-2013

 -----------------------------
 # b3lyp 6-31G(2df,p) opt Freq
 -----------------------------

 -----
 titel
 -----
 Symbolic Z-matrix:
 Charge =  0 Multiplicity = 1

 SCF Done:  E(RB3LYP) =  -423.122746502     A.U. after   13 cycles
 Optimization completed.
    -- Stationary point found.
 Normal termination of Gaussian 09 at Mon Jan 27 18:05:13 2020.

 ----------------------------------------------------------------------
 #N Geom=AllCheck Guess=TCheck SCRF=Check GenChk RB3LYP/6-31G(2df,p) Fr
 eq
 ----------------------------------------------------------------------

 Structure from the checkpoint file:  "/scratch/puck/g09_9c2b7f49-1a7f-4b32-9914-47681b04df4c/Gau-40833.chk"
 -----
 titel
 -----
 Charge =  0 Multiplicity = 1

                         Standard orientation:
 ---------------------------------------------------------------------
 Center     Atomic      Atomic             Coordinates (Angstroms)
 Number     Number       Type             X           Y           Z
 ---------------------------------------------------------------------
      1          6           0       -2.536222   -0.488612   -0.337998
      2          6           0       -1.052322   -0.417527   -0.140419
      3          6           0        0.057085   -1.199994   -0.843309
      4          6           0        1.055168   -0.251502   -0.121587
      5          6           0        2.473114   -0.030301   -0.542414
      6          8           0        0.896293   -0.633813    1.281044
      7          6           0       -0.395183   -0.040669    1.228832
      8          6           0       -0.146655    0.800295    0.036689
      9          8           0       -0.295832    2.147138   -0.164673
     10          1           0       -2.931796   -1.465545   -0.037396
     11          1           0       -3.049758    0.274667    0.257029
     12          1           0       -2.813691   -0.329346   -1.386893
     13          1           0        0.174542   -2.265395   -0.618541
     14          1           0        0.042902   -1.036658   -1.925682
     15          1           0        2.522802    0.258183   -1.596867
     16          1           0        2.936972    0.757305    0.057866
     17          1           0        3.053691   -0.950225   -0.411128
     18          1           0       -0.951944    0.120373    2.142599
     19          1           0       -0.517323    2.299893   -1.090715
 ---------------------------------------------------------------------

 SCF Done:  E(RB3LYP) =  -423.122746502     A.U. after    1 cycles

 The electronic state is 1-A.
 Alpha  occ. eigenvalues --  -19.16235 -19.12866 -10.23903 -10.23359 -10.22791
 Alpha  occ. eigenvalues --  -10.19500 -10.18448 -10.18179 -10.17984  -1.06133
 Alpha  occ. eigenvalues --   -1.03520  -0.85104  -0.76061  -0.71876  -0.69385
 Alpha  occ. eigenvalues --   -0.60925  -0.57097  -0.53135  -0.49719  -0.47430
 Alpha  occ. eigenvalues --   -0.45330  -0.44883  -0.41591  -0.41371  -0.39886
 Alpha  occ. eigenvalues --   -0.39581  -0.38821  -0.36668  -0.35433  -0.33946
 Alpha  occ. eigenvalues --   -0.32153  -0.25910  -0.23843  -0.22462
 Alpha virt. eigenvalues --    0.06093   0.08856   0.10956   0.11504   0.12644
 Alpha virt. eigenvalues --    0.13759   0.14379   0.15442   0.16010   0.17292
 Alpha virt. eigenvalues --    0.17818   0.18883   0.19498   0.21087   0.22698

 Mulliken charges:
               1
     1  C   -0.512311
     2  C    0.200326
     3  C   -0.310178
     4  C    0.338573
     5  C   -0.504685
     6  O   -0.323325
     7  C   -0.004472
     8  C    0.224446
     9  O   -0.447029
    10  H    0.127281
    11  H    0.124709
    12  H    0.114773
    13  H    0.096342
    14  H    0.089114
    15  H    0.117292
    16  H    0.136751
    17  H    0.133245
    18  H    0.108124
    19  H    0.291027
 Sum of Mulliken charges =   0.00000

 Dipole moment (field-independent basis, Debye):
    X=             -1.0453    Y=              0.2559    Z=             -2.3898  Tot=              2.6209
 Quadrupole moment (field-independent basis, Debye-Ang):
   XX=            -51.1143   YY=            -55.1743   ZZ=            -51.4693
   XY=              0.0141   XZ=             -2.3354   YZ=             -1.8336

  Exact polarizability:  85.441   0.343  70.880  -1.549   0.707  70.596
 Approx polarizability: 110.780  -0.718 108.428   0.750  -1.462 111.543

                      1                      2                      3
                      A                      A                      A
 Frequencies --    169.1892               172.4899               180.7611
 Red. masses --      2.3338                 1.3741                 2.2104
 Frc consts  --      0.0394                 0.0241                 0.0426
 IR Inten    --      0.6458                 0.1006                 0.3033

                      4                      5                      6
                      A                      A                      A
 Frequencies --    188.2412               202.1710               286.5727
 Red. masses --      1.0362                 2.6464                 2.1895
 Frc consts  --      0.0216                 0.0637                 0.1059
 IR Inten    --      0.6890                 1.6259                26.2473

                      7                      8                      9
                      A                      A                      A
 Frequencies --    337.4316               349.3202               424.8100
 Red. masses --      2.2488                 1.3393                 4.1134
 Frc consts  --      0.1509                 0.0963                 0.4374
 IR Inten    --     10.1125                59.6890                16.5212

                     10                     11                     12
                      A                      A                      A
 Frequencies --    484.8888               552.6820               569.0907
 Red. masses --      2.3282                 3.7041                 3.9512
 Frc consts  --      0.3225                 0.6666                 0.7539
 IR Inten    --      4.7986                 5.3644                 2.4922

                     13                     14                     15
                      A                      A                      A
 Frequencies --    645.7503               658.4269               758.0415
 Red. masses --      3.2099                 4.3520                 5.5730
 Frc consts  --      0.7886                 1.1116                 1.8868
 IR Inten    --      7.8152                 2.9849                 8.5301

                     16                     17                     18
                      A                      A                      A
 Frequencies --    823.4157               837.1199               879.5175
 Red. masses --      3.7732                 4.2401                 2.5267
 Frc consts  --      1.5073                 1.7507                 1.1516
 IR Inten    --     14.4208                10.4314                15.3327

                     19                     20                     21
                      A                      A                      A
 Frequencies --    921.2726               945.8232               974.2570
 Red. masses --      1.9307                 1.5463                 1.4866
 Frc consts  --      0.9655                 0.8150                 0.8314
 IR Inten    --      5.2190                 3.7274                 2.1749

                     22                     23                     24
                      A                      A                      A
 Frequencies --   1014.6006              1039.5186              1084.0259
 Red. masses --      1.9463                 1.7914                 2.1201
 Frc consts  --      1.1804                 1.1405                 1.4679
 IR Inten    --     18.3564                36.9436                 2.8830

                     25                     26                     27
                      A                      A                      A
 Frequencies --   1125.5669              1145.4269              1163.9525
 Red. masses --      1.9788                 2.2235                 1.6124
 Frc consts  --      1.4770                 1.7188                 1.2871
 IR Inten    --      8.6203                 8.6667                 3.5768

                     28                     29                     30
                      A                      A                      A
 Frequencies --   1179.0512              1221.0198              1255.1747
 Red. masses --      1.5189                 3.2686                 1.9864
 Frc consts  --      1.2441                 2.8711                 1.8439
 IR Inten    --      5.1056                41.2437                39.3206

                     31                     32                     33
                      A                      A                      A
 Frequencies --   1280.3896              1338.2869              1369.0566
 Red. masses --      1.7368                 2.6581                 2.3375
 Frc consts  --      1.6776                 2.8049                 2.5813
 IR Inten    --    114.5378                15.4842                 7.3453

                     34                     35                     36
                      A                      A                      A
 Frequencies --   1413.5353              1418.9454              1471.8514
 Red. masses --      1.4653                 1.4830                 1.4365
 Frc consts  --      1.7250                 1.7592                 1.8335
 IR Inten    --      7.7212                 4.0442                 2.7716

                     37                     38                     39
                      A                      A                      A
 Frequencies --   1477.9553              1486.3314              1487.6000
 Red. masses --      1.1098                 1.0496                 1.0711
 Frc consts  --      1.4283                 1.3661                 1.3966
 IR Inten    --      3.9349                 3.4770                 5.6917

                     40                     41                     42
                      A                      A                      A
 Frequencies --   1494.1719              1514.0668              3019.4032
 Red. masses --      1.1797                 1.8426                 1.0357
 Frc consts  --      1.5517                 2.4887                 5.5632
 IR Inten    --      4.5965                30.6414                42.8763

                     43                     44                     45
                      A                      A                      A
 Frequencies --   3034.9423              3038.8621              3076.9254
 Red. masses --      1.0408                 1.0506                 1.1004
 Frc consts  --      5.6483                 5.7164                 6.1381
 IR Inten    --     17.2926                41.6310                21.6593

                     46                     47                     48
                      A                      A                      A
 Frequencies --   3090.3384              3095.6847              3104.8782
 Red. masses --      1.1003                 1.1082                 1.1002
 Frc consts  --      6.1911                 6.2575                 6.2489
 IR Inten    --     18.5732                19.5082                20.1453

                     49                     50                     51
                      A                      A                      A
 Frequencies --   3117.9683              3209.8571              3779.5143
 Red. masses --      1.1015                 1.0952                 1.0662
 Frc consts  --      6.3094                 6.6484                 8.9735
 IR Inten    --     14.1841                11.6685                18.4375

 - Thermochemistry -
 -------------------
 Temperature   298.150 Kelvin.  Pressure   1.00000 Atm.
 Atom     1 has atomic number  6 and mass  12.00000

 Molecular mass:   126.06808 amu.
 Principal axes and moments of inertia in atomic units:
                           1         2         3
     Eigenvalues --   712.120471137.650951327.86958
           X            0.99955   0.02291  -0.01958
           Y           -0.02226   0.99920   0.03309
           Z            0.02032  -0.03264   0.99926
 This molecule is an asymmetric top.
 Rotational symmetry number  1.
 Warning -- assumption of classical behavior for rotation
           may cause significant error
 Rotational temperatures (Kelvin)      0.12163     0.07613     0.06523
 Rotational constants (GHZ):           2.53432     1.58638     1.35913
 Zero-point vibrational energy     412174.4 (Joules/Mol)
                                   98.51204 (Kcal/Mol)
 Warning -- explicit consideration of  12 degrees of freedom as
           vibrations may cause significant error
 Vibrational temperatures:    243.43   248.17   260.07   270.84   290.88
          (Kelvin)            412.31   485.49   502.59   611.21   697.65
                              795.19   818.79   929.09   947.33  1090.65
                             1184.71  1204.43  1265.43  1325.50  1360.83
                             1401.74  1459.78  1495.63  1559.67  1619.44
                             1648.01  1674.67  1696.39  1756.77  1805.91
                             1842.19  1925.49  1969.76  2033.76  2041.54
                             2117.66  2126.45  2138.50  2140.32  2149.78
                             2178.40  4344.24  4366.60  4372.24  4427.00
                             4446.30  4453.99  4467.22  4486.06  4618.26
                             5437.87

 Zero-point correction=                           0.156989 (Hartree/Particle)
 Thermal correction to Energy=                    0.165798
 Thermal correction to Enthalpy=                  0.166742
 Thermal correction to Gibbs Free Energy=         0.124243
 Sum of electronic and zero-point Energies=           -422.965758
 Sum of electronic and thermal Energies=              -422.956948
 Sum of electronic and thermal Enthalpies=            -422.956004
 Sum of electronic and thermal Free Energies=         -422.998504

                     E (Thermal)             CV                S
                      KCal/Mol        Cal/Mol-Kelvin    Cal/Mol-Kelvin
 Total                  104.040             34.087             89.448
 Electronic               0.000              0.000              0.000
 Translational            0.889              2.981             40.409
 Rotational               0.889              2.981             28.466
 Vibrational            102.262             28.125             20.573
 Vibration     1          0.625              1.880              2.444
 Vibration     2          0.626              1.876              2.408
 Vibration     3          0.630              1.866              2.321
 Vibration     4          0.633              1.856              2.245
 Vibration     5          0.639              1.837              2.113
 Vibration     6          0.684              1.699              1.494
 Vibration     7          0.718              1.601              1.224
 Vibration     8          0.727              1.577              1.169
 Vibration     9          0.787              1.416              0.876
 Vibration    10          0.841              1.284              0.697
 Vibration    11          0.908              1.134              0.539
 Vibration    12          0.925              1.098              0.506

 Optimization completed.
    -- Stationary point found.
 Normal termination of Gaussian 09 at Mon Jan 27 19:06:39 2020.
