 Gaussian 09, Revision D.01,
 Gaussian 09:  ES64L-G09RevD.01 24-Apr-2013

 -----------------------------
 # b3lyp 6-31G(2df,p) opt Freq
 -----------------------------

 -----
 titel
 -----
 Symbolic Z-matrix:
 Charge =  0 Multiplicity = 1

 SCF Done:  E(RB3LYP) =  -423.126536597     A.U. after   14 cycles
 Optimization completed.
    -- Stationary point found.
 Normal termination of Gaussian 09 at Mon Jan 27 13:54:40 2020.

 ----------------------------------------------------------------------
 #N Geom=AllCheck Guess=TCheck SCRF=Check GenChk RB3LYP/6-31G(2df,p) Fr
 eq
 ----------------------------------------------------------------------

 Structure from the checkpoint file:  "/scratch/puck/g09_788ab97a-5b2a-4187-a9ad-ad4e579dff63/Gau-157832.chk"
 -----
 titel
 -----
 Charge =  0 Multiplicity = 1

                         Standard orientation:
 ---------------------------------------------------------------------
 Center     Atomic      Atomic             Coordinates (Angstroms)
 Number     Number       Type             X           Y           Z
 ---------------------------------------------------------------------
      1          8           0        3.927745   -0.023190    0.279472
      2          6           0        2.858157    0.279838   -0.177178
      3          6           0        1.571517   -0.469915    0.122170
      4          8           0        0.507400    0.228870   -0.474567
      5          6           0       -0.723135   -0.440759   -0.402848
      6          6           0       -1.964574    0.383126   -0.810205
      7          6           0       -2.797732   -0.675212   -0.029446
      8          6           0       -1.591308   -0.347287    0.894826
      9          6           0       -1.821676    1.153097    0.539474
     10          1           0        2.720193    1.139296   -0.869734
     11          1           0        1.664570   -1.493566   -0.280479
     12          1           0        1.455944   -0.562683    1.213365
     13          1           0       -0.635731   -1.445070   -0.843569
     14          1           0       -2.175596    0.798280   -1.795967
     15          1           0       -3.774486   -0.342989    0.326958
     16          1           0       -2.845835   -1.683255   -0.451872
     17          1           0       -1.379105   -0.776336    1.874890
     18          1           0       -2.734806    1.605342    0.934451
     19          1           0       -0.963808    1.818207    0.631956
 ---------------------------------------------------------------------

 SCF Done:  E(RB3LYP) =  -423.126536597     A.U. after    1 cycles

 The electronic state is 1-A.
 Alpha  occ. eigenvalues --  -19.15774 -19.14522 -10.27616 -10.24561 -10.24508
 Alpha  occ. eigenvalues --  -10.20553 -10.20507 -10.19513 -10.18964  -1.06024
 Alpha  occ. eigenvalues --   -1.04884  -0.91428  -0.74669  -0.67260  -0.64635
 Alpha  occ. eigenvalues --   -0.63474  -0.58870  -0.54776  -0.50875  -0.50371
 Alpha  occ. eigenvalues --   -0.48478  -0.47061  -0.45074  -0.43624  -0.40016
 Alpha  occ. eigenvalues --   -0.38294  -0.36773  -0.33697  -0.33387  -0.33109
 Alpha  occ. eigenvalues --   -0.31829  -0.30871  -0.26623  -0.25763
 Alpha virt. eigenvalues --   -0.02864   0.08692   0.10829   0.11734   0.12796
 Alpha virt. eigenvalues --    0.13233   0.13998   0.14625   0.15059   0.16009
 Alpha virt. eigenvalues --    0.16527   0.17545   0.17861   0.19083   0.20844

 Mulliken charges:
               1
     1  O   -0.237569
     2  C    0.138556
     3  C   -0.160324
     4  O   -0.272805
     5  C    0.200423
     6  C   -0.088793
     7  C   -0.223339
     8  C   -0.090632
     9  C   -0.217159
    10  H    0.097396
    11  H    0.122498
    12  H    0.127241
    13  H    0.063721
    14  H    0.076584
    15  H    0.100623
    16  H    0.092340
    17  H    0.072606
    18  H    0.090877
    19  H    0.107757
 Sum of Mulliken charges =   0.00000

 Dipole moment (field-independent basis, Debye):
    X=             -2.6762    Y=             -0.5905    Z=             -0.1872  Tot=              2.7470
 Quadrupole moment (field-independent basis, Debye-Ang):
   XX=            -65.3146   YY=            -52.1016   ZZ=            -52.6723
   XY=              0.3947   XZ=             -2.1317   YZ=              0.4441

  Exact polarizability:  95.850  -0.164  70.559   1.590  -1.142  65.713
 Approx polarizability: 122.989  -1.923 106.575   5.143  -3.395 102.662

                      1                      2                      3
                      A                      A                      A
 Frequencies --     49.7639                61.9889                94.2471
 Red. masses --      5.4467                 2.1149                 2.8742
 Frc consts  --      0.0079                 0.0048                 0.0150
 IR Inten    --      3.5893                 5.2089                 4.7690

                      4                      5                      6
                      A                      A                      A
 Frequencies --    121.2288               299.1205               319.4855
 Red. masses --      3.7421                 4.0372                 4.5329
 Frc consts  --      0.0324                 0.2128                 0.2726
 IR Inten    --      2.6100                 4.5556                 5.6211

                      7                      8                      9
                      A                      A                      A
 Frequencies --    370.6530               530.9831               547.9005
 Red. masses --      3.9149                 4.1360                 1.8729
 Frc consts  --      0.3169                 0.6871                 0.3313
 IR Inten    --      1.4241                14.6595                 1.7592

                     10                     11                     12
                      A                      A                      A
 Frequencies --    648.9579               740.5908               771.8570
 Red. masses --      4.1246                 1.2944                 2.9154
 Frc consts  --      1.0234                 0.4183                 1.0233
 IR Inten    --      0.5800                 0.4401                 1.2611

                     13                     14                     15
                      A                      A                      A
 Frequencies --    806.8294               880.5127               902.0096
 Red. masses --      2.7852                 2.1042                 2.2068
 Frc consts  --      1.0683                 0.9612                 1.0579
 IR Inten    --      0.7056                 4.7815                 0.9100

                     16                     17                     18
                      A                      A                      A
 Frequencies --    909.5223               919.3967              1009.9717
 Red. masses --      2.5862                 2.0373                 1.9841
 Frc consts  --      1.2605                 1.0146                 1.1924
 IR Inten    --      1.6768                 7.1238                24.4577

                     19                     20                     21
                      A                      A                      A
 Frequencies --   1020.5007              1026.1207              1039.8677
 Red. masses --      1.0346                 1.0186                 2.6070
 Frc consts  --      0.6348                 0.6319                 1.6609
 IR Inten    --      0.8978                 0.9058                39.1023

                     22                     23                     24
                      A                      A                      A
 Frequencies --   1084.7490              1103.3906              1111.5311
 Red. masses --      1.7664                 1.8106                 2.4697
 Frc consts  --      1.2246                 1.2988                 1.7978
 IR Inten    --      9.3028                 0.9321                25.9094

                     25                     26                     27
                      A                      A                      A
 Frequencies --   1116.4879              1120.8371              1154.1153
 Red. masses --      2.5304                 2.7702                 1.4503
 Frc consts  --      1.8584                 2.0504                 1.1382
 IR Inten    --     23.4331                 3.5283                16.6350

                     28                     29                     30
                      A                      A                      A
 Frequencies --   1185.1499              1198.9441              1217.4099
 Red. masses --      3.6789                 1.4430                 1.4510
 Frc consts  --      3.0445                 1.2221                 1.2671
 IR Inten    --    174.9964                13.7078                 5.6780

                     31                     32                     33
                      A                      A                      A
 Frequencies --   1238.4191              1246.7567              1259.2673
 Red. masses --      1.1160                 1.7414                 1.6842
 Frc consts  --      1.0084                 1.5948                 1.5736
 IR Inten    --      2.6891                 2.5834                11.7908

                     34                     35                     36
                      A                      A                      A
 Frequencies --   1280.3349              1346.6775              1398.5724
 Red. masses --      1.9415                 1.2528                 1.2096
 Frc consts  --      1.8751                 1.3386                 1.3941
 IR Inten    --     37.7031                23.7553                25.5813

                     37                     38                     39
                      A                      A                      A
 Frequencies --   1422.1808              1482.7704              1496.3018
 Red. masses --      1.2922                 1.1002                 1.0944
 Frc consts  --      1.5399                 1.4252                 1.4436
 IR Inten    --     18.3256                12.5763                 0.9556

                     40                     41                     42
                      A                      A                      A
 Frequencies --   1534.2096              1845.3667              2899.5305
 Red. masses --      1.1491                10.6643                 1.0845
 Frc consts  --      1.5935                21.3968                 5.3721
 IR Inten    --      5.6524               171.1602                78.8438

                     43                     44                     45
                      A                      A                      A
 Frequencies --   2963.0027              2994.4965              3005.8482
 Red. masses --      1.0603                 1.0841                 1.0965
 Frc consts  --      5.4847                 5.7275                 5.8373
 IR Inten    --     34.0900                67.2997                14.5677

                     46                     47                     48
                      A                      A                      A
 Frequencies --   3054.2774              3069.0234              3104.8339
 Red. masses --      1.0561                 1.0579                 1.0907
 Frc consts  --      5.8045                 5.8709                 6.1951
 IR Inten    --     47.9072                41.2293                75.4670

                     49                     50                     51
                      A                      A                      A
 Frequencies --   3113.9267              3126.1980              3149.3182
 Red. masses --      1.0940                 1.1081                 1.1070
 Frc consts  --      6.2501                 6.3808                 6.4692
 IR Inten    --     24.6468                33.4808                25.1966

 - Thermochemistry -
 -------------------
 Temperature   298.150 Kelvin.  Pressure   1.00000 Atm.
 Atom     1 has atomic number  8 and mass  15.99491

 Molecular mass:   126.06808 amu.
 Principal axes and moments of inertia in atomic units:
                           1         2         3
     Eigenvalues --   311.719622445.861572473.71662
           X            0.99999   0.00027  -0.00387
           Y           -0.00009   0.99891   0.04666
           Z            0.00388  -0.04666   0.99890
 This molecule is an asymmetric top.
 Rotational symmetry number  1.
 Rotational temperatures (Kelvin)      0.27786     0.03541     0.03501
 Rotational constants (GHZ):           5.78963     0.73788     0.72957
 Zero-point vibrational energy     415076.9 (Joules/Mol)
                                   99.20576 (Kcal/Mol)
 Warning -- explicit consideration of   9 degrees of freedom as
           vibrations may cause significant error
 Vibrational temperatures:     71.60    89.19   135.60   174.42   430.37
          (Kelvin)            459.67   533.29   763.97   788.31   933.70
                             1065.54  1110.53  1160.85  1266.86  1297.79
                             1308.60  1322.81  1453.12  1468.27  1476.36
                             1496.14  1560.71  1587.53  1599.24  1606.38
                             1612.63  1660.51  1705.16  1725.01  1751.58
                             1781.81  1793.80  1811.80  1842.11  1937.57
                             2012.23  2046.20  2133.37  2152.84  2207.38
                             2655.07  4171.77  4263.09  4308.41  4324.74
                             4394.42  4415.63  4467.16  4480.24  4497.90
                             4531.16

 Zero-point correction=                           0.158094 (Hartree/Particle)
 Thermal correction to Energy=                    0.166591
 Thermal correction to Enthalpy=                  0.167535
 Thermal correction to Gibbs Free Energy=         0.123390
 Sum of electronic and zero-point Energies=           -422.968442
 Sum of electronic and thermal Energies=              -422.959946
 Sum of electronic and thermal Enthalpies=            -422.959001
 Sum of electronic and thermal Free Energies=         -423.003146

                     E (Thermal)             CV                S
                      KCal/Mol        Cal/Mol-Kelvin    Cal/Mol-Kelvin
 Total                  104.537             30.861             92.911
 Electronic               0.000              0.000              0.000
 Translational            0.889              2.981             40.409
 Rotational               0.889              2.981             29.024
 Vibrational            102.760             24.900             23.478
 Vibration     1          0.595              1.978              4.827
 Vibration     2          0.597              1.972              4.393
 Vibration     3          0.603              1.953              3.570
 Vibration     4          0.609              1.931              3.081
 Vibration     5          0.692              1.675              1.422
 Vibration     6          0.705              1.636              1.313
 Vibration     7          0.743              1.532              1.077
 Vibration     8          0.886              1.181              0.585
 Vibration     9          0.903              1.144              0.549

 Optimization completed.
    -- Stationary point found.
 Normal termination of Gaussian 09 at Mon Jan 27 14:32:09 2020.
