 Gaussian 09, Revision D.01,
 Gaussian 09:  ES64L-G09RevD.01 24-Apr-2013

 -----------------------------
 # b3lyp 6-31G(2df,p) opt Freq
 -----------------------------

 -----
 titel
 -----
 Symbolic Z-matrix:
 Charge =  0 Multiplicity = 1

 SCF Done:  E(RB3LYP) =  -423.122327078     A.U. after   14 cycles
 Optimization completed.
    -- Stationary point found.
 Normal termination of Gaussian 09 at Mon Jan 27 22:06:20 2020.

 ----------------------------------------------------------------------
 #N Geom=AllCheck Guess=TCheck SCRF=Check GenChk RB3LYP/6-31G(2df,p) Fr
 eq
 ----------------------------------------------------------------------

 Structure from the checkpoint file:  "/scratch/puck/g09_3a0a8cc0-0827-487d-90ad-189ccc0ba6c8/Gau-46861.chk"
 -----
 titel
 -----
 Charge =  0 Multiplicity = 1

                         Standard orientation:
 ---------------------------------------------------------------------
 Center     Atomic      Atomic             Coordinates (Angstroms)
 Number     Number       Type             X           Y           Z
 ---------------------------------------------------------------------
      1          6           0       -2.009920   -1.305580   -0.310688
      2          6           0       -0.897721   -0.723007    0.563326
      3          6           0        0.516887   -1.066633    0.103091
      4          6           0        1.535219   -0.101600    0.772782
      5          8           0        2.399331   -0.123754   -0.415046
      6          6           0        1.024495   -0.016350   -0.930804
      7          6           0        0.658058    1.029772    0.161076
      8          6           0       -0.799255    0.842935    0.561578
      9          8           0       -1.706325    1.385714   -0.390851
     10          1           0       -1.897692   -1.005862   -1.355397
     11          1           0       -1.991915   -2.399265   -0.262439
     12          1           0       -2.993556   -0.965394    0.023223
     13          1           0       -1.043771   -1.071454    1.593004
     14          1           0        0.809406   -2.107278   -0.035809
     15          1           0        2.010562   -0.159696    1.752933
     16          1           0        0.887891    0.031093   -2.010484
     17          1           0        1.081851    2.032358    0.086551
     18          1           0       -1.008938    1.255843    1.559089
     19          1           0       -1.564468    2.336764   -0.425661
 ---------------------------------------------------------------------

 SCF Done:  E(RB3LYP) =  -423.122327078     A.U. after    1 cycles

 The electronic state is 1-A.
 Alpha  occ. eigenvalues --  -19.14012 -19.12651 -10.24474 -10.24290 -10.23453
 Alpha  occ. eigenvalues --  -10.19352 -10.19315 -10.19006 -10.17007  -1.05521
 Alpha  occ. eigenvalues --   -1.02142  -0.84571  -0.74613  -0.69399  -0.65575
 Alpha  occ. eigenvalues --   -0.64604  -0.56364  -0.53573  -0.52051  -0.50484
 Alpha  occ. eigenvalues --   -0.48251  -0.42026  -0.41857  -0.41267  -0.38382
 Alpha  occ. eigenvalues --   -0.36877  -0.36233  -0.35919  -0.32858  -0.31831
 Alpha  occ. eigenvalues --   -0.30466  -0.30379  -0.27481  -0.22596
 Alpha virt. eigenvalues --    0.06306   0.09250   0.11288   0.11501   0.13107
 Alpha virt. eigenvalues --    0.13511   0.14062   0.14779   0.15294   0.16041
 Alpha virt. eigenvalues --    0.17565   0.18369   0.18880   0.20476   0.20782

 Mulliken charges:
               1
     1  C   -0.390150
     2  C   -0.036860
     3  C   -0.031513
     4  C    0.029882
     5  O   -0.320531
     6  C    0.060649
     7  C   -0.073303
     8  C    0.082929
     9  O   -0.430700
    10  H    0.126401
    11  H    0.106251
    12  H    0.122657
    13  H    0.074268
    14  H    0.076149
    15  H    0.089119
    16  H    0.094854
    17  H    0.070870
    18  H    0.064978
    19  H    0.284049
 Sum of Mulliken charges =   0.00000

 Dipole moment (field-independent basis, Debye):
    X=             -1.1709    Y=              0.9053    Z=              1.1433  Tot=              1.8702
 Quadrupole moment (field-independent basis, Debye-Ang):
   XX=            -62.7747   YY=            -47.5177   ZZ=            -50.8554
   XY=             -0.0677   XZ=              1.1663   YZ=             -0.2232

  Exact polarizability:  78.203   1.224  74.859   1.316  -0.202  68.478
 Approx polarizability: 109.841  -0.668 108.314   1.670  -1.383 109.200

                      1                      2                      3
                      A                      A                      A
 Frequencies --     90.5130               205.0682               218.0662
 Red. masses --      3.3846                 2.6237                 1.1209
 Frc consts  --      0.0163                 0.0650                 0.0314
 IR Inten    --      0.0799                 0.7890                 0.7018

                      4                      5                      6
                      A                      A                      A
 Frequencies --    257.8044               275.6588               340.7341
 Red. masses --      1.1506                 3.0523                 3.9992
 Frc consts  --      0.0451                 0.1367                 0.2736
 IR Inten    --    107.9349                 1.8267                 7.8756

                      7                      8                      9
                      A                      A                      A
 Frequencies --    477.4303               496.5243               559.8159
 Red. masses --      4.5355                 5.0807                 3.6968
 Frc consts  --      0.6091                 0.7380                 0.6826
 IR Inten    --      4.1999                 2.9663                 4.9956

                     10                     11                     12
                      A                      A                      A
 Frequencies --    658.2058               714.2503               771.8005
 Red. masses --      3.6801                 3.8310                 3.6455
 Frc consts  --      0.9394                 1.1515                 1.2794
 IR Inten    --      2.2319                 4.3526                 8.1988

                     13                     14                     15
                      A                      A                      A
 Frequencies --    798.1148               854.4213               888.4048
 Red. masses --      2.8191                 3.2291                 3.2210
 Frc consts  --      1.0580                 1.3889                 1.4978
 IR Inten    --      0.4067                 3.5403                 5.2402

                     16                     17                     18
                      A                      A                      A
 Frequencies --    900.3485               903.7876               944.9275
 Red. masses --      2.5350                 2.1260                 1.7521
 Frc consts  --      1.2107                 1.0232                 0.9218
 IR Inten    --     30.4679                12.8098                 8.2887

                     19                     20                     21
                      A                      A                      A
 Frequencies --    976.7811               988.3271              1004.9294
 Red. masses --      5.0402                 1.1681                 1.6983
 Frc consts  --      2.8333                 0.6723                 1.0105
 IR Inten    --      3.5603                 2.7420                32.7745

                     22                     23                     24
                      A                      A                      A
 Frequencies --   1035.5972              1070.2677              1111.6471
 Red. masses --      1.6060                 1.9781                 1.7108
 Frc consts  --      1.0148                 1.3350                 1.2456
 IR Inten    --      3.7261                39.6798                 5.3700

                     25                     26                     27
                      A                      A                      A
 Frequencies --   1125.7662              1142.5270              1161.2380
 Red. masses --      2.6351                 2.4551                 1.5159
 Frc consts  --      1.9676                 1.8882                 1.2044
 IR Inten    --      0.2015                13.8715                 9.1852

                     28                     29                     30
                      A                      A                      A
 Frequencies --   1172.2972              1190.6785              1230.7363
 Red. masses --      1.4178                 1.6160                 1.4252
 Frc consts  --      1.1480                 1.3498                 1.2719
 IR Inten    --      0.6998                29.0975                 5.5060

                     31                     32                     33
                      A                      A                      A
 Frequencies --   1234.6323              1264.4787              1274.1776
 Red. masses --      1.5641                 1.5513                 1.8685
 Frc consts  --      1.4047                 1.4614                 1.7873
 IR Inten    --      7.2026                 8.6345                 1.0804

                     34                     35                     36
                      A                      A                      A
 Frequencies --   1302.2744              1344.0309              1359.4214
 Red. masses --      1.6573                 1.5706                 1.4198
 Frc consts  --      1.6559                 1.6716                 1.5459
 IR Inten    --     32.3252                11.2056                 2.0536

                     37                     38                     39
                      A                      A                      A
 Frequencies --   1376.4131              1405.8511              1426.1012
 Red. masses --      1.5741                 1.3258                 1.3951
 Frc consts  --      1.7571                 1.5438                 1.6717
 IR Inten    --      7.0335                 0.1227                 5.1693

                     40                     41                     42
                      A                      A                      A
 Frequencies --   1493.7477              1497.9886              2986.4242
 Red. masses --      1.0489                 1.0525                 1.0846
 Frc consts  --      1.3789                 1.3915                 5.6991
 IR Inten    --      3.8557                 5.3040                46.1714

                     43                     44                     45
                      A                      A                      A
 Frequencies --   3029.6308              3043.8745              3104.5231
 Red. masses --      1.0836                 1.0372                 1.0884
 Frc consts  --      5.8603                 5.6622                 6.1803
 IR Inten    --     40.8559                24.2682                34.6350

                     46                     47                     48
                      A                      A                      A
 Frequencies --   3111.0716              3114.1268              3123.0626
 Red. masses --      1.0998                 1.0894                 1.0898
 Frc consts  --      6.2718                 6.2247                 6.2626
 IR Inten    --     15.8792                57.8598                34.5347

                     49                     50                     51
                      A                      A                      A
 Frequencies --   3126.8553              3134.6445              3822.5603
 Red. masses --      1.1002                 1.0970                 1.0663
 Frc consts  --      6.3378                 6.3510                 9.1798
 IR Inten    --     34.3494                15.0419                22.7824

 - Thermochemistry -
 -------------------
 Temperature   298.150 Kelvin.  Pressure   1.00000 Atm.
 Atom     1 has atomic number  6 and mass  12.00000

 Molecular mass:   126.06808 amu.
 Principal axes and moments of inertia in atomic units:
                           1         2         3
     Eigenvalues --   583.353721170.891101424.30791
           X            0.99929   0.03629   0.00977
           Y           -0.03645   0.99920   0.01642
           Z           -0.00916  -0.01676   0.99982
 This molecule is an asymmetric top.
 Rotational symmetry number  1.
 Warning -- assumption of classical behavior for rotation
           may cause significant error
 Rotational temperatures (Kelvin)      0.14848     0.07397     0.06081
 Rotational constants (GHZ):           3.09373     1.54134     1.26710
 Zero-point vibrational energy     419545.7 (Joules/Mol)
                                  100.27382 (Kcal/Mol)
 Warning -- explicit consideration of   9 degrees of freedom as
           vibrations may cause significant error
 Vibrational temperatures:    130.23   295.05   313.75   370.92   396.61
          (Kelvin)            490.24   686.91   714.39   805.45   947.01
                             1027.65  1110.45  1148.31  1229.32  1278.21
                             1295.40  1300.35  1359.54  1405.37  1421.98
                             1445.87  1489.99  1539.87  1599.41  1619.72
                             1643.84  1670.76  1686.67  1713.12  1770.75
                             1776.36  1819.30  1833.26  1873.68  1933.76
                             1955.90  1980.35  2022.70  2051.84  2149.17
                             2155.27  4296.79  4358.96  4379.45  4466.71
                             4476.13  4480.53  4493.38  4498.84  4510.05
                             5499.80

 Zero-point correction=                           0.159797 (Hartree/Particle)
 Thermal correction to Energy=                    0.167509
 Thermal correction to Enthalpy=                  0.168453
 Thermal correction to Gibbs Free Energy=         0.127749
 Sum of electronic and zero-point Energies=           -422.962531
 Sum of electronic and thermal Energies=              -422.954818
 Sum of electronic and thermal Enthalpies=            -422.953874
 Sum of electronic and thermal Free Energies=         -422.994578

                     E (Thermal)             CV                S
                      KCal/Mol        Cal/Mol-Kelvin    Cal/Mol-Kelvin
 Total                  105.114             30.698             85.669
 Electronic               0.000              0.000              0.000
 Translational            0.889              2.981             40.409
 Rotational               0.889              2.981             28.366
 Vibrational            103.336             24.737             16.894
 Vibration     1          0.602              1.956              3.649
 Vibration     2          0.640              1.833              2.087
 Vibration     3          0.646              1.814              1.975
 Vibration     4          0.667              1.750              1.677
 Vibration     5          0.677              1.718              1.560
 Vibration     6          0.720              1.594              1.209
 Vibration     7          0.834              1.300              0.717
 Vibration     8          0.852              1.258              0.667
 Vibration     9          0.915              1.118              0.524

 Optimization completed.
    -- Stationary point found.
 Normal termination of Gaussian 09 at Mon Jan 27 22:58:00 2020.
