 Gaussian 09, Revision D.01,
 Gaussian 09:  ES64L-G09RevD.01 24-Apr-2013

 -----------------------------
 # b3lyp 6-31G(2df,p) opt Freq
 -----------------------------

 -----
 titel
 -----
 Symbolic Z-matrix:
 Charge =  0 Multiplicity = 1

 SCF Done:  E(RB3LYP) =  -423.154498522     A.U. after   13 cycles
 Optimization completed.
    -- Stationary point found.
 Normal termination of Gaussian 09 at Mon Jan 27 18:21:27 2020.

 ----------------------------------------------------------------------
 #N Geom=AllCheck Guess=TCheck SCRF=Check GenChk RB3LYP/6-31G(2df,p) Fr
 eq
 ----------------------------------------------------------------------

 Structure from the checkpoint file:  "/scratch/puck/g09_67e13007-c73b-444f-9ebb-3f66693820df/Gau-149856.chk"
 -----
 titel
 -----
 Charge =  0 Multiplicity = 1

                         Standard orientation:
 ---------------------------------------------------------------------
 Center     Atomic      Atomic             Coordinates (Angstroms)
 Number     Number       Type             X           Y           Z
 ---------------------------------------------------------------------
      1          6           0        2.392873   -0.737658   -0.233296
      2          6           0        0.938028   -0.474768    0.023268
      3          6           0        0.094509   -1.060398    1.158664
      4          6           0       -0.910550    0.128771    1.012702
      5          6           0       -2.021395   -0.241554    0.030134
      6          8           0       -1.316953   -0.643318   -1.155476
      7          6           0       -0.039607   -0.043501   -1.081760
      8          6           0        0.130008    0.837824    0.091383
      9          8           0        0.456405    2.174744    0.016887
     10          1           0        2.788510   -0.063286   -1.000045
     11          1           0        2.991500   -0.595071    0.674560
     12          1           0        2.556570   -1.765568   -0.578110
     13          1           0       -0.322130   -2.061843    1.004928
     14          1           0        0.629236   -1.034359    2.112821
     15          1           0       -1.236568    0.628661    1.924665
     16          1           0       -2.639767   -1.083047    0.359262
     17          1           0       -2.673880    0.619310   -0.183087
     18          1           0        0.379987    0.226623   -2.043881
     19          1           0        0.907730    2.424882    0.831036
 ---------------------------------------------------------------------

 SCF Done:  E(RB3LYP) =  -423.154498522     A.U. after    1 cycles

 The electronic state is 1-A.
 Alpha  occ. eigenvalues --  -19.15550 -19.13290 -10.23305 -10.22390 -10.22293
 Alpha  occ. eigenvalues --  -10.19256 -10.19248 -10.18458 -10.18089  -1.04632
 Alpha  occ. eigenvalues --   -1.02718  -0.87737  -0.76040  -0.71883  -0.67615
 Alpha  occ. eigenvalues --   -0.60196  -0.57517  -0.56079  -0.50129  -0.47332
 Alpha  occ. eigenvalues --   -0.46706  -0.43570  -0.41616  -0.41310  -0.40491
 Alpha  occ. eigenvalues --   -0.39569  -0.38060  -0.37076  -0.33800  -0.32569
 Alpha  occ. eigenvalues --   -0.31356  -0.28447  -0.24018  -0.22024
 Alpha virt. eigenvalues --    0.07000   0.10072   0.10599   0.12065   0.12929
 Alpha virt. eigenvalues --    0.13606   0.13903   0.15986   0.16238   0.17259
 Alpha virt. eigenvalues --    0.18103   0.18345   0.19588   0.19929   0.23329

 Mulliken charges:
               1
     1  C   -0.510364
     2  C    0.216057
     3  C   -0.276984
     4  C   -0.146582
     5  C   -0.082734
     6  O   -0.270322
     7  C    0.019081
     8  C    0.291960
     9  O   -0.459113
    10  H    0.124285
    11  H    0.112530
    12  H    0.126197
    13  H    0.099596
    14  H    0.093528
    15  H    0.072004
    16  H    0.105434
    17  H    0.095428
    18  H    0.103703
    19  H    0.286295
 Sum of Mulliken charges =   0.00000

 Dipole moment (field-independent basis, Debye):
    X=              1.1081    Y=              0.3404    Z=              2.3004  Tot=              2.5760
 Quadrupole moment (field-independent basis, Debye-Ang):
   XX=            -51.2472   YY=            -54.7644   ZZ=            -52.0285
   XY=              0.3557   XZ=             -1.8023   YZ=              1.8241

  Exact polarizability:  83.785  -1.562  71.291  -1.508  -0.741  69.436
 Approx polarizability: 111.545  -0.842 109.215   0.748   1.120 106.828

                      1                      2                      3
                      A                      A                      A
 Frequencies --    165.5965               184.2851               217.6956
 Red. masses --      2.8465                 1.0571                 2.5902
 Frc consts  --      0.0460                 0.0212                 0.0723
 IR Inten    --      0.3541                 0.5821                 1.7124

                      4                      5                      6
                      A                      A                      A
 Frequencies --    252.2029               295.9206               324.3005
 Red. masses --      2.8954                 2.8266                 2.5456
 Frc consts  --      0.1085                 0.1458                 0.1577
 IR Inten    --      2.0857                12.0653                 1.3488

                      7                      8                      9
                      A                      A                      A
 Frequencies --    356.6204               427.0764               519.0199
 Red. masses --      1.3525                 2.1650                 3.6529
 Frc consts  --      0.1013                 0.2327                 0.5798
 IR Inten    --     80.0908                16.4489                 3.1111

                     10                     11                     12
                      A                      A                      A
 Frequencies --    547.9069               632.0674               709.3161
 Red. masses --      3.3068                 4.5043                 3.6250
 Frc consts  --      0.5849                 1.0602                 1.0746
 IR Inten    --      4.2897                 4.9504                 3.2997

                     13                     14                     15
                      A                      A                      A
 Frequencies --    753.7510               781.0514               845.5540
 Red. masses --      4.9277                 4.3461                 2.4884
 Frc consts  --      1.6495                 1.5621                 1.0482
 IR Inten    --     12.4233                 4.3926                10.2924

                     16                     17                     18
                      A                      A                      A
 Frequencies --    902.6953               926.8238               932.4413
 Red. masses --      2.5764                 2.4478                 2.6615
 Frc consts  --      1.2369                 1.2388                 1.3634
 IR Inten    --     12.4965                 9.3401                 4.5559

                     19                     20                     21
                      A                      A                      A
 Frequencies --    966.2941               997.0826              1011.8920
 Red. masses --      1.8262                 1.4545                 1.8578
 Frc consts  --      1.0046                 0.8520                 1.1207
 IR Inten    --      3.1565                 5.6234                13.9525

                     22                     23                     24
                      A                      A                      A
 Frequencies --   1039.3713              1068.5001              1105.9976
 Red. masses --      1.5119                 3.3585                 1.6618
 Frc consts  --      0.9623                 2.2591                 1.1977
 IR Inten    --     25.6517                54.8585                10.4178

                     25                     26                     27
                      A                      A                      A
 Frequencies --   1134.9873              1152.5464              1165.0737
 Red. masses --      2.3781                 1.5837                 1.6439
 Frc consts  --      1.8049                 1.2395                 1.3147
 IR Inten    --     18.8216                 7.8727                 6.7273

                     28                     29                     30
                      A                      A                      A
 Frequencies --   1223.5185              1227.5052              1236.5330
 Red. masses --      1.9292                 1.4451                 1.8286
 Frc consts  --      1.7016                 1.2829                 1.6473
 IR Inten    --     21.8686                 3.5141                 5.3141

                     31                     32                     33
                      A                      A                      A
 Frequencies --   1272.5881              1287.8187              1301.1701
 Red. masses --      1.5405                 1.9800                 1.6240
 Frc consts  --      1.4699                 1.9347                 1.6199
 IR Inten    --     61.2816                65.6796                54.0745

                     34                     35                     36
                      A                      A                      A
 Frequencies --   1361.8157              1375.3247              1414.2144
 Red. masses --      2.0348                 1.4539                 1.3292
 Frc consts  --      2.2233                 1.6203                 1.5663
 IR Inten    --      1.8829                 4.6992                 0.6896

                     37                     38                     39
                      A                      A                      A
 Frequencies --   1474.0975              1486.2927              1493.8439
 Red. masses --      1.5111                 1.0593                 1.1107
 Frc consts  --      1.9346                 1.3787                 1.4604
 IR Inten    --      3.7404                 6.8280                 1.6209

                     40                     41                     42
                      A                      A                      A
 Frequencies --   1512.5998              1514.1388              2985.4284
 Red. masses --      1.1782                 1.6251                 1.0681
 Frc consts  --      1.5883                 2.1951                 5.6091
 IR Inten    --      5.5156                16.0188                82.3145

                     43                     44                     45
                      A                      A                      A
 Frequencies --   3018.0912              3037.1544              3072.0683
 Red. masses --      1.0360                 1.0573                 1.0958
 Frc consts  --      5.5598                 5.7462                 6.0929
 IR Inten    --     39.1581                44.8279                34.0991

                     46                     47                     48
                      A                      A                      A
 Frequencies --   3075.1388              3089.7868              3093.7878
 Red. masses --      1.1006                 1.1073                 1.0998
 Frc consts  --      6.1323                 6.2285                 6.2020
 IR Inten    --     22.0747                27.6687                18.4181

                     49                     50                     51
                      A                      A                      A
 Frequencies --   3119.3740              3190.8342              3787.2443
 Red. masses --      1.0896                 1.0916                 1.0661
 Frc consts  --      6.2467                 6.5480                 9.0090
 IR Inten    --     30.7492                 9.7629                17.8353

 - Thermochemistry -
 -------------------
 Temperature   298.150 Kelvin.  Pressure   1.00000 Atm.
 Atom     1 has atomic number  6 and mass  12.00000

 Molecular mass:   126.06808 amu.
 Principal axes and moments of inertia in atomic units:
                           1         2         3
     Eigenvalues --   755.019401039.343971219.52813
           X            0.99836  -0.04872  -0.02995
           Y            0.04798   0.99854  -0.02474
           Z            0.03111   0.02327   0.99925
 This molecule is an asymmetric top.
 Rotational symmetry number  1.
 Warning -- assumption of classical behavior for rotation
           may cause significant error
 Rotational temperatures (Kelvin)      0.11472     0.08334     0.07102
 Rotational constants (GHZ):           2.39032     1.73642     1.47987
 Zero-point vibrational energy     419090.4 (Joules/Mol)
                                  100.16500 (Kcal/Mol)
 Warning -- explicit consideration of  10 degrees of freedom as
           vibrations may cause significant error
 Vibrational temperatures:    238.26   265.14   313.21   362.86   425.76
          (Kelvin)            466.60   513.10   614.47   746.75   788.31
                              909.40  1020.55  1084.48  1123.76  1216.56
                             1298.78  1333.49  1341.57  1390.28  1434.58
                             1455.89  1495.42  1537.33  1591.28  1632.99
                             1658.26  1676.28  1760.37  1766.10  1779.09
                             1830.97  1852.88  1872.09  1959.35  1978.78
                             2034.74  2120.89  2138.44  2149.31  2176.29
                             2178.51  4295.36  4342.35  4369.78  4420.02
                             4424.43  4445.51  4451.26  4488.08  4590.89
                             5448.99

 Zero-point correction=                           0.159623 (Hartree/Particle)
 Thermal correction to Energy=                    0.167564
 Thermal correction to Enthalpy=                  0.168509
 Thermal correction to Gibbs Free Energy=         0.127738
 Sum of electronic and zero-point Energies=           -422.994875
 Sum of electronic and thermal Energies=              -422.986934
 Sum of electronic and thermal Enthalpies=            -422.985990
 Sum of electronic and thermal Free Energies=         -423.026760

                     E (Thermal)             CV                S
                      KCal/Mol        Cal/Mol-Kelvin    Cal/Mol-Kelvin
 Total                  105.148             31.638             85.808
 Electronic               0.000              0.000              0.000
 Translational            0.889              2.981             40.409
 Rotational               0.889              2.981             28.350
 Vibrational            103.371             25.676             17.050
 Vibration     1          0.624              1.885              2.485
 Vibration     2          0.631              1.861              2.285
 Vibration     3          0.646              1.814              1.978
 Vibration     4          0.664              1.759              1.715
 Vibration     5          0.690              1.681              1.440
 Vibration     6          0.709              1.627              1.288
 Vibration     7          0.732              1.562              1.137
 Vibration     8          0.789              1.411              0.868
 Vibration     9          0.874              1.208              0.612
 Vibration    10          0.903              1.144              0.549

 Optimization completed.
    -- Stationary point found.
 Normal termination of Gaussian 09 at Mon Jan 27 19:14:30 2020.
