 Gaussian 09, Revision D.01,
 Gaussian 09:  ES64L-G09RevD.01 24-Apr-2013

 -----------------------------
 # b3lyp 6-31G(2df,p) opt Freq
 -----------------------------

 -----
 titel
 -----
 Symbolic Z-matrix:
 Charge =  0 Multiplicity = 1

 SCF Done:  E(RB3LYP) =  -423.124071226     A.U. after   13 cycles
 Optimization completed.
    -- Stationary point found.
 Normal termination of Gaussian 09 at Tue Jan 28 02:56:10 2020.

 ----------------------------------------------------------------------
 #N Geom=AllCheck Guess=TCheck SCRF=Check GenChk RB3LYP/6-31G(2df,p) Fr
 eq
 ----------------------------------------------------------------------

 Structure from the checkpoint file:  "/scratch/puck/g09_f42e3154-baec-4e23-ad79-c1187b74f65f/Gau-89748.chk"
 -----
 titel
 -----
 Charge =  0 Multiplicity = 1

                         Standard orientation:
 ---------------------------------------------------------------------
 Center     Atomic      Atomic             Coordinates (Angstroms)
 Number     Number       Type             X           Y           Z
 ---------------------------------------------------------------------
      1          6           0       -2.658696    0.982348    0.064076
      2          6           0       -1.339366    0.328926    0.423239
      3          8           0       -1.367613   -1.110339    0.165531
      4          6           0       -0.292206   -1.009461   -0.774345
      5          6           0        1.148421   -1.168376   -0.203332
      6          8           0        1.171063   -0.559552    1.091990
      7          6           0        1.273701    0.300742   -0.045976
      8          6           0        2.430694    1.241381   -0.129562
      9          6           0       -0.173315    0.516707   -0.582228
     10          1           0       -2.908405    0.817233   -0.988761
     11          1           0       -3.465230    0.566097    0.675561
     12          1           0       -2.611278    2.061778    0.247342
     13          1           0       -1.069304    0.520386    1.466481
     14          1           0       -0.483214   -1.503234   -1.730733
     15          1           0        1.886094   -1.941105   -0.394720
     16          1           0        3.353443    0.737624    0.170167
     17          1           0        2.550628    1.621099   -1.149337
     18          1           0        2.280231    2.101065    0.533593
     19          1           0       -0.295962    1.224573   -1.400996
 ---------------------------------------------------------------------

 SCF Done:  E(RB3LYP) =  -423.124071226     A.U. after    1 cycles

 The electronic state is 1-A.
 Alpha  occ. eigenvalues --  -19.15293 -19.12728 -10.24709 -10.23517 -10.23325
 Alpha  occ. eigenvalues --  -10.23076 -10.19136 -10.19131 -10.17513  -1.08544
 Alpha  occ. eigenvalues --   -1.02594  -0.78867  -0.75269  -0.74086  -0.66420
 Alpha  occ. eigenvalues --   -0.60258  -0.58157  -0.53380  -0.50822  -0.49084
 Alpha  occ. eigenvalues --   -0.46426  -0.44745  -0.42540  -0.41842  -0.40058
 Alpha  occ. eigenvalues --   -0.38587  -0.38184  -0.37235  -0.34898  -0.33527
 Alpha  occ. eigenvalues --   -0.30263  -0.27081  -0.25842  -0.23853
 Alpha virt. eigenvalues --    0.06028   0.08894   0.10732   0.11444   0.11912
 Alpha virt. eigenvalues --    0.13174   0.13530   0.15032   0.15618   0.15863
 Alpha virt. eigenvalues --    0.16439   0.17556   0.18952   0.20439   0.21921

 Mulliken charges:
               1
     1  C   -0.413921
     2  C    0.157042
     3  O   -0.308463
     4  C    0.104073
     5  C   -0.081691
     6  O   -0.264191
     7  C    0.403990
     8  C   -0.505716
     9  C   -0.198671
    10  H    0.116882
    11  H    0.128797
    12  H    0.113082
    13  H    0.093652
    14  H    0.079819
    15  H    0.100879
    16  H    0.137027
    17  H    0.125690
    18  H    0.132772
    19  H    0.078947
 Sum of Mulliken charges =   0.00000

 Dipole moment (field-independent basis, Debye):
    X=              1.0664    Y=              1.7360    Z=             -2.0757  Tot=              2.9085
 Quadrupole moment (field-independent basis, Debye-Ang):
   XX=            -51.8942   YY=            -52.2004   ZZ=            -53.6954
   XY=             -2.3691   XZ=             -1.7685   YZ=              2.5496

  Exact polarizability:  85.992  -2.184  75.267  -0.505   3.041  63.890
 Approx polarizability: 107.346  -0.819 115.183  -0.197   3.022 103.744

                      1                      2                      3
                      A                      A                      A
 Frequencies --    146.5535               176.2182               201.3177
 Red. masses --      3.2601                 2.4054                 1.1517
 Frc consts  --      0.0413                 0.0440                 0.0275
 IR Inten    --      2.1746                 0.0655                 0.0783

                      4                      5                      6
                      A                      A                      A
 Frequencies --    215.5605               239.1542               320.6631
 Red. masses --      2.2683                 1.1636                 3.0211
 Frc consts  --      0.0621                 0.0392                 0.1830
 IR Inten    --      1.3027                 0.5177                 0.0498

                      7                      8                      9
                      A                      A                      A
 Frequencies --    338.1559               400.5550               531.9623
 Red. masses --      4.4185                 3.1261                 3.1606
 Frc consts  --      0.2977                 0.2955                 0.5270
 IR Inten    --      1.4569                 4.5129                 0.4977

                     10                     11                     12
                      A                      A                      A
 Frequencies --    574.9698               654.5237               746.4720
 Red. masses --      4.6602                 4.8255                 4.7809
 Frc consts  --      0.9077                 1.2180                 1.5696
 IR Inten    --     13.7091                 8.5677                 0.8910

                     13                     14                     15
                      A                      A                      A
 Frequencies --    793.6827               825.0399               857.3248
 Red. masses --      3.0242                 2.2715                 2.3179
 Frc consts  --      1.1224                 0.9110                 1.0038
 IR Inten    --      4.4036                 5.0005                29.8372

                     16                     17                     18
                      A                      A                      A
 Frequencies --    869.2800               886.3658               920.9575
 Red. masses --      2.1668                 2.0897                 2.3218
 Frc consts  --      0.9647                 0.9673                 1.1603
 IR Inten    --      6.5437                 3.2795                 2.7219

                     19                     20                     21
                      A                      A                      A
 Frequencies --    936.3248               995.8390              1017.8583
 Red. masses --      2.8443                 1.9100                 4.2094
 Frc consts  --      1.4692                 1.1160                 2.5695
 IR Inten    --      4.4450                17.6980                69.3967

                     22                     23                     24
                      A                      A                      A
 Frequencies --   1030.1909              1071.7513              1090.5546
 Red. masses --      1.8327                 1.9527                 1.7479
 Frc consts  --      1.1460                 1.3215                 1.2248
 IR Inten    --     13.5647                28.3933                 8.9181

                     25                     26                     27
                      A                      A                      A
 Frequencies --   1098.3558              1133.7311              1165.0249
 Red. masses --      1.8135                 2.4428                 1.7766
 Frc consts  --      1.2890                 1.8499                 1.4207
 IR Inten    --      7.7416                 7.1968                 4.9085

                     28                     29                     30
                      A                      A                      A
 Frequencies --   1175.5706              1217.2772              1242.6173
 Red. masses --      2.3686                 1.4883                 1.4995
 Frc consts  --      1.9286                 1.2993                 1.3642
 IR Inten    --     13.3354                 1.2537                 1.0219

                     31                     32                     33
                      A                      A                      A
 Frequencies --   1272.0456              1291.1010              1326.2328
 Red. masses --      1.4557                 1.7693                 1.5183
 Frc consts  --      1.3878                 1.7377                 1.5735
 IR Inten    --     11.0870                 8.2703                13.1151

                     34                     35                     36
                      A                      A                      A
 Frequencies --   1366.2583              1403.0515              1406.3285
 Red. masses --      1.5207                 1.2705                 1.3057
 Frc consts  --      1.6725                 1.4736                 1.5215
 IR Inten    --     13.8309                 6.2246                 1.3330

                     37                     38                     39
                      A                      A                      A
 Frequencies --   1459.4939              1481.7494              1482.7735
 Red. masses --      3.0284                 1.0900                 1.0722
 Frc consts  --      3.8008                 1.4101                 1.3890
 IR Inten    --     14.9203                 9.6452                 0.6290

                     40                     41                     42
                      A                      A                      A
 Frequencies --   1492.9035              1493.8093              3031.2557
 Red. masses --      1.1379                 1.0485                 1.0350
 Frc consts  --      1.4942                 1.3785                 5.6034
 IR Inten    --      2.5642                 2.8380                18.8235

                     43                     44                     45
                      A                      A                      A
 Frequencies --   3033.3001              3059.2348              3076.3604
 Red. masses --      1.0365                 1.0855                 1.0887
 Frc consts  --      5.6187                 5.9854                 6.0704
 IR Inten    --     20.7558                21.9377                39.8288

                     46                     47                     48
                      A                      A                      A
 Frequencies --   3095.5897              3103.7448              3112.1191
 Red. masses --      1.0996                 1.1004                 1.1020
 Frc consts  --      6.2081                 6.2456                 6.2883
 IR Inten    --     14.1655                23.6859                23.5618

                     49                     50                     51
                      A                      A                      A
 Frequencies --   3121.7734              3124.8666              3168.2157
 Red. masses --      1.1004                 1.0906                 1.0943
 Frc consts  --      6.3186                 6.2743                 6.4717
 IR Inten    --      7.0971                28.2947                25.6460

 - Thermochemistry -
 -------------------
 Temperature   298.150 Kelvin.  Pressure   1.00000 Atm.
 Atom     1 has atomic number  6 and mass  12.00000

 Molecular mass:   126.06808 amu.
 Principal axes and moments of inertia in atomic units:
                           1         2         3
     Eigenvalues --   548.378051305.447711539.18141
           X            0.99991  -0.01005  -0.00842
           Y            0.01027   0.99959   0.02687
           Z            0.00815  -0.02695   0.99960
 This molecule is an asymmetric top.
 Rotational symmetry number  1.
 Warning -- assumption of classical behavior for rotation
           may cause significant error
 Rotational temperatures (Kelvin)      0.15795     0.06635     0.05627
 Rotational constants (GHZ):           3.29105     1.38247     1.17253
 Zero-point vibrational energy     414362.9 (Joules/Mol)
                                   99.03510 (Kcal/Mol)
 Warning -- explicit consideration of  10 degrees of freedom as
           vibrations may cause significant error
 Vibrational temperatures:    210.86   253.54   289.65   310.14   344.09
          (Kelvin)            461.36   486.53   576.31   765.37   827.25
                              941.71  1074.01  1141.93  1187.05  1233.50
                             1250.70  1275.28  1325.05  1347.16  1432.79
                             1464.47  1482.21  1542.01  1569.06  1580.29
                             1631.18  1676.21  1691.38  1751.39  1787.85
                             1830.19  1857.60  1908.15  1965.74  2018.68
                             2023.39  2099.88  2131.90  2133.38  2147.95
                             2149.26  4361.30  4364.24  4401.55  4426.19
                             4453.86  4465.59  4477.64  4491.53  4495.98
                             4558.35

 Zero-point correction=                           0.157822 (Hartree/Particle)
 Thermal correction to Energy=                    0.165969
 Thermal correction to Enthalpy=                  0.166913
 Thermal correction to Gibbs Free Energy=         0.125528
 Sum of electronic and zero-point Energies=           -422.966249
 Sum of electronic and thermal Energies=              -422.958103
 Sum of electronic and thermal Enthalpies=            -422.957158
 Sum of electronic and thermal Free Energies=         -422.998544

                     E (Thermal)             CV                S
                      KCal/Mol        Cal/Mol-Kelvin    Cal/Mol-Kelvin
 Total                  104.147             31.836             87.102
 Electronic               0.000              0.000              0.000
 Translational            0.889              2.981             40.409
 Rotational               0.889              2.981             28.490
 Vibrational            102.369             25.874             18.204
 Vibration     1          0.617              1.906              2.717
 Vibration     2          0.628              1.872              2.368
 Vibration     3          0.638              1.838              2.121
 Vibration     4          0.645              1.817              1.996
 Vibration     5          0.657              1.781              1.809
 Vibration     6          0.706              1.634              1.307
 Vibration     7          0.718              1.599              1.221
 Vibration     8          0.766              1.469              0.961
 Vibration     9          0.887              1.179              0.583
 Vibration    10          0.931              1.085              0.495

 Optimization completed.
    -- Stationary point found.
 Normal termination of Gaussian 09 at Tue Jan 28 03:49:31 2020.
