 Gaussian 09, Revision D.01,
 Gaussian 09:  ES64L-G09RevD.01 24-Apr-2013

 -----------------------------
 # b3lyp 6-31G(2df,p) opt Freq
 -----------------------------

 -----
 titel
 -----
 Symbolic Z-matrix:
 Charge =  0 Multiplicity = 1

 SCF Done:  E(RB3LYP) =  -423.206563850     A.U. after   14 cycles
 Optimization completed.
    -- Stationary point found.
 Normal termination of Gaussian 09 at Mon Jan 27 22:04:28 2020.

 ----------------------------------------------------------------------
 #N Geom=AllCheck Guess=TCheck SCRF=Check GenChk RB3LYP/6-31G(2df,p) Fr
 eq
 ----------------------------------------------------------------------

 Structure from the checkpoint file:  "/scratch/puck/g09_fc761968-a230-4f89-bb78-247559bcb9dc/Gau-189554.chk"
 -----
 titel
 -----
 Charge =  0 Multiplicity = 1

                         Standard orientation:
 ---------------------------------------------------------------------
 Center     Atomic      Atomic             Coordinates (Angstroms)
 Number     Number       Type             X           Y           Z
 ---------------------------------------------------------------------
      1          6           0        2.727753   -0.530192   -0.071692
      2          6           0        1.271405   -0.227786   -0.400538
      3          6           0        0.625263    0.956529    0.402739
      4          6           0        0.141178    2.186490   -0.350939
      5          6           0       -0.436179   -0.034106    0.997975
      6          6           0        0.229590   -1.190470    0.216500
      7          8           0       -0.964204   -1.318655   -0.621796
      8          6           0       -1.610441   -0.311471    0.064774
      9          8           0       -2.709458    0.100023   -0.125303
     10          1           0        3.377771    0.293439   -0.384813
     11          1           0        2.872606   -0.673999    1.005408
     12          1           0        3.068161   -1.439119   -0.578950
     13          1           0        1.131197   -0.143503   -1.482251
     14          1           0        1.302979    1.258666    1.207706
     15          1           0       -0.560095    1.921013   -1.148032
     16          1           0       -0.368971    2.886660    0.318670
     17          1           0        0.985944    2.713974   -0.807100
     18          1           0       -0.644024   -0.009119    2.065688
     19          1           0        0.532305   -2.152917    0.627557
 ---------------------------------------------------------------------

 SCF Done:  E(RB3LYP) =  -423.206563850     A.U. after    1 cycles

 The electronic state is 1-A.
 Alpha  occ. eigenvalues --  -19.17680 -19.13182 -10.30479 -10.25222 -10.20985
 Alpha  occ. eigenvalues --  -10.20848 -10.20233 -10.19142 -10.18381  -1.10244
 Alpha  occ. eigenvalues --   -1.02998  -0.85792  -0.75344  -0.73229  -0.67096
 Alpha  occ. eigenvalues --   -0.63088  -0.58524  -0.52059  -0.51318  -0.49342
 Alpha  occ. eigenvalues --   -0.46917  -0.44145  -0.43703  -0.41752  -0.41311
 Alpha  occ. eigenvalues --   -0.40955  -0.38524  -0.37609  -0.34729  -0.34440
 Alpha  occ. eigenvalues --   -0.32525  -0.30481  -0.28859  -0.26913
 Alpha virt. eigenvalues --    0.00841   0.07662   0.08749   0.09542   0.11484
 Alpha virt. eigenvalues --    0.11662   0.13903   0.14397   0.14865   0.15843
 Alpha virt. eigenvalues --    0.16813   0.17564   0.18453   0.18911   0.20800

 Mulliken charges:
               1
     1  C   -0.416745
     2  C   -0.006833
     3  C    0.001096
     4  C   -0.415210
     5  C   -0.253478
     6  C    0.098630
     7  O   -0.256992
     8  C    0.454413
     9  O   -0.330802
    10  H    0.124777
    11  H    0.117110
    12  H    0.124022
    13  H    0.091995
    14  H    0.084534
    15  H    0.138088
    16  H    0.126593
    17  H    0.118267
    18  H    0.105081
    19  H    0.095455
 Sum of Mulliken charges =   0.00000

 Dipole moment (field-independent basis, Debye):
    X=              3.9501    Y=              0.2697    Z=              1.5008  Tot=              4.2342
 Quadrupole moment (field-independent basis, Debye-Ang):
   XX=            -61.8610   YY=            -52.3069   ZZ=            -51.8834
   XY=             -0.4385   XZ=             -2.1145   YZ=             -1.6829

  Exact polarizability:  87.449  -4.257  74.105  -0.367   0.203  63.145
 Approx polarizability: 123.619  -8.388 106.787   1.380   3.619  99.165

                      1                      2                      3
                      A                      A                      A
 Frequencies --     69.7603               137.4983               216.5165
 Red. masses --      4.1137                 5.2516                 1.4136
 Frc consts  --      0.0118                 0.0585                 0.0390
 IR Inten    --      0.8570                 3.1411                 0.3343

                      4                      5                      6
                      A                      A                      A
 Frequencies --    223.6522               230.3658               249.5141
 Red. masses --      1.9237                 1.1141                 1.9940
 Frc consts  --      0.0567                 0.0348                 0.0731
 IR Inten    --      0.3081                 0.2564                 0.2338

                      7                      8                      9
                      A                      A                      A
 Frequencies --    331.9299               404.6614               454.6843
 Red. masses --      2.4505                 4.7023                 4.6108
 Frc consts  --      0.1591                 0.4537                 0.5616
 IR Inten    --      0.1816                 2.1884                 0.7530

                     10                     11                     12
                      A                      A                      A
 Frequencies --    499.7777               632.8790               733.4040
 Red. masses --      4.0111                 4.2224                 4.0832
 Frc consts  --      0.5903                 0.9964                 1.2940
 IR Inten    --      3.0140                 1.0112                 4.9046

                     13                     14                     15
                      A                      A                      A
 Frequencies --    784.8532               807.0063               866.2479
 Red. masses --      4.4105                 2.4780                 1.7171
 Frc consts  --      1.6007                 0.9508                 0.7591
 IR Inten    --      3.4660                 1.0201                 5.2750

                     16                     17                     18
                      A                      A                      A
 Frequencies --    885.3419               897.9481               944.9956
 Red. masses --      2.2428                 2.4389                 3.8065
 Frc consts  --      1.0357                 1.1587                 2.0028
 IR Inten    --      8.6430                 3.2258                79.6619

                     19                     20                     21
                      A                      A                      A
 Frequencies --    951.4793               988.1762              1061.1625
 Red. masses --      2.5121                 1.2107                 1.7346
 Frc consts  --      1.3399                 0.6966                 1.1508
 IR Inten    --     11.0042                 1.2835                25.0873

                     22                     23                     24
                      A                      A                      A
 Frequencies --   1072.0788              1098.9123              1115.0225
 Red. masses --      2.0232                 2.6705                 1.9654
 Frc consts  --      1.3701                 1.9000                 1.4397
 IR Inten    --      3.2898                51.4228                10.3522

                     25                     26                     27
                      A                      A                      A
 Frequencies --   1128.6330              1150.5106              1194.8440
 Red. masses --      2.2530                 2.3153                 1.8863
 Frc consts  --      1.6909                 1.8057                 1.5867
 IR Inten    --      3.0846                 4.7493                 5.9671

                     28                     29                     30
                      A                      A                      A
 Frequencies --   1206.7393              1238.1120              1253.7122
 Red. masses --      1.6935                 1.8499                 1.5496
 Frc consts  --      1.4530                 1.6708                 1.4351
 IR Inten    --      4.4960                12.8008                 2.2998

                     31                     32                     33
                      A                      A                      A
 Frequencies --   1290.4866              1312.4780              1338.1100
 Red. masses --      1.3259                 1.6234                 1.4340
 Frc consts  --      1.3010                 1.6476                 1.5128
 IR Inten    --      8.5649                20.7684                 3.8463

                     34                     35                     36
                      A                      A                      A
 Frequencies --   1381.4891              1411.9036              1418.2418
 Red. masses --      1.6722                 1.2322                 1.2363
 Frc consts  --      1.8803                 1.4473                 1.4651
 IR Inten    --      2.0983                 2.2091                 1.8593

                     37                     38                     39
                      A                      A                      A
 Frequencies --   1493.7533              1495.7783              1496.2345
 Red. masses --      1.0472                 1.0428                 1.0462
 Frc consts  --      1.3767                 1.3746                 1.3800
 IR Inten    --      2.5334                 5.3186                 3.0911

                     40                     41                     42
                      A                      A                      A
 Frequencies --   1497.3918              1929.4806              3026.2489
 Red. masses --      1.0481                12.7711                 1.0359
 Frc consts  --      1.3846                28.0130                 5.5896
 IR Inten    --      6.3388               430.6085                21.7249

                     43                     44                     45
                      A                      A                      A
 Frequencies --   3033.0926              3049.7595              3065.0572
 Red. masses --      1.0358                 1.0847                 1.0864
 Frc consts  --      5.6143                 5.9440                 6.0132
 IR Inten    --     17.8550                12.7667                 7.5487

                     46                     47                     48
                      A                      A                      A
 Frequencies --   3094.6233              3099.6853              3101.6434
 Red. masses --      1.0995                 1.1012                 1.1016
 Frc consts  --      6.2037                 6.2337                 6.2442
 IR Inten    --     29.4661                20.8801                17.7581

                     49                     50                     51
                      A                      A                      A
 Frequencies --   3109.9272              3122.8394              3141.7223
 Red. masses --      1.1013                 1.0893                 1.0915
 Frc consts  --      6.2756                 6.2589                 6.3475
 IR Inten    --     26.0119                27.8585                13.4387

 - Thermochemistry -
 -------------------
 Temperature   298.150 Kelvin.  Pressure   1.00000 Atm.
 Atom     1 has atomic number  6 and mass  12.00000

 Molecular mass:   126.06808 amu.
 Principal axes and moments of inertia in atomic units:
                           1         2         3
     Eigenvalues --   653.748651248.860731643.41335
           X            0.99969  -0.02438  -0.00490
           Y            0.02424   0.99934  -0.02707
           Z            0.00555   0.02695   0.99962
 This molecule is an asymmetric top.
 Rotational symmetry number  1.
 Warning -- assumption of classical behavior for rotation
           may cause significant error
 Rotational temperatures (Kelvin)      0.13249     0.06935     0.05270
 Rotational constants (GHZ):           2.76060     1.44511     1.09817
 Zero-point vibrational energy     417140.0 (Joules/Mol)
                                   99.69886 (Kcal/Mol)
 Warning -- explicit consideration of  10 degrees of freedom as
           vibrations may cause significant error
 Vibrational temperatures:    100.37   197.83   311.52   321.79   331.44
          (Kelvin)            358.99   477.57   582.22   654.19   719.07
                              910.57  1055.20  1129.23  1161.10  1246.34
                             1273.81  1291.95  1359.64  1368.96  1421.76
                             1526.77  1542.48  1581.09  1604.27  1623.85
                             1655.33  1719.11  1736.23  1781.36  1803.81
                             1856.72  1888.36  1925.24  1987.65  2031.41
                             2040.53  2149.18  2152.09  2152.75  2154.41
                             2776.09  4354.09  4363.94  4387.92  4409.93
                             4452.47  4459.75  4462.57  4474.49  4493.06
                             4520.23

 Zero-point correction=                           0.158880 (Hartree/Particle)
 Thermal correction to Energy=                    0.167392
 Thermal correction to Enthalpy=                  0.168336
 Thermal correction to Gibbs Free Energy=         0.125659
 Sum of electronic and zero-point Energies=           -423.047684
 Sum of electronic and thermal Energies=              -423.039172
 Sum of electronic and thermal Enthalpies=            -423.038228
 Sum of electronic and thermal Free Energies=         -423.080905

                     E (Thermal)             CV                S
                      KCal/Mol        Cal/Mol-Kelvin    Cal/Mol-Kelvin
 Total                  105.040             32.065             89.823
 Electronic               0.000              0.000              0.000
 Translational            0.889              2.981             40.409
 Rotational               0.889              2.981             28.686
 Vibrational            103.263             26.104             20.728
 Vibration     1          0.598              1.969              4.160
 Vibration     2          0.614              1.916              2.838
 Vibration     3          0.645              1.816              1.988
 Vibration     4          0.649              1.805              1.929
 Vibration     5          0.652              1.795              1.876
 Vibration     6          0.662              1.764              1.734
 Vibration     7          0.714              1.612              1.251
 Vibration     8          0.770              1.460              0.946
 Vibration     9          0.813              1.351              0.782
 Vibration    10          0.855              1.251              0.659

 Optimization completed.
    -- Stationary point found.
 Normal termination of Gaussian 09 at Mon Jan 27 22:48:24 2020.
