 Gaussian 09, Revision D.01,
 Gaussian 09:  ES64L-G09RevD.01 24-Apr-2013

 -----------------------------
 # b3lyp 6-31G(2df,p) opt Freq
 -----------------------------

 -----
 titel
 -----
 Symbolic Z-matrix:
 Charge =  0 Multiplicity = 1

 SCF Done:  E(RB3LYP) =  -423.184631270     A.U. after   14 cycles
 Optimization completed.
    -- Stationary point found.
 Normal termination of Gaussian 09 at Tue Jan 28 00:33:45 2020.

 ----------------------------------------------------------------------
 #N Geom=AllCheck Guess=TCheck SCRF=Check GenChk RB3LYP/6-31G(2df,p) Fr
 eq
 ----------------------------------------------------------------------

 Structure from the checkpoint file:  "/scratch/puck/g09_07502d6a-8ddf-4ae8-ae1d-f314775a8d56/Gau-70818.chk"
 -----
 titel
 -----
 Charge =  0 Multiplicity = 1

                         Standard orientation:
 ---------------------------------------------------------------------
 Center     Atomic      Atomic             Coordinates (Angstroms)
 Number     Number       Type             X           Y           Z
 ---------------------------------------------------------------------
      1          6           0       -2.200435   -0.730389   -0.242812
      2          6           0       -0.755840   -0.443745    0.092084
      3          8           0       -0.144288   -1.382575    0.991515
      4          6           0        0.319299   -1.345007   -0.363354
      5          6           0        1.740242   -0.872701   -0.564330
      6          6           0        1.994717    0.503721   -0.018153
      7          6           0        1.046146    1.314178    0.445841
      8          6           0       -0.427200    1.011972    0.419853
      9          8           0       -1.095170    1.908199   -0.478943
     10          1           0       -2.343500   -1.800307   -0.413215
     11          1           0       -2.849232   -0.424638    0.585450
     12          1           0       -2.514790   -0.174821   -1.129005
     13          1           0        0.033359   -2.219934   -0.949737
     14          1           0        2.425956   -1.592524   -0.095499
     15          1           0        1.980090   -0.900775   -1.637496
     16          1           0        3.031931    0.830068   -0.001661
     17          1           0        1.306096    2.299742    0.823032
     18          1           0       -0.870768    1.234061    1.399601
     19          1           0       -0.585059    1.915958   -1.296819
 ---------------------------------------------------------------------

 SCF Done:  E(RB3LYP) =  -423.184631270     A.U. after    1 cycles

 The electronic state is 1-A.
 Alpha  occ. eigenvalues --  -19.14312 -19.14005 -10.23662 -10.23640 -10.23510
 Alpha  occ. eigenvalues --  -10.19696 -10.19305 -10.18402 -10.17505  -1.06703
 Alpha  occ. eigenvalues --   -1.01942  -0.81195  -0.75718  -0.73021  -0.67531
 Alpha  occ. eigenvalues --   -0.62098  -0.58750  -0.53582  -0.50117  -0.47701
 Alpha  occ. eigenvalues --   -0.45505  -0.45226  -0.44261  -0.42388  -0.40339
 Alpha  occ. eigenvalues --   -0.38958  -0.38717  -0.36044  -0.34476  -0.33219
 Alpha  occ. eigenvalues --   -0.28743  -0.28482  -0.26516  -0.24614
 Alpha virt. eigenvalues --    0.00823   0.08467   0.09604   0.10346   0.12342
 Alpha virt. eigenvalues --    0.13159   0.13373   0.15064   0.16535   0.17058
 Alpha virt. eigenvalues --    0.17825   0.18357   0.19242   0.21233   0.22785

 Mulliken charges:
               1
     1  C   -0.458523
     2  C    0.349480
     3  O   -0.296894
     4  C   -0.005087
     5  C   -0.300227
     6  C   -0.058691
     7  C   -0.084363
     8  C    0.011651
     9  O   -0.423677
    10  H    0.120199
    11  H    0.125713
    12  H    0.127358
    13  H    0.084391
    14  H    0.124892
    15  H    0.113468
    16  H    0.095235
    17  H    0.096898
    18  H    0.100640
    19  H    0.277537
 Sum of Mulliken charges =   0.00000

 Dipole moment (field-independent basis, Debye):
    X=              1.3040    Y=             -0.0750    Z=             -1.9906  Tot=              2.3809
 Quadrupole moment (field-independent basis, Debye-Ang):
   XX=            -51.4155   YY=            -55.2023   ZZ=            -52.4271
   XY=              2.0085   XZ=             -1.1513   YZ=              2.7844

  Exact polarizability:  89.148  -5.643  77.980  -4.067   6.675  61.406
 Approx polarizability: 123.839 -18.874 114.716  -9.428   8.074 102.229

                      1                      2                      3
                      A                      A                      A
 Frequencies --     78.5091               175.5381               218.2450
 Red. masses --      3.4295                 1.1175                 2.4415
 Frc consts  --      0.0125                 0.0203                 0.0685
 IR Inten    --      1.0403                 0.3218                 0.7969

                      4                      5                      6
                      A                      A                      A
 Frequencies --    246.1454               288.8420               326.2710
 Red. masses --      3.5162                 2.2323                 1.3891
 Frc consts  --      0.1255                 0.1097                 0.0871
 IR Inten    --      3.0734                 2.1248                48.2584

                      7                      8                      9
                      A                      A                      A
 Frequencies --    364.5329               397.6533               434.3646
 Red. masses --      2.0450                 3.4308                 6.4276
 Frc consts  --      0.1601                 0.3196                 0.7145
 IR Inten    --     44.5741                 3.6761                 4.3012

                     10                     11                     12
                      A                      A                      A
 Frequencies --    497.9466               550.7165               579.9413
 Red. masses --      3.6825                 4.1828                 3.0647
 Frc consts  --      0.5380                 0.7474                 0.6073
 IR Inten    --      9.3611                 2.3662                 1.9264

                     13                     14                     15
                      A                      A                      A
 Frequencies --    686.8584               744.7511               790.3516
 Red. masses --      3.3263                 1.8426                 3.6286
 Frc consts  --      0.9246                 0.6022                 1.3354
 IR Inten    --      0.9805                24.3754                 7.5915

                     16                     17                     18
                      A                      A                      A
 Frequencies --    879.6889               896.8697               899.4529
 Red. masses --      3.3054                 3.2870                 2.3321
 Frc consts  --      1.5071                 1.5578                 1.1116
 IR Inten    --     27.7291                12.4129                20.9140

                     19                     20                     21
                      A                      A                      A
 Frequencies --    952.8857               995.5474              1015.3929
 Red. masses --      1.8414                 1.8515                 1.4723
 Frc consts  --      0.9851                 1.0812                 0.8943
 IR Inten    --      2.6475                 4.5916                 0.7965

                     22                     23                     24
                      A                      A                      A
 Frequencies --   1035.3833              1058.9902              1065.1038
 Red. masses --      2.3502                 2.4081                 1.5910
 Frc consts  --      1.4844                 1.5911                 1.0634
 IR Inten    --     69.5585                32.4844                 5.3442

                     25                     26                     27
                      A                      A                      A
 Frequencies --   1099.9732              1125.7648              1203.1313
 Red. masses --      1.8568                 2.1616                 1.1182
 Frc consts  --      1.3237                 1.6140                 0.9536
 IR Inten    --      1.7806                10.4032                 3.3475

                     28                     29                     30
                      A                      A                      A
 Frequencies --   1234.0741              1247.4318              1253.2325
 Red. masses --      1.4355                 1.4001                 1.3483
 Frc consts  --      1.2880                 1.2837                 1.2476
 IR Inten    --      4.6335                 2.6134                25.2351

                     31                     32                     33
                      A                      A                      A
 Frequencies --   1328.9873              1376.3626              1378.3361
 Red. masses --      1.3898                 1.7673                 2.1436
 Frc consts  --      1.4463                 1.9725                 2.3994
 IR Inten    --      0.8425                 1.0830                 0.8582

                     34                     35                     36
                      A                      A                      A
 Frequencies --   1400.4149              1409.1930              1426.0347
 Red. masses --      1.2106                 1.2833                 1.5503
 Frc consts  --      1.3989                 1.5015                 1.8575
 IR Inten    --     47.1668                10.9929                11.5054

                     37                     38                     39
                      A                      A                      A
 Frequencies --   1462.4072              1466.4273              1485.7967
 Red. masses --      1.2045                 1.3338                 1.1733
 Frc consts  --      1.5177                 1.6899                 1.5261
 IR Inten    --      3.4965                 6.9701                 9.1542

                     40                     41                     42
                      A                      A                      A
 Frequencies --   1503.7187              1730.9346              3002.9682
 Red. masses --      1.4962                 6.7995                 1.0612
 Frc consts  --      1.9933                12.0030                 5.6381
 IR Inten    --      2.3566                 3.3746                28.5855

                     43                     44                     45
                      A                      A                      A
 Frequencies --   3023.6603              3027.6207              3042.6221
 Red. masses --      1.0831                 1.0980                 1.0380
 Frc consts  --      5.8341                 5.9302                 5.6618
 IR Inten    --     26.0162                16.1503                19.1551

                     46                     47                     48
                      A                      A                      A
 Frequencies --   3092.3102              3109.9524              3136.1437
 Red. masses --      1.0878                 1.0974                 1.1021
 Frc consts  --      6.1285                 6.2537                 6.3864
 IR Inten    --     36.3110                19.9512                13.3043

                     49                     50                     51
                      A                      A                      A
 Frequencies --   3148.0552              3172.3157              3796.9485
 Red. masses --      1.0838                 1.0964                 1.0661
 Frc consts  --      6.3281                 6.5009                 9.0559
 IR Inten    --      7.7586                26.8224                15.1274

 - Thermochemistry -
 -------------------
 Temperature   298.150 Kelvin.  Pressure   1.00000 Atm.
 Atom     1 has atomic number  6 and mass  12.00000

 Molecular mass:   126.06808 amu.
 Principal axes and moments of inertia in atomic units:
                           1         2         3
     Eigenvalues --   810.93908 953.839881481.79204
           X            0.99621   0.08688  -0.00326
           Y           -0.08669   0.99554   0.03724
           Z            0.00648  -0.03682   0.99930
 This molecule is an asymmetric top.
 Rotational symmetry number  1.
 Warning -- assumption of classical behavior for rotation
           may cause significant error
 Rotational temperatures (Kelvin)      0.10681     0.09081     0.05845
 Rotational constants (GHZ):           2.22550     1.89208     1.21794
 Zero-point vibrational energy     417884.3 (Joules/Mol)
                                   99.87674 (Kcal/Mol)
 Warning -- explicit consideration of  12 degrees of freedom as
           vibrations may cause significant error
 Vibrational temperatures:    112.96   252.56   314.01   354.15   415.58
          (Kelvin)            469.43   524.48   572.13   624.95   716.43
                              792.36   834.41   988.23  1071.53  1137.14
                             1265.67  1290.39  1294.11  1370.99  1432.37
                             1460.92  1489.68  1523.65  1532.44  1582.61
                             1619.72  1731.04  1775.56  1794.77  1803.12
                             1912.11  1980.28  1983.12  2014.88  2027.51
                             2051.74  2104.08  2109.86  2137.73  2163.51
                             2490.43  4320.60  4350.37  4356.07  4377.65
                             4449.14  4474.52  4512.21  4529.34  4564.25
                             5462.96

 Zero-point correction=                           0.159164 (Hartree/Particle)
 Thermal correction to Energy=                    0.167586
 Thermal correction to Enthalpy=                  0.168531
 Thermal correction to Gibbs Free Energy=         0.126469
 Sum of electronic and zero-point Energies=           -423.025468
 Sum of electronic and thermal Energies=              -423.017045
 Sum of electronic and thermal Enthalpies=            -423.016101
 Sum of electronic and thermal Free Energies=         -423.058162

                     E (Thermal)             CV                S
                      KCal/Mol        Cal/Mol-Kelvin    Cal/Mol-Kelvin
 Total                  105.162             32.822             88.525
 Electronic               0.000              0.000              0.000
 Translational            0.889              2.981             40.409
 Rotational               0.889              2.981             28.529
 Vibrational            103.385             26.861             19.587
 Vibration     1          0.600              1.964              3.928
 Vibration     2          0.627              1.873              2.375
 Vibration     3          0.646              1.813              1.974
 Vibration     4          0.661              1.769              1.758
 Vibration     5          0.685              1.694              1.481
 Vibration     6          0.710              1.623              1.278
 Vibration     7          0.738              1.545              1.103
 Vibration     8          0.764              1.475              0.971
 Vibration     9          0.795              1.395              0.845
 Vibration    10          0.853              1.255              0.663
 Vibration    11          0.906              1.138              0.543
 Vibration    12          0.937              1.075              0.485

 Normal termination of Gaussian 09 at Tue Jan 28 01:17:22 2020.
