 Gaussian 09, Revision D.01,
 Gaussian 09:  ES64L-G09RevD.01 24-Apr-2013

 -----------------------------
 # b3lyp 6-31G(2df,p) opt Freq
 -----------------------------

 -----
 titel
 -----
 Symbolic Z-matrix:
 Charge =  0 Multiplicity = 1

 SCF Done:  E(RB3LYP) =  -423.161456506     A.U. after   13 cycles
 Optimization completed.
    -- Stationary point found.
 Normal termination of Gaussian 09 at Mon Jan 27 18:01:32 2020.

 ----------------------------------------------------------------------
 #N Geom=AllCheck Guess=TCheck SCRF=Check GenChk RB3LYP/6-31G(2df,p) Fr
 eq
 ----------------------------------------------------------------------

 Structure from the checkpoint file:  "/scratch/puck/g09_eea888fa-898f-4572-bd7e-d68a94133242/Gau-16885.chk"
 -----
 titel
 -----
 Charge =  0 Multiplicity = 1

                         Standard orientation:
 ---------------------------------------------------------------------
 Center     Atomic      Atomic             Coordinates (Angstroms)
 Number     Number       Type             X           Y           Z
 ---------------------------------------------------------------------
      1          8           0       -1.458775   -1.555512   -0.539230
      2          6           0       -0.942309   -0.422193    0.095205
      3          6           0       -1.887717    0.633277    0.602532
      4          6           0       -1.014045    0.908973   -0.610426
      5          6           0        0.263674    1.702399   -0.355515
      6          6           0        1.184125    0.751697    0.429969
      7          8           0        2.060167   -0.001199   -0.441731
      8          6           0        1.485937   -1.257954   -0.022322
      9          6           0        0.401209   -0.540401    0.800037
     10          1           0       -1.870327   -2.112002    0.131178
     11          1           0       -2.941754    0.461728    0.412391
     12          1           0       -1.668447    1.146512    1.535466
     13          1           0       -1.508562    0.974133   -1.572232
     14          1           0        0.765064    1.980935   -1.286856
     15          1           0        0.065521    2.624784    0.202868
     16          1           0        1.753573    1.245894    1.225498
     17          1           0        1.127082   -1.857690   -0.864833
     18          1           0        2.195206   -1.847638    0.572749
     19          1           0        0.326265   -0.817757    1.854574
 ---------------------------------------------------------------------

 SCF Done:  E(RB3LYP) =  -423.161456506     A.U. after    1 cycles

 The electronic state is 1-A.
 Alpha  occ. eigenvalues --  -19.14723 -19.12487 -10.23838 -10.23092 -10.22175
 Alpha  occ. eigenvalues --  -10.18918 -10.18878 -10.18491 -10.18063  -1.03656
 Alpha  occ. eigenvalues --   -1.02707  -0.86658  -0.74348  -0.73589  -0.65263
 Alpha  occ. eigenvalues --   -0.60778  -0.55992  -0.55054  -0.51510  -0.49726
 Alpha  occ. eigenvalues --   -0.46265  -0.45525  -0.43006  -0.41496  -0.41126
 Alpha  occ. eigenvalues --   -0.38354  -0.37392  -0.34840  -0.32994  -0.31235
 Alpha  occ. eigenvalues --   -0.29779  -0.26654  -0.25794  -0.24232
 Alpha virt. eigenvalues --    0.07197   0.08152   0.10223   0.10416   0.11631
 Alpha virt. eigenvalues --    0.13251   0.15359   0.15767   0.16371   0.17867
 Alpha virt. eigenvalues --    0.18201   0.18734   0.19350   0.22057   0.23178

 Mulliken charges:
               1
     1  O   -0.468483
     2  C    0.404532
     3  C   -0.356097
     4  C   -0.073332
     5  C   -0.257535
     6  C    0.141158
     7  O   -0.293143
     8  C   -0.084231
     9  C   -0.172926
    10  H    0.282352
    11  H    0.113284
    12  H    0.105337
    13  H    0.096119
    14  H    0.119912
    15  H    0.095649
    16  H    0.069038
    17  H    0.117502
    18  H    0.090576
    19  H    0.070287
 Sum of Mulliken charges =   0.00000

 Dipole moment (field-independent basis, Debye):
    X=             -1.5760    Y=             -0.2810    Z=              2.0964  Tot=              2.6377
 Quadrupole moment (field-independent basis, Debye-Ang):
   XX=            -55.5789   YY=            -49.6918   ZZ=            -52.9105
   XY=              0.7303   XZ=              0.3527   YZ=             -2.4103

  Exact polarizability:  77.446  -1.526  78.881  -0.287  -0.429  65.414
 Approx polarizability: 104.717   0.405 113.049  -3.055  -0.014 103.036

                      1                      2                      3
                      A                      A                      A
 Frequencies --     99.6891               175.7369               252.3583
 Red. masses --      3.9036                 2.7983                 2.4992
 Frc consts  --      0.0229                 0.0509                 0.0938
 IR Inten    --      1.6056                 1.4422                 2.1419

                      4                      5                      6
                      A                      A                      A
 Frequencies --    306.2121               350.6922               368.7290
 Red. masses --      1.2107                 3.5176                 3.1993
 Frc consts  --      0.0669                 0.2549                 0.2563
 IR Inten    --     96.1305                 0.2475                 4.1772

                      7                      8                      9
                      A                      A                      A
 Frequencies --    431.4470               482.5468               546.2476
 Red. masses --      1.8812                 3.8575                 3.6741
 Frc consts  --      0.2063                 0.5292                 0.6459
 IR Inten    --      4.0141                10.1509                 1.7139

                     10                     11                     12
                      A                      A                      A
 Frequencies --    685.9361               718.8741               799.9100
 Red. masses --      4.1399                 2.9859                 2.2237
 Frc consts  --      1.1476                 0.9091                 0.8383
 IR Inten    --      1.0579                 2.6960                 3.3795

                     13                     14                     15
                      A                      A                      A
 Frequencies --    839.5300               849.1965               882.5920
 Red. masses --      2.1725                 2.1108                 2.2379
 Frc consts  --      0.9021                 0.8968                 1.0271
 IR Inten    --      3.2507                11.6175                 0.5218

                     16                     17                     18
                      A                      A                      A
 Frequencies --    900.3583               931.3681               938.1831
 Red. masses --      2.5378                 1.7825                 2.3791
 Frc consts  --      1.2121                 0.9110                 1.2338
 IR Inten    --      7.7734                15.9304                10.2813

                     19                     20                     21
                      A                      A                      A
 Frequencies --   1000.5762              1012.9431              1026.3959
 Red. masses --      2.0153                 2.1968                 3.8214
 Frc consts  --      1.1887                 1.3280                 2.3720
 IR Inten    --      4.5668                22.3245                72.5055

                     22                     23                     24
                      A                      A                      A
 Frequencies --   1040.3243              1068.4775              1073.5218
 Red. masses --      1.3931                 2.1155                 1.7490
 Frc consts  --      0.8883                 1.4230                 1.1876
 IR Inten    --      4.7441                 6.8368                 6.9179

                     25                     26                     27
                      A                      A                      A
 Frequencies --   1090.2637              1099.5547              1166.6893
 Red. masses --      1.7374                 2.3187                 1.1436
 Frc consts  --      1.2168                 1.6517                 0.9171
 IR Inten    --      8.4281                 1.7965                 3.7389

                     28                     29                     30
                      A                      A                      A
 Frequencies --   1209.9749              1215.2791              1232.8928
 Red. masses --      1.3123                 1.7341                 1.6226
 Frc consts  --      1.1319                 1.5089                 1.4532
 IR Inten    --      2.3957                10.2855                68.9394

                     31                     32                     33
                      A                      A                      A
 Frequencies --   1263.3338              1265.4964              1309.3352
 Red. masses --      1.8144                 1.6657                 1.4350
 Frc consts  --      1.7062                 1.5717                 1.4494
 IR Inten    --     19.2277                24.2366                27.1714

                     34                     35                     36
                      A                      A                      A
 Frequencies --   1322.3880              1347.9555              1361.2118
 Red. masses --      1.4411                 2.0719                 1.5350
 Frc consts  --      1.4848                 2.2180                 1.6757
 IR Inten    --     10.6484                 2.6831                 9.1848

                     37                     38                     39
                      A                      A                      A
 Frequencies --   1363.2988              1396.1512              1472.1989
 Red. masses --      1.4743                 1.7973                 1.2402
 Frc consts  --      1.6144                 2.0641                 1.5837
 IR Inten    --      3.2153                 4.6378                 2.1056

                     40                     41                     42
                      A                      A                      A
 Frequencies --   1486.6521              1527.8655              3013.0160
 Red. masses --      1.2492                 1.0968                 1.0622
 Frc consts  --      1.6267                 1.5085                 5.6817
 IR Inten    --      9.6139                 1.4725                76.6644

                     43                     44                     45
                      A                      A                      A
 Frequencies --   3028.6306              3044.0827              3072.0350
 Red. masses --      1.0758                 1.0758                 1.0904
 Frc consts  --      5.8138                 5.8735                 6.0628
 IR Inten    --     22.0994                74.0997                16.8830

                     46                     47                     48
                      A                      A                      A
 Frequencies --   3081.0686              3093.3146              3112.7923
 Red. masses --      1.1001                 1.0989                 1.0555
 Frc consts  --      6.1528                 6.1951                 6.0257
 IR Inten    --     51.8849                12.2111                13.5982

                     49                     50                     51
                      A                      A                      A
 Frequencies --   3184.7005              3209.2979              3793.6855
 Red. masses --      1.0922                 1.1138                 1.0662
 Frc consts  --      6.5266                 6.7587                 9.0405
 IR Inten    --      6.0418                10.4875                19.4101

 - Thermochemistry -
 -------------------
 Temperature   298.150 Kelvin.  Pressure   1.00000 Atm.
 Atom     1 has atomic number  8 and mass  15.99491

 Molecular mass:   126.06808 amu.
 Principal axes and moments of inertia in atomic units:
                           1         2         3
     Eigenvalues --   669.387691007.229871384.45318
           X            0.99938  -0.03508   0.00211
           Y            0.03510   0.99931  -0.01208
           Z           -0.00169   0.01215   0.99992
 This molecule is an asymmetric top.
 Rotational symmetry number  1.
 Warning -- assumption of classical behavior for rotation
           may cause significant error
 Rotational temperatures (Kelvin)      0.12939     0.08599     0.06256
 Rotational constants (GHZ):           2.69611     1.79179     1.30358
 Zero-point vibrational energy     421952.9 (Joules/Mol)
                                  100.84916 (Kcal/Mol)
 Warning -- explicit consideration of   9 degrees of freedom as
           vibrations may cause significant error
 Vibrational temperatures:    143.43   252.85   363.09   440.57   504.57
          (Kelvin)            530.52   620.76   694.28   785.93   986.91
                             1034.30  1150.89  1207.89  1221.80  1269.85
                             1295.41  1340.03  1349.83  1439.60  1457.40
                             1476.75  1496.79  1537.30  1544.56  1568.64
                             1582.01  1678.60  1740.88  1748.51  1773.86
                             1817.65  1820.76  1883.84  1902.62  1939.40
                             1958.48  1961.48  2008.75  2118.16  2138.96
                             2198.25  4335.05  4357.52  4379.75  4419.97
                             4432.96  4450.58  4478.61  4582.07  4617.46
                             5458.26

 Zero-point correction=                           0.160713 (Hartree/Particle)
 Thermal correction to Energy=                    0.168234
 Thermal correction to Enthalpy=                  0.169178
 Thermal correction to Gibbs Free Energy=         0.128922
 Sum of electronic and zero-point Energies=           -423.000743
 Sum of electronic and thermal Energies=              -422.993222
 Sum of electronic and thermal Enthalpies=            -422.992278
 Sum of electronic and thermal Free Energies=         -423.032534

                     E (Thermal)             CV                S
                      KCal/Mol        Cal/Mol-Kelvin    Cal/Mol-Kelvin
 Total                  105.568             30.275             84.726
 Electronic               0.000              0.000              0.000
 Translational            0.889              2.981             40.409
 Rotational               0.889              2.981             28.325
 Vibrational            103.791             24.313             15.992
 Vibration     1          0.604              1.949              3.460
 Vibration     2          0.628              1.872              2.373
 Vibration     3          0.664              1.759              1.714
 Vibration     4          0.697              1.662              1.383
 Vibration     5          0.728              1.574              1.163
 Vibration     6          0.741              1.537              1.085
 Vibration     7          0.792              1.402              0.854
 Vibration     8          0.839              1.289              0.703
 Vibration     9          0.901              1.148              0.552

 Optimization completed.
    -- Stationary point found.
 Normal termination of Gaussian 09 at Mon Jan 27 20:04:10 2020.
