 Gaussian 09, Revision D.01,
 Gaussian 09:  ES64L-G09RevD.01 24-Apr-2013

 -----------------------------
 # b3lyp 6-31G(2df,p) opt Freq
 -----------------------------

 -----
 titel
 -----
 Symbolic Z-matrix:
 Charge =  0 Multiplicity = 1

 SCF Done:  E(RB3LYP) =  -423.173376853     A.U. after   14 cycles
 Optimization completed.
    -- Stationary point found.
 Normal termination of Gaussian 09 at Mon Jan 27 22:00:38 2020.

 ----------------------------------------------------------------------
 #N Geom=AllCheck Guess=TCheck SCRF=Check GenChk RB3LYP/6-31G(2df,p) Fr
 eq
 ----------------------------------------------------------------------

 Structure from the checkpoint file:  "/scratch/puck/g09_8a4ee488-8cfd-4493-bab9-2d7b8f34fb34/Gau-98425.chk"
 -----
 titel
 -----
 Charge =  0 Multiplicity = 1

                         Standard orientation:
 ---------------------------------------------------------------------
 Center     Atomic      Atomic             Coordinates (Angstroms)
 Number     Number       Type             X           Y           Z
 ---------------------------------------------------------------------
      1          6           0        0.819934   -2.300364   -0.031789
      2          6           0        0.474303   -0.891439   -0.500426
      3          6           0        1.310438    0.278129    0.065926
      4          8           0        2.487922    0.470363    0.164959
      5          6           0        0.059906    1.071124    0.505731
      6          6           0       -0.208364    2.375569   -0.246663
      7          6           0       -0.761167   -0.158672    0.060077
      8          6           0       -1.991934   -0.702453    0.630670
      9          8           0       -1.982554   -0.049652   -0.648968
     10          1           0        0.790685   -2.373398    1.059928
     11          1           0        0.120370   -3.035474   -0.441580
     12          1           0        1.828148   -2.570127   -0.359201
     13          1           0        0.469969   -0.841264   -1.597736
     14          1           0        0.048557    1.245796    1.587982
     15          1           0       -1.198093    2.765446    0.006421
     16          1           0        0.542410    3.125812    0.015316
     17          1           0       -0.179861    2.223679   -1.329656
     18          1           0       -2.179492   -1.775001    0.603087
     19          1           0       -2.504333   -0.162524    1.426350
 ---------------------------------------------------------------------

 SCF Done:  E(RB3LYP) =  -423.173376853     A.U. after    1 cycles

 The electronic state is 1-A.
 Alpha  occ. eigenvalues --  -19.15924 -19.14096 -10.27011 -10.24915 -10.24159
 Alpha  occ. eigenvalues --  -10.20126 -10.20072 -10.19107 -10.18849  -1.08016
 Alpha  occ. eigenvalues --   -1.04877  -0.85051  -0.76384  -0.70108  -0.67303
 Alpha  occ. eigenvalues --   -0.61757  -0.58376  -0.51170  -0.50290  -0.49082
 Alpha  occ. eigenvalues --   -0.47496  -0.44001  -0.43539  -0.41007  -0.40838
 Alpha  occ. eigenvalues --   -0.40358  -0.38214  -0.37255  -0.36819  -0.35481
 Alpha  occ. eigenvalues --   -0.33588  -0.30403  -0.27019  -0.23837
 Alpha virt. eigenvalues --   -0.02785   0.08361   0.08900   0.10338   0.11639
 Alpha virt. eigenvalues --    0.13075   0.13282   0.14236   0.15302   0.15655
 Alpha virt. eigenvalues --    0.16399   0.17569   0.17846   0.20278   0.21988

 Mulliken charges:
               1
     1  C   -0.412751
     2  C   -0.203731
     3  C    0.406473
     4  O   -0.305158
     5  C   -0.235267
     6  C   -0.392827
     7  C    0.432550
     8  C   -0.262184
     9  O   -0.268486
    10  H    0.120706
    11  H    0.126313
    12  H    0.140177
    13  H    0.119519
    14  H    0.104676
    15  H    0.132119
    16  H    0.133954
    17  H    0.126999
    18  H    0.119238
    19  H    0.117679
 Sum of Mulliken charges =   0.00000

 Dipole moment (field-independent basis, Debye):
    X=             -1.5872    Y=             -0.8726    Z=              1.0172  Tot=              2.0774
 Quadrupole moment (field-independent basis, Debye-Ang):
   XX=            -63.2949   YY=            -49.3752   ZZ=            -51.6158
   XY=             -0.9817   XZ=             -4.4467   YZ=              0.2163

  Exact polarizability:  82.318   1.273  82.924  -3.744   1.271  62.272
 Approx polarizability: 122.664   4.005 106.304  -1.435   1.256  99.599

                      1                      2                      3
                      A                      A                      A
 Frequencies --     32.6724               171.6097               181.0655
 Red. masses --      4.0080                 2.6237                 1.2594
 Frc consts  --      0.0025                 0.0455                 0.0243
 IR Inten    --      3.2519                 0.8466                 1.0366

                      4                      5                      6
                      A                      A                      A
 Frequencies --    185.1753               189.5971               199.8050
 Red. masses --      2.3429                 2.5407                 1.3456
 Frc consts  --      0.0473                 0.0538                 0.0317
 IR Inten    --      2.0785                 1.5305                 0.5959

                      7                      8                      9
                      A                      A                      A
 Frequencies --    209.3370               293.9447               368.0735
 Red. masses --      2.1596                 4.1983                 3.4295
 Frc consts  --      0.0558                 0.2137                 0.2738
 IR Inten    --      1.2815                 5.8655                 2.9808

                     10                     11                     12
                      A                      A                      A
 Frequencies --    446.4451               513.3913               587.5336
 Red. masses --      3.8466                 7.5364                 2.9955
 Frc consts  --      0.4517                 1.1703                 0.6092
 IR Inten    --      4.0034                 0.6167                 6.2212

                     13                     14                     15
                      A                      A                      A
 Frequencies --    708.8856               726.2023               733.9247
 Red. masses --      3.3477                 3.2825                 2.8321
 Frc consts  --      0.9912                 1.0199                 0.8988
 IR Inten    --      3.0713                 1.0379                 0.9258

                     16                     17                     18
                      A                      A                      A
 Frequencies --    836.5486               883.9656               934.3502
 Red. masses --      1.7295                 3.7625                 2.2959
 Frc consts  --      0.7131                 1.7322                 1.1809
 IR Inten    --      1.3261                27.2648                35.0077

                     19                     20                     21
                      A                      A                      A
 Frequencies --    944.3143               964.4417              1020.1155
 Red. masses --      2.9488                 1.2785                 1.4607
 Frc consts  --      1.5493                 0.7007                 0.8956
 IR Inten    --     25.7158                 3.8614                 7.3316

                     22                     23                     24
                      A                      A                      A
 Frequencies --   1043.8565              1112.8210              1115.2875
 Red. masses --      1.6263                 2.3147                 1.9047
 Frc consts  --      1.0441                 1.6889                 1.3959
 IR Inten    --     12.8473                 2.9962                11.3233

                     25                     26                     27
                      A                      A                      A
 Frequencies --   1127.3780              1143.1610              1161.4035
 Red. masses --      1.4722                 2.2107                 1.5482
 Frc consts  --      1.1025                 1.7021                 1.2304
 IR Inten    --      4.8229                 1.8893                 2.2022

                     28                     29                     30
                      A                      A                      A
 Frequencies --   1201.4625              1215.8457              1226.4409
 Red. masses --      2.0068                 1.7248                 1.6888
 Frc consts  --      1.7068                 1.5023                 1.4967
 IR Inten    --     18.0060                 2.1592                16.8429

                     31                     32                     33
                      A                      A                      A
 Frequencies --   1301.3184              1325.0471              1401.3557
 Red. masses --      1.6399                 1.8634                 1.2656
 Frc consts  --      1.6362                 1.9276                 1.4643
 IR Inten    --      6.9809                11.0032                 0.2940

                     34                     35                     36
                      A                      A                      A
 Frequencies --   1407.4430              1435.3374              1491.8490
 Red. masses --      1.2126                 2.1768                 1.0465
 Frc consts  --      1.4152                 2.6422                 1.3723
 IR Inten    --      1.7794                16.3060                 7.0202

                     37                     38                     39
                      A                      A                      A
 Frequencies --   1493.4978              1493.8029              1497.3281
 Red. masses --      1.0470                 1.0484                 1.0573
 Frc consts  --      1.3760                 1.3783                 1.3966
 IR Inten    --      5.5206                 3.5551                 6.3633

                     40                     41                     42
                      A                      A                      A
 Frequencies --   1535.0967              1892.1554              3027.3648
 Red. masses --      1.5699                12.7470                 1.0820
 Frc consts  --      2.1797                26.8887                 5.8424
 IR Inten    --     12.0559               217.3808                 6.0829

                     43                     44                     45
                      A                      A                      A
 Frequencies --   3037.4103              3044.4680              3045.0388
 Red. masses --      1.0345                 1.0826                 1.0348
 Frc consts  --      5.6235                 5.9118                 5.6531
 IR Inten    --     22.2238                 6.8102                20.5419

                     46                     47                     48
                      A                      A                      A
 Frequencies --   3080.1404              3107.2904              3114.8626
 Red. masses --      1.0504                 1.1023                 1.1015
 Frc consts  --      5.8712                 6.2708                 6.2969
 IR Inten    --     24.6682                18.4173                13.7056

                     49                     50                     51
                      A                      A                      A
 Frequencies --   3116.6522              3124.3717              3166.4969
 Red. masses --      1.1019                 1.1029                 1.1193
 Frc consts  --      6.3062                 6.3431                 6.6121
 IR Inten    --     19.2279                14.3574                19.3829

 - Thermochemistry -
 -------------------
 Temperature   298.150 Kelvin.  Pressure   1.00000 Atm.
 Atom     1 has atomic number  6 and mass  12.00000

 Molecular mass:   126.06808 amu.
 Principal axes and moments of inertia in atomic units:
                           1         2         3
     Eigenvalues --   870.989431055.455341715.73183
           X            0.99507  -0.09677  -0.02175
           Y            0.09668   0.99530  -0.00548
           Z            0.02218   0.00335   0.99975
 This molecule is an asymmetric top.
 Rotational symmetry number  1.
 Warning -- assumption of classical behavior for rotation
           may cause significant error
 Rotational temperatures (Kelvin)      0.09944     0.08206     0.05048
 Rotational constants (GHZ):           2.07206     1.70992     1.05188
 Zero-point vibrational energy     410423.1 (Joules/Mol)
                                   98.09347 (Kcal/Mol)
 Warning -- explicit consideration of  12 degrees of freedom as
           vibrations may cause significant error
 Vibrational temperatures:     47.01   246.91   260.51   266.43   272.79
          (Kelvin)            287.47   301.19   422.92   529.57   642.33
                              738.65   845.33  1019.93  1044.84  1055.95
                             1203.61  1271.83  1344.32  1358.66  1387.61
                             1467.72  1501.87  1601.10  1604.65  1622.04
                             1644.75  1671.00  1728.63  1749.33  1764.57
                             1872.30  1906.44  2016.24  2024.99  2065.13
                             2146.44  2148.81  2149.25  2154.32  2208.66
                             2722.39  4355.70  4370.15  4380.31  4381.13
                             4431.63  4470.69  4481.59  4484.16  4495.27
                             4555.88

 Zero-point correction=                           0.156322 (Hartree/Particle)
 Thermal correction to Energy=                    0.165773
 Thermal correction to Enthalpy=                  0.166717
 Thermal correction to Gibbs Free Energy=         0.121571
 Sum of electronic and zero-point Energies=           -423.017055
 Sum of electronic and thermal Energies=              -423.007604
 Sum of electronic and thermal Enthalpies=            -423.006659
 Sum of electronic and thermal Free Energies=         -423.051806

                     E (Thermal)             CV                S
                      KCal/Mol        Cal/Mol-Kelvin    Cal/Mol-Kelvin
 Total                  104.024             34.248             95.019
 Electronic               0.000              0.000              0.000
 Translational            0.889              2.981             40.409
 Rotational               0.889              2.981             28.846
 Vibrational            102.247             28.287             25.764
 Vibration     1          0.594              1.983              5.660
 Vibration     2          0.626              1.877              2.418
 Vibration     3          0.630              1.865              2.317
 Vibration     4          0.631              1.860              2.276
 Vibration     5          0.633              1.854              2.232
 Vibration     6          0.638              1.840              2.135
 Vibration     7          0.642              1.826              2.049
 Vibration     8          0.689              1.685              1.451
 Vibration     9          0.741              1.538              1.088
 Vibration    10          0.806              1.369              0.807
 Vibration    11          0.868              1.220              0.625
 Vibration    12          0.945              1.058              0.472

 Optimization completed.
    -- Stationary point found.
 Normal termination of Gaussian 09 at Mon Jan 27 22:48:52 2020.
