 Gaussian 09, Revision D.01,
 Gaussian 09:  ES64L-G09RevD.01 24-Apr-2013

 -----------------------------
 # b3lyp 6-31G(2df,p) opt Freq
 -----------------------------

 -----
 titel
 -----
 Symbolic Z-matrix:
 Charge =  0 Multiplicity = 1

 SCF Done:  E(RB3LYP) =  -423.150060874     A.U. after   14 cycles
 Optimization completed.
    -- Stationary point found.
 Normal termination of Gaussian 09 at Tue Jan 28 11:41:17 2020.

 ----------------------------------------------------------------------
 #N Geom=AllCheck Guess=TCheck SCRF=Check GenChk RB3LYP/6-31G(2df,p) Fr
 eq
 ----------------------------------------------------------------------

 Structure from the checkpoint file:  "/scratch/puck/g09_51581e65-df67-43dc-b5b6-55c416872388/Gau-26368.chk"
 -----
 titel
 -----
 Charge =  0 Multiplicity = 1

                         Standard orientation:
 ---------------------------------------------------------------------
 Center     Atomic      Atomic             Coordinates (Angstroms)
 Number     Number       Type             X           Y           Z
 ---------------------------------------------------------------------
      1          8           0        3.134657   -0.018350   -0.453182
      2          6           0        1.972158    0.764862   -0.265521
      3          6           0        0.998513    0.061137    0.663625
      4          8           0        0.571695   -1.229995    0.096963
      5          6           0       -0.831399   -0.946665    0.446804
      6          6           0       -1.949344   -0.862612   -0.602783
      7          6           0       -2.545067    0.563432   -0.332978
      8          6           0       -1.336052    1.343770    0.187982
      9          6           0       -0.451668    0.479103    0.671343
     10          1           0        2.831868   -0.879472   -0.765451
     11          1           0        2.292103    1.715366    0.175841
     12          1           0        1.464303    0.980187   -1.217265
     13          1           0        1.460097   -0.103407    1.646152
     14          1           0       -1.105509   -1.547802    1.323846
     15          1           0       -1.500498   -0.886050   -1.600835
     16          1           0       -2.691558   -1.662734   -0.537409
     17          1           0       -2.958089    1.017628   -1.239400
     18          1           0       -3.366724    0.521708    0.394646
     19          1           0       -1.219665    2.413176    0.058785
 ---------------------------------------------------------------------

 SCF Done:  E(RB3LYP) =  -423.150060874     A.U. after    1 cycles

 The electronic state is 1-A.
 Alpha  occ. eigenvalues --  -19.14035 -19.13262 -10.24256 -10.23134 -10.22749
 Alpha  occ. eigenvalues --  -10.19626 -10.19212 -10.18991 -10.18809  -1.03973
 Alpha  occ. eigenvalues --   -1.01140  -0.83842  -0.75304  -0.70153  -0.69168
 Alpha  occ. eigenvalues --   -0.62135  -0.58312  -0.53394  -0.50537  -0.50203
 Alpha  occ. eigenvalues --   -0.46857  -0.45603  -0.42871  -0.41955  -0.39891
 Alpha  occ. eigenvalues --   -0.37294  -0.36334  -0.35695  -0.34870  -0.33284
 Alpha  occ. eigenvalues --   -0.30557  -0.27432  -0.25421  -0.24244
 Alpha virt. eigenvalues --    0.00093   0.06352   0.10098   0.11111   0.11398
 Alpha virt. eigenvalues --    0.12650   0.13978   0.14627   0.15118   0.16668
 Alpha virt. eigenvalues --    0.17521   0.18471   0.19507   0.20596   0.21974

 Mulliken charges:
               1
     1  O   -0.418738
     2  C   -0.065989
     3  C    0.033377
     4  O   -0.346436
     5  C    0.120225
     6  C   -0.251865
     7  C   -0.244211
     8  C   -0.207697
     9  C    0.170301
    10  H    0.295623
    11  H    0.110503
    12  H    0.089145
    13  H    0.090260
    14  H    0.081760
    15  H    0.118113
    16  H    0.098239
    17  H    0.110974
    18  H    0.113275
    19  H    0.103140
 Sum of Mulliken charges =   0.00000

 Dipole moment (field-independent basis, Debye):
    X=             -2.3588    Y=              0.6673    Z=             -0.0079  Tot=              2.4514
 Quadrupole moment (field-independent basis, Debye-Ang):
   XX=            -58.1004   YY=            -51.8632   ZZ=            -52.1989
   XY=              0.1126   XZ=              1.0355   YZ=              0.0225

  Exact polarizability:  95.745  -2.645  76.150   5.883  -2.650  61.736
 Approx polarizability: 129.248 -11.444 119.410  10.089  -5.545  96.640

                      1                      2                      3
                      A                      A                      A
 Frequencies --     78.1070               116.9221               139.4110
 Red. masses --      4.2428                 3.9834                 2.3036
 Frc consts  --      0.0153                 0.0321                 0.0264
 IR Inten    --      2.4118                 2.0852                 0.3246

                      4                      5                      6
                      A                      A                      A
 Frequencies --    241.9427               309.9910               360.7589
 Red. masses --      2.4440                 2.7535                 3.1037
 Frc consts  --      0.0843                 0.1559                 0.2380
 IR Inten    --      0.3752                 3.4278                12.0845

                      7                      8                      9
                      A                      A                      A
 Frequencies --    437.3420               467.1219               470.4956
 Red. masses --      1.2553                 3.1028                 3.2233
 Frc consts  --      0.1415                 0.3989                 0.4204
 IR Inten    --    108.4085                 5.2455                 6.2365

                     10                     11                     12
                      A                      A                      A
 Frequencies --    600.4008               686.4626               747.9325
 Red. masses --      2.3485                 4.3453                 3.1810
 Frc consts  --      0.4988                 1.2064                 1.0484
 IR Inten    --      2.7788                 2.8984                 9.4980

                     13                     14                     15
                      A                      A                      A
 Frequencies --    816.1951               839.6947               862.3787
 Red. masses --      1.7361                 2.2096                 2.0233
 Frc consts  --      0.6814                 0.9179                 0.8866
 IR Inten    --     24.7262                38.4119                 1.5982

                     16                     17                     18
                      A                      A                      A
 Frequencies --    876.1256               902.6693               946.8291
 Red. masses --      2.5292                 2.6141                 2.6135
 Frc consts  --      1.1438                 1.2550                 1.3804
 IR Inten    --      3.5494                18.0717                16.3628

                     19                     20                     21
                      A                      A                      A
 Frequencies --    961.9780               996.3553              1037.3726
 Red. masses --      2.7314                 3.8239                 2.0391
 Frc consts  --      1.4893                 2.2366                 1.2929
 IR Inten    --     10.7978                93.9213                17.3931

                     22                     23                     24
                      A                      A                      A
 Frequencies --   1056.4853              1077.3615              1092.1546
 Red. masses --      2.1677                 3.2537                 2.0855
 Frc consts  --      1.4256                 2.2251                 1.4656
 IR Inten    --      4.7999                45.8101                39.3190

                     25                     26                     27
                      A                      A                      A
 Frequencies --   1125.6267              1157.3145              1205.3525
 Red. masses --      2.1985                 1.3089                 1.4054
 Frc consts  --      1.6412                 1.0329                 1.2030
 IR Inten    --      3.8989                 1.4930                 2.4144

                     28                     29                     30
                      A                      A                      A
 Frequencies --   1210.6694              1231.7575              1269.4160
 Red. masses --      1.2283                 1.5361                 1.4095
 Frc consts  --      1.0607                 1.3732                 1.3382
 IR Inten    --      7.9631                 1.2706                11.3336

                     31                     32                     33
                      A                      A                      A
 Frequencies --   1271.9392              1308.4314              1318.7540
 Red. masses --      1.2830                 1.3799                 1.2835
 Frc consts  --      1.2230                 1.3919                 1.3151
 IR Inten    --      0.2755                 1.5892                 7.4105

                     34                     35                     36
                      A                      A                      A
 Frequencies --   1339.5657              1362.4717              1399.3901
 Red. masses --      1.7399                 1.3682                 1.3130
 Frc consts  --      1.8395                 1.4965                 1.5150
 IR Inten    --      5.6602                11.2677                16.7173

                     37                     38                     39
                      A                      A                      A
 Frequencies --   1428.9676              1479.6969              1494.3654
 Red. masses --      1.3577                 1.0891                 1.0930
 Frc consts  --      1.6335                 1.4049                 1.4381
 IR Inten    --     64.4120                 2.5339                 0.6804

                     40                     41                     42
                      A                      A                      A
 Frequencies --   1495.9437              1738.1269              2995.3564
 Red. masses --      1.0917                 8.6500                 1.0666
 Frc consts  --      1.4394                15.3968                 5.6381
 IR Inten    --      2.1977                 2.3406                24.1113

                     43                     44                     45
                      A                      A                      A
 Frequencies --   3012.8048              3019.0993              3023.4534
 Red. masses --      1.0833                 1.0681                 1.0829
 Frc consts  --      5.7933                 5.7362                 5.8323
 IR Inten    --     31.3401                47.8698                72.0175

                     46                     47                     48
                      A                      A                      A
 Frequencies --   3055.4662              3074.1880              3074.3189
 Red. masses --      1.0620                 1.0948                 1.0942
 Frc consts  --      5.8414                 6.0959                 6.0934
 IR Inten    --     20.3182                54.6605                 6.6718

                     49                     50                     51
                      A                      A                      A
 Frequencies --   3110.2647              3203.1327              3792.5952
 Red. masses --      1.1061                 1.0952                 1.0657
 Frc consts  --      6.3046                 6.6205                 9.0316
 IR Inten    --     35.7314                 8.7379                24.7295

 - Thermochemistry -
 -------------------
 Temperature   298.150 Kelvin.  Pressure   1.00000 Atm.
 Atom     1 has atomic number  8 and mass  15.99491

 Molecular mass:   126.06808 amu.
 Principal axes and moments of inertia in atomic units:
                           1         2         3
     Eigenvalues --   470.215311647.088341870.14116
           X            0.99993   0.00761   0.00892
           Y           -0.00746   0.99984  -0.01651
           Z           -0.00905   0.01644   0.99982
 This molecule is an asymmetric top.
 Rotational symmetry number  1.
 Warning -- assumption of classical behavior for rotation
           may cause significant error
 Rotational temperatures (Kelvin)      0.18420     0.05259     0.04631
 Rotational constants (GHZ):           3.83812     1.09572     0.96503
 Zero-point vibrational energy     420612.7 (Joules/Mol)
                                  100.52885 (Kcal/Mol)
 Warning -- explicit consideration of  10 degrees of freedom as
           vibrations may cause significant error
 Vibrational temperatures:    112.38   168.22   200.58   348.10   446.01
          (Kelvin)            519.05   629.24   672.08   676.94   863.84
                              987.67  1076.11  1174.32  1208.13  1240.77
                             1260.55  1298.74  1362.27  1384.07  1433.53
                             1492.55  1520.04  1550.08  1571.36  1619.52
                             1665.12  1734.23  1741.88  1772.22  1826.40
                             1830.03  1882.54  1897.39  1927.33  1960.29
                             2013.41  2055.96  2128.95  2150.06  2152.33
                             2500.77  4309.64  4334.75  4343.81  4350.07
                             4396.13  4423.07  4423.25  4474.97  4608.59
                             5456.69

 Zero-point correction=                           0.160203 (Hartree/Particle)
 Thermal correction to Energy=                    0.168318
 Thermal correction to Enthalpy=                  0.169262
 Thermal correction to Gibbs Free Energy=         0.127180
 Sum of electronic and zero-point Energies=           -422.989858
 Sum of electronic and thermal Energies=              -422.981743
 Sum of electronic and thermal Enthalpies=            -422.980798
 Sum of electronic and thermal Free Energies=         -423.022881

                     E (Thermal)             CV                S
                      KCal/Mol        Cal/Mol-Kelvin    Cal/Mol-Kelvin
 Total                  105.621             31.098             88.570
 Electronic               0.000              0.000              0.000
 Translational            0.889              2.981             40.409
 Rotational               0.889              2.981             28.762
 Vibrational            103.844             25.136             19.400
 Vibration     1          0.599              1.964              3.938
 Vibration     2          0.608              1.935              3.151
 Vibration     3          0.615              1.914              2.812
 Vibration     4          0.658              1.776              1.789
 Vibration     5          0.699              1.655              1.362
 Vibration     6          0.735              1.553              1.119
 Vibration     7          0.798              1.389              0.835
 Vibration     8          0.824              1.323              0.746
 Vibration     9          0.828              1.316              0.736
 Vibration    10          0.959              1.031              0.449

 Normal termination of Gaussian 09 at Tue Jan 28 12:22:35 2020.
