 Gaussian 09, Revision D.01,
 Gaussian 09:  ES64L-G09RevD.01 24-Apr-2013

 -----------------------------
 # b3lyp 6-31G(2df,p) opt Freq
 -----------------------------

 -----
 titel
 -----
 Symbolic Z-matrix:
 Charge =  0 Multiplicity = 1

 SCF Done:  E(RB3LYP) =  -423.122888411     A.U. after   13 cycles
 Optimization completed.
    -- Stationary point found.
 Normal termination of Gaussian 09 at Tue Jan 28 02:16:57 2020.

 ----------------------------------------------------------------------
 #N Geom=AllCheck Guess=TCheck SCRF=Check GenChk RB3LYP/6-31G(2df,p) Fr
 eq
 ----------------------------------------------------------------------

 Structure from the checkpoint file:  "/scratch/puck/g09_d249cdea-289c-416a-ac76-f7267f006282/Gau-105187.chk"
 -----
 titel
 -----
 Charge =  0 Multiplicity = 1

                         Standard orientation:
 ---------------------------------------------------------------------
 Center     Atomic      Atomic             Coordinates (Angstroms)
 Number     Number       Type             X           Y           Z
 ---------------------------------------------------------------------
      1          6           0        3.267988   -0.745516    0.349202
      2          6           0        2.075864   -0.221216   -0.408027
      3          8           0        1.775354    1.171669   -0.250786
      4          6           0        0.837704    0.213499    0.255290
      5          6           0       -0.506157    0.167834   -0.415589
      6          6           0       -1.548813    1.199599    0.163438
      7          6           0       -2.402162    0.012094    0.627261
      8          8           0       -2.706731   -0.768276   -0.534606
      9          6           0       -1.434869   -0.958591    0.088701
     10          1           0        3.259799   -1.840674    0.371503
     11          1           0        4.199088   -0.426440   -0.130605
     12          1           0        3.269622   -0.373804    1.377440
     13          1           0        1.987418   -0.569080   -1.439374
     14          1           0        0.813220    0.160776    1.347170
     15          1           0       -0.386251    0.187155   -1.501759
     16          1           0       -1.130170    1.784025    0.986728
     17          1           0       -2.030429    1.868100   -0.553021
     18          1           0       -3.089634   -0.058320    1.462148
     19          1           0       -1.178982   -1.965102    0.401247
 ---------------------------------------------------------------------

 SCF Done:  E(RB3LYP) =  -423.122888411     A.U. after    1 cycles

 The electronic state is 1-A.
 Alpha  occ. eigenvalues --  -19.15245 -19.14713 -10.24000 -10.23956 -10.23894
 Alpha  occ. eigenvalues --  -10.23774 -10.19947 -10.19169 -10.18601  -1.07993
 Alpha  occ. eigenvalues --   -1.06773  -0.81341  -0.74695  -0.69869  -0.64340
 Alpha  occ. eigenvalues --   -0.62063  -0.59673  -0.55833  -0.53099  -0.48610
 Alpha  occ. eigenvalues --   -0.47197  -0.44234  -0.43541  -0.41929  -0.40571
 Alpha  occ. eigenvalues --   -0.39171  -0.37472  -0.36486  -0.34968  -0.33547
 Alpha  occ. eigenvalues --   -0.30960  -0.27977  -0.26915  -0.25374
 Alpha virt. eigenvalues --    0.08883   0.09093   0.10057   0.10553   0.11209
 Alpha virt. eigenvalues --    0.12000   0.12762   0.13986   0.15033   0.15773
 Alpha virt. eigenvalues --    0.16514   0.17014   0.17882   0.18271   0.20123

 Mulliken charges:
               1
     1  C   -0.418569
     2  C    0.068029
     3  O   -0.264864
     4  C    0.050751
     5  C   -0.046070
     6  C   -0.274101
     7  C    0.035623
     8  O   -0.244827
     9  C    0.013196
    10  H    0.121786
    11  H    0.131560
    12  H    0.126816
    13  H    0.090189
    14  H    0.084748
    15  H    0.088366
    16  H    0.114147
    17  H    0.115342
    18  H    0.104607
    19  H    0.103271
 Sum of Mulliken charges =   0.00000

 Dipole moment (field-independent basis, Debye):
    X=              0.8253    Y=             -1.1582    Z=              1.4849  Tot=              2.0561
 Quadrupole moment (field-independent basis, Debye-Ang):
   XX=            -56.3087   YY=            -54.4919   ZZ=            -51.5997
   XY=             -6.5359   XZ=             -3.8302   YZ=              0.0110

  Exact polarizability:  93.379  -5.488  69.860  -4.225   1.459  64.521
 Approx polarizability: 117.561  -4.430 108.600  -5.277   4.764 101.080

                      1                      2                      3
                      A                      A                      A
 Frequencies --     60.6940               112.7970               122.5895
 Red. masses --      3.4016                 3.3311                 3.6805
 Frc consts  --      0.0074                 0.0250                 0.0326
 IR Inten    --      1.7964                 2.4836                 1.3066

                      4                      5                      6
                      A                      A                      A
 Frequencies --    196.6807               257.9646               321.8603
 Red. masses --      1.1054                 2.4932                 5.3109
 Frc consts  --      0.0252                 0.0978                 0.3242
 IR Inten    --      0.4927                 0.9641                 1.6696

                      7                      8                      9
                      A                      A                      A
 Frequencies --    352.8168               430.6589               491.5275
 Red. masses --      3.2387                 2.1062                 4.1530
 Frc consts  --      0.2375                 0.2301                 0.5912
 IR Inten    --      3.5347                 2.1412                 2.0974

                     10                     11                     12
                      A                      A                      A
 Frequencies --    521.2286               762.0502               786.6752
 Red. masses --      3.8609                 4.2443                 3.8728
 Frc consts  --      0.6180                 1.4522                 1.4121
 IR Inten    --     17.2680                 4.0718                 8.3014

                     13                     14                     15
                      A                      A                      A
 Frequencies --    832.4095               850.3669               862.1700
 Red. masses --      1.9700                 2.7895                 2.2563
 Frc consts  --      0.8042                 1.1885                 0.9882
 IR Inten    --     14.6704                15.2224                10.2889

                     16                     17                     18
                      A                      A                      A
 Frequencies --    893.2880               920.9265               968.4894
 Red. masses --      3.2237                 2.2036                 2.2784
 Frc consts  --      1.5156                 1.1011                 1.2591
 IR Inten    --     17.6842                 6.1707                16.6994

                     19                     20                     21
                      A                      A                      A
 Frequencies --    979.6947               995.0995              1011.2471
 Red. masses --      2.1772                 2.0300                 1.9347
 Frc consts  --      1.2312                 1.1844                 1.1657
 IR Inten    --      6.7993                17.4825                 4.7337

                     22                     23                     24
                      A                      A                      A
 Frequencies --   1036.7802              1063.0592              1093.4373
 Red. masses --      1.4323                 1.5442                 1.8852
 Frc consts  --      0.9071                 1.0282                 1.3280
 IR Inten    --      9.7825                 4.0321                 3.8721

                     25                     26                     27
                      A                      A                      A
 Frequencies --   1132.4506              1160.4272              1176.0649
 Red. masses --      1.8733                 1.5738                 1.5631
 Frc consts  --      1.4155                 1.2486                 1.2738
 IR Inten    --      6.2846                 6.7439                 3.3817

                     28                     29                     30
                      A                      A                      A
 Frequencies --   1193.6962              1206.6726              1228.8810
 Red. masses --      1.7355                 1.4433                 1.3378
 Frc consts  --      1.4570                 1.2382                 1.1903
 IR Inten    --      0.2901                 1.5659                 7.8433

                     31                     32                     33
                      A                      A                      A
 Frequencies --   1237.8682              1272.7514              1285.8503
 Red. masses --      1.4364                 1.4500                 1.5833
 Frc consts  --      1.2968                 1.3839                 1.5424
 IR Inten    --      6.5267                 1.5075                 2.5093

                     34                     35                     36
                      A                      A                      A
 Frequencies --   1293.6303              1382.6315              1386.8296
 Red. masses --      1.3610                 1.4418                 2.6995
 Frc consts  --      1.3420                 1.6239                 3.0590
 IR Inten    --      7.9070                 5.1777                24.2856

                     37                     38                     39
                      A                      A                      A
 Frequencies --   1412.8531              1473.7331              1476.4767
 Red. masses --      1.2911                 1.1180                 1.1848
 Frc consts  --      1.5184                 1.4306                 1.5218
 IR Inten    --      6.9056                 0.8510                 3.3574

                     40                     41                     42
                      A                      A                      A
 Frequencies --   1490.9877              1512.3657              3035.9680
 Red. masses --      1.1082                 2.0499                 1.0357
 Frc consts  --      1.4514                 2.7625                 5.6242
 IR Inten    --      7.8074                 8.0140                19.9263

                     43                     44                     45
                      A                      A                      A
 Frequencies --   3066.4687              3071.0238              3081.6315
 Red. masses --      1.0711                 1.0723                 1.0872
 Frc consts  --      5.9340                 5.9582                 6.0831
 IR Inten    --     17.8139                11.6808                 8.5267

                     46                     47                     48
                      A                      A                      A
 Frequencies --   3089.3767              3101.1298              3122.3814
 Red. masses --      1.0867                 1.1007                 1.1011
 Frc consts  --      6.1109                 6.2368                 6.3251
 IR Inten    --     35.4759                18.0532                30.0506

                     49                     50                     51
                      A                      A                      A
 Frequencies --   3127.5756              3174.2569              3192.0318
 Red. masses --      1.1082                 1.0878                 1.1003
 Frc consts  --      6.3866                 6.4575                 6.6055
 IR Inten    --     20.5154                16.1502                23.0716

 - Thermochemistry -
 -------------------
 Temperature   298.150 Kelvin.  Pressure   1.00000 Atm.
 Atom     1 has atomic number  6 and mass  12.00000

 Molecular mass:   126.06808 amu.
 Principal axes and moments of inertia in atomic units:
                           1         2         3
     Eigenvalues --   396.520002039.765752230.26597
           X            0.99958  -0.02899  -0.00147
           Y            0.02898   0.99953  -0.00992
           Z            0.00175   0.00987   0.99995
 This molecule is an asymmetric top.
 Rotational symmetry number  1.
 Rotational temperatures (Kelvin)      0.21843     0.04246     0.03884
 Rotational constants (GHZ):           4.55145     0.88478     0.80920
 Zero-point vibrational energy     414569.0 (Joules/Mol)
                                   99.08437 (Kcal/Mol)
 Warning -- explicit consideration of  10 degrees of freedom as
           vibrations may cause significant error
 Vibrational temperatures:     87.32   162.29   176.38   282.98   371.15
          (Kelvin)            463.08   507.62   619.62   707.20   749.93
                             1096.42  1131.85  1197.65  1223.49  1240.47
                             1285.24  1325.01  1393.44  1409.56  1431.72
                             1454.96  1491.69  1529.50  1573.21  1629.34
                             1669.59  1692.09  1717.46  1736.13  1768.08
                             1781.01  1831.20  1850.05  1861.24  1989.30
                             1995.34  2032.78  2120.37  2124.32  2145.20
                             2175.95  4368.08  4411.96  4418.51  4433.77
                             4444.92  4461.83  4492.40  4499.88  4567.04
                             4592.62

 Zero-point correction=                           0.157901 (Hartree/Particle)
 Thermal correction to Energy=                    0.166379
 Thermal correction to Enthalpy=                  0.167324
 Thermal correction to Gibbs Free Energy=         0.124139
 Sum of electronic and zero-point Energies=           -422.964987
 Sum of electronic and thermal Energies=              -422.956509
 Sum of electronic and thermal Enthalpies=            -422.955565
 Sum of electronic and thermal Free Energies=         -422.998750

                     E (Thermal)             CV                S
                      KCal/Mol        Cal/Mol-Kelvin    Cal/Mol-Kelvin
 Total                  104.405             31.656             90.891
 Electronic               0.000              0.000              0.000
 Translational            0.889              2.981             40.409
 Rotational               0.889              2.981             28.980
 Vibrational            102.627             25.695             21.502
 Vibration     1          0.597              1.973              4.435
 Vibration     2          0.607              1.939              3.220
 Vibration     3          0.610              1.930              3.059
 Vibration     4          0.636              1.845              2.164
 Vibration     5          0.667              1.749              1.676
 Vibration     6          0.707              1.632              1.301
 Vibration     7          0.729              1.569              1.154
 Vibration     8          0.792              1.403              0.857
 Vibration     9          0.847              1.269              0.680
 Vibration    10          0.876              1.203              0.607

 Normal termination of Gaussian 09 at Tue Jan 28 02:55:25 2020.
