 Gaussian 09, Revision D.01,
 Gaussian 09:  ES64L-G09RevD.01 24-Apr-2013

 -----------------------------
 # b3lyp 6-31G(2df,p) opt Freq
 -----------------------------

 -----
 titel
 -----
 Symbolic Z-matrix:
 Charge =  0 Multiplicity = 1

 SCF Done:  E(RB3LYP) =  -423.183902783     A.U. after   13 cycles
 Optimization completed.
    -- Stationary point found.
 Normal termination of Gaussian 09 at Mon Jan 27 16:18:33 2020.

 ----------------------------------------------------------------------
 #N Geom=AllCheck Guess=TCheck SCRF=Check GenChk RB3LYP/6-31G(2df,p) Fr
 eq
 ----------------------------------------------------------------------

 Structure from the checkpoint file:  "/scratch/puck/g09_8b6621b2-b489-4a40-9ae7-8e172e6dc01a/Gau-36906.chk"
 -----
 titel
 -----
 Charge =  0 Multiplicity = 1

                         Standard orientation:
 ---------------------------------------------------------------------
 Center     Atomic      Atomic             Coordinates (Angstroms)
 Number     Number       Type             X           Y           Z
 ---------------------------------------------------------------------
      1          6           0        2.042133   -0.869894    0.254029
      2          6           0        0.904212    0.110061   -0.038624
      3          6           0        1.429601    1.518497   -0.299542
      4          8           0        0.171555   -0.361450   -1.199415
      5          6           0       -1.116196   -0.756863   -0.677561
      6          8           0       -0.821876   -1.239588    0.614679
      7          6           0       -0.224607   -0.005331    1.061794
      8          6           0       -1.308375    1.007340    0.721848
      9          6           0       -1.888057    0.529236   -0.379973
     10          1           0        2.697961   -0.949144   -0.617832
     11          1           0        2.642964   -0.526104    1.103373
     12          1           0        1.641555   -1.859863    0.478342
     13          1           0        2.152904    1.497935   -1.120245
     14          1           0        0.622226    2.198645   -0.575588
     15          1           0        1.939082    1.913755    0.586286
     16          1           0       -1.553732   -1.520348   -1.317557
     17          1           0        0.123226   -0.081749    2.090171
     18          1           0       -1.461081    1.956044    1.216503
     19          1           0       -2.634813    0.980858   -1.017393
 ---------------------------------------------------------------------

 SCF Done:  E(RB3LYP) =  -423.183902783     A.U. after    1 cycles

 The electronic state is 1-A.
 Alpha  occ. eigenvalues --  -19.14584 -19.13470 -10.27829 -10.24093 -10.24029
 Alpha  occ. eigenvalues --  -10.19047 -10.18798 -10.17431 -10.16936  -1.09257
 Alpha  occ. eigenvalues --   -0.98397  -0.79882  -0.79009  -0.70040  -0.68682
 Alpha  occ. eigenvalues --   -0.60599  -0.57519  -0.55215  -0.53006  -0.49659
 Alpha  occ. eigenvalues --   -0.44432  -0.43693  -0.41752  -0.41539  -0.39474
 Alpha  occ. eigenvalues --   -0.39147  -0.37756  -0.36453  -0.35646  -0.33749
 Alpha  occ. eigenvalues --   -0.32219  -0.27928  -0.26197  -0.24137
 Alpha virt. eigenvalues --   -0.00081   0.09514   0.11024   0.11929   0.13464
 Alpha virt. eigenvalues --    0.14167   0.15424   0.15519   0.16752   0.17345
 Alpha virt. eigenvalues --    0.18397   0.18681   0.19285   0.21582   0.22355

 Mulliken charges:
               1
     1  C   -0.425203
     2  C    0.409666
     3  C   -0.437733
     4  O   -0.329841
     5  C    0.138436
     6  O   -0.237495
     7  C   -0.057370
     8  C   -0.100312
     9  C   -0.085638
    10  H    0.120951
    11  H    0.105251
    12  H    0.134182
    13  H    0.125028
    14  H    0.123074
    15  H    0.110082
    16  H    0.093566
    17  H    0.087216
    18  H    0.113279
    19  H    0.112862
 Sum of Mulliken charges =   0.00000

 Dipole moment (field-independent basis, Debye):
    X=             -0.0261    Y=              1.5127    Z=              0.6078  Tot=              1.6304
 Quadrupole moment (field-independent basis, Debye-Ang):
   XX=            -50.9431   YY=            -53.5328   ZZ=            -53.0739
   XY=             -0.9082   XZ=              3.4697   YZ=              2.2777

  Exact polarizability:  82.153  -1.622  70.527   6.629   4.633  69.031
 Approx polarizability: 112.477   1.741 104.248  12.240  10.967 118.048

                      1                      2                      3
                      A                      A                      A
 Frequencies --    182.2017               204.5220               239.9079
 Red. masses --      2.7122                 1.2309                 1.3428
 Frc consts  --      0.0530                 0.0303                 0.0455
 IR Inten    --      1.1535                 0.0238                 0.1781

                      4                      5                      6
                      A                      A                      A
 Frequencies --    250.0412               342.1621               363.7434
 Red. masses --      1.5585                 2.4887                 2.4388
 Frc consts  --      0.0574                 0.1717                 0.1901
 IR Inten    --      0.6969                 0.3569                 1.2121

                      7                      8                      9
                      A                      A                      A
 Frequencies --    433.7453               456.4981               540.3106
 Red. masses --      2.7993                 3.6375                 3.5311
 Frc consts  --      0.3103                 0.4466                 0.6074
 IR Inten    --      5.3659                 3.7662                 3.7020

                     10                     11                     12
                      A                      A                      A
 Frequencies --    601.6050               668.7511               723.8946
 Red. masses --      4.0268                 4.5292                 2.0593
 Frc consts  --      0.8587                 1.1934                 0.6358
 IR Inten    --      4.9633                 5.1493                 9.2323

                     13                     14                     15
                      A                      A                      A
 Frequencies --    773.5925               816.8854               850.6984
 Red. masses --      3.8346                 4.7131                 5.3574
 Frc consts  --      1.3521                 1.8530                 2.2843
 IR Inten    --     15.0369                21.2432                 1.2549

                     16                     17                     18
                      A                      A                      A
 Frequencies --    858.5629               881.5566               902.8306
 Red. masses --      3.1716                 4.4029                 1.8646
 Frc consts  --      1.3774                 2.0160                 0.8955
 IR Inten    --      1.8065               138.5262                 3.6680

                     19                     20                     21
                      A                      A                      A
 Frequencies --    931.0837               938.1528               944.0293
 Red. masses --      1.6012                 1.5874                 2.2732
 Frc consts  --      0.8178                 0.8232                 1.1936
 IR Inten    --     11.3305                 7.3070                23.7362

                     22                     23                     24
                      A                      A                      A
 Frequencies --    967.1237              1003.6352              1018.0284
 Red. masses --      2.0862                 1.8752                 1.3583
 Frc consts  --      1.1497                 1.1129                 0.8294
 IR Inten    --     12.5842                 4.3732                 1.1937

                     25                     26                     27
                      A                      A                      A
 Frequencies --   1066.4738              1143.0596              1158.0060
 Red. masses --      3.4470                 2.0473                 1.7358
 Frc consts  --      2.3099                 1.5761                 1.3714
 IR Inten    --     62.5842                 6.2778                10.1476

                     28                     29                     30
                      A                      A                      A
 Frequencies --   1202.4001              1232.4229              1265.6517
 Red. masses --      1.8489                 1.9155                 1.3662
 Frc consts  --      1.5750                 1.7141                 1.2894
 IR Inten    --      9.8108                 9.8876                 2.3864

                     31                     32                     33
                      A                      A                      A
 Frequencies --   1277.7930              1308.1598              1330.7442
 Red. masses --      2.3173                 1.4780                 1.6243
 Frc consts  --      2.2292                 1.4902                 1.6948
 IR Inten    --     26.0797                 3.9556                13.5957

                     34                     35                     36
                      A                      A                      A
 Frequencies --   1333.7263              1394.3857              1413.2712
 Red. masses --      1.6049                 1.2953                 1.2499
 Frc consts  --      1.6821                 1.4839                 1.4709
 IR Inten    --     14.4606                 8.6377                 7.3846

                     37                     38                     39
                      A                      A                      A
 Frequencies --   1476.7801              1487.7953              1495.6226
 Red. masses --      1.0510                 1.0491                 1.0585
 Frc consts  --      1.3505                 1.3683                 1.3951
 IR Inten    --      1.6344                 1.0480                 0.1161

                     40                     41                     42
                      A                      A                      A
 Frequencies --   1509.8894              1635.3029              3035.6735
 Red. masses --      1.0491                 6.0355                 1.0379
 Frc consts  --      1.4092                 9.5095                 5.6351
 IR Inten    --      6.1876                 1.1260                11.2440

                     43                     44                     45
                      A                      A                      A
 Frequencies --   3042.1524              3101.9409              3108.9494
 Red. masses --      1.0379                 1.0998                 1.0995
 Frc consts  --      5.6593                 6.2351                 6.2615
 IR Inten    --     29.4917                 1.1925                31.8215

                     46                     47                     48
                      A                      A                      A
 Frequencies --   3137.2814              3140.5965              3143.9003
 Red. masses --      1.0995                 1.1007                 1.0896
 Frc consts  --      6.3760                 6.3962                 6.3456
 IR Inten    --     14.1130                13.3171                35.8333

                     49                     50                     51
                      A                      A                      A
 Frequencies --   3151.7586              3223.4727              3249.2729
 Red. masses --      1.0940                 1.0867                 1.1093
 Frc consts  --      6.4028                 6.6530                 6.9001
 IR Inten    --     22.3427                 2.8750                 5.2685

 - Thermochemistry -
 -------------------
 Temperature   298.150 Kelvin.  Pressure   1.00000 Atm.
 Atom     1 has atomic number  6 and mass  12.00000

 Molecular mass:   126.06808 amu.
 Principal axes and moments of inertia in atomic units:
                           1         2         3
     Eigenvalues --   638.616481007.776801144.18440
           X            0.99955  -0.01591   0.02542
           Y            0.01559   0.99980   0.01270
           Z           -0.02561  -0.01230   0.99960
 This molecule is an asymmetric top.
 Rotational symmetry number  1.
 Warning -- assumption of classical behavior for rotation
           may cause significant error
 Rotational temperatures (Kelvin)      0.13563     0.08595     0.07570
 Rotational constants (GHZ):           2.82602     1.79081     1.57732
 Zero-point vibrational energy     418454.0 (Joules/Mol)
                                  100.01291 (Kcal/Mol)
 Warning -- explicit consideration of  10 degrees of freedom as
           vibrations may cause significant error
 Vibrational temperatures:    262.15   294.26   345.17   359.75   492.29
          (Kelvin)            523.34   624.06   656.80   777.39   865.57
                              962.18  1041.52  1113.03  1175.31  1223.96
                             1235.28  1268.36  1298.97  1339.62  1349.79
                             1358.25  1391.47  1444.01  1464.71  1534.42
                             1644.61  1666.11  1729.98  1773.18  1820.99
                             1838.46  1882.15  1914.64  1918.93  2006.21
                             2033.38  2124.75  2140.60  2151.86  2172.39
                             2352.83  4367.65  4376.97  4463.00  4473.08
                             4513.84  4518.61  4523.37  4534.67  4637.85
                             4674.97

 Zero-point correction=                           0.159381 (Hartree/Particle)
 Thermal correction to Energy=                    0.167027
 Thermal correction to Enthalpy=                  0.167971
 Thermal correction to Gibbs Free Energy=         0.127981
 Sum of electronic and zero-point Energies=           -423.024522
 Sum of electronic and thermal Energies=              -423.016876
 Sum of electronic and thermal Enthalpies=            -423.015932
 Sum of electronic and thermal Free Energies=         -423.055922

                     E (Thermal)             CV                S
                      KCal/Mol        Cal/Mol-Kelvin    Cal/Mol-Kelvin
 Total                  104.811             31.390             84.166
 Electronic               0.000              0.000              0.000
 Translational            0.889              2.981             40.409
 Rotational               0.889              2.981             28.090
 Vibrational            103.033             25.429             15.668
 Vibration     1          0.630              1.864              2.306
 Vibration     2          0.640              1.833              2.092
 Vibration     3          0.657              1.779              1.804
 Vibration     4          0.663              1.763              1.730
 Vibration     5          0.721              1.591              1.202
 Vibration     6          0.737              1.547              1.106
 Vibration     7          0.794              1.397              0.847
 Vibration     8          0.815              1.347              0.776
 Vibration     9          0.895              1.161              0.565
 Vibration    10          0.960              1.028              0.447

 Optimization completed.
    -- Stationary point found.
 Normal termination of Gaussian 09 at Mon Jan 27 17:16:32 2020.
