 Gaussian 09, Revision D.01,
 Gaussian 09:  ES64L-G09RevD.01 24-Apr-2013

 -----------------------------
 # b3lyp 6-31G(2df,p) opt Freq
 -----------------------------

 -----
 titel
 -----
 Symbolic Z-matrix:
 Charge =  0 Multiplicity = 1

 SCF Done:  E(RB3LYP) =  -423.235822300     A.U. after   14 cycles
 Optimization completed.
    -- Stationary point found.
 Normal termination of Gaussian 09 at Tue Jan 28 08:12:07 2020.

 ----------------------------------------------------------------------
 #N Geom=AllCheck Guess=TCheck SCRF=Check GenChk RB3LYP/6-31G(2df,p) Fr
 eq
 ----------------------------------------------------------------------

 Structure from the checkpoint file:  "/scratch/puck/g09_7bb99288-36e8-435a-b9fc-1aaf9af02aaa/Gau-14459.chk"
 -----
 titel
 -----
 Charge =  0 Multiplicity = 1

                         Standard orientation:
 ---------------------------------------------------------------------
 Center     Atomic      Atomic             Coordinates (Angstroms)
 Number     Number       Type             X           Y           Z
 ---------------------------------------------------------------------
      1          6           0       -2.631909   -0.597277   -0.028078
      2          6           0       -1.285894    0.070262    0.032891
      3          6           0       -1.104162    1.402153    0.044097
      4          6           0        0.234401    2.086906    0.062816
      5          6           0        1.377939    1.159824   -0.368606
      6          6           0        1.256184   -0.180144    0.356343
      7          8           0        2.292683   -1.057732    0.016320
      8          6           0       -0.100330   -0.814760    0.051470
      9          8           0       -0.166137   -2.016391   -0.147441
     10          1           0       -2.783795   -1.252895    0.836126
     11          1           0       -3.438457    0.139384   -0.055194
     12          1           0       -2.705897   -1.236082   -0.913743
     13          1           0       -1.980417    2.048863    0.039654
     14          1           0        0.196921    2.979314   -0.572391
     15          1           0        0.420463    2.463995    1.081055
     16          1           0        1.330671    0.979172   -1.449057
     17          1           0        2.352710    1.608085   -0.156087
     18          1           0        1.258564    0.018439    1.447214
     19          1           0        1.859487   -1.917084   -0.114208
 ---------------------------------------------------------------------

 SCF Done:  E(RB3LYP) =  -423.235822300     A.U. after    1 cycles

 The electronic state is 1-A.
 Alpha  occ. eigenvalues --  -19.13877 -19.12627 -10.26739 -10.23548 -10.21251
 Alpha  occ. eigenvalues --  -10.20481 -10.20419 -10.19167 -10.18644  -1.05334
 Alpha  occ. eigenvalues --   -1.00736  -0.84719  -0.77811  -0.72514  -0.68890
 Alpha  occ. eigenvalues --   -0.60700  -0.60160  -0.53100  -0.50136  -0.47953
 Alpha  occ. eigenvalues --   -0.46175  -0.44391  -0.43166  -0.42542  -0.40538
 Alpha  occ. eigenvalues --   -0.39750  -0.38067  -0.36478  -0.35899  -0.35515
 Alpha  occ. eigenvalues --   -0.33234  -0.27365  -0.26271  -0.25179
 Alpha virt. eigenvalues --   -0.05467   0.05012   0.08944   0.10749   0.12270
 Alpha virt. eigenvalues --    0.13043   0.13639   0.15538   0.16524   0.16845
 Alpha virt. eigenvalues --    0.17918   0.18636   0.20560   0.21601   0.22265

 Mulliken charges:
               1
     1  C   -0.480111
     2  C    0.218827
     3  C   -0.125065
     4  C   -0.275356
     5  C   -0.235510
     6  C    0.059673
     7  O   -0.446907
     8  C    0.294543
     9  O   -0.355375
    10  H    0.137999
    11  H    0.117663
    12  H    0.145832
    13  H    0.100842
    14  H    0.117294
    15  H    0.124689
    16  H    0.112350
    17  H    0.113158
    18  H    0.085029
    19  H    0.290426
 Sum of Mulliken charges =   0.00000

 Dipole moment (field-independent basis, Debye):
    X=             -1.7842    Y=              2.9468    Z=              0.3907  Tot=              3.4670
 Quadrupole moment (field-independent basis, Debye-Ang):
   XX=            -55.9961   YY=            -53.6185   ZZ=            -52.5364
   XY=              0.4885   XZ=              0.1039   YZ=             -0.3200

  Exact polarizability:  85.363   2.024  97.284   0.243   1.868  54.961
 Approx polarizability: 111.030   0.825 165.129   0.611   6.549  87.212

                      1                      2                      3
                      A                      A                      A
 Frequencies --     89.0143               141.0935               181.5214
 Red. masses --      5.8475                 1.0850                 2.2685
 Frc consts  --      0.0273                 0.0127                 0.0440
 IR Inten    --      0.1820                 0.6275                 0.8036

                      4                      5                      6
                      A                      A                      A
 Frequencies --    252.8506               268.5095               305.7098
 Red. masses --      2.5478                 2.6161                 2.6847
 Frc consts  --      0.0960                 0.1111                 0.1478
 IR Inten    --      0.7544                 0.3079                 2.7031

                      7                      8                      9
                      A                      A                      A
 Frequencies --    339.7732               415.2499               437.5655
 Red. masses --      4.6883                 3.5283                 3.7574
 Frc consts  --      0.3189                 0.3585                 0.4239
 IR Inten    --     28.6402                 3.3188                13.9313

                     10                     11                     12
                      A                      A                      A
 Frequencies --    454.9871               497.7077               581.2750
 Red. masses --      3.7446                 1.2963                 4.5064
 Frc consts  --      0.4567                 0.1892                 0.8971
 IR Inten    --     13.1359                45.1200                 4.6514

                     13                     14                     15
                      A                      A                      A
 Frequencies --    619.2480               727.5521               784.0240
 Red. masses --      3.0521                 2.5648                 2.0660
 Frc consts  --      0.6896                 0.7999                 0.7482
 IR Inten    --      2.5318                 6.3613                 1.1787

                     16                     17                     18
                      A                      A                      A
 Frequencies --    850.0289               887.4711               933.1046
 Red. masses --      2.2215                 2.1239                 1.7234
 Frc consts  --      0.9457                 0.9856                 0.8841
 IR Inten    --      6.1391                 9.1144                 7.1241

                     19                     20                     21
                      A                      A                      A
 Frequencies --    938.9714              1033.2134              1058.3712
 Red. masses --      2.3251                 1.6756                 2.3410
 Frc consts  --      1.2078                 1.0539                 1.5450
 IR Inten    --      5.4934                 2.0745                47.7513

                     22                     23                     24
                      A                      A                      A
 Frequencies --   1072.4871              1084.2953              1102.9135
 Red. masses --      1.7517                 2.0217                 1.7931
 Frc consts  --      1.1871                 1.4004                 1.2851
 IR Inten    --     13.6266                 7.6343                53.0265

                     25                     26                     27
                      A                      A                      A
 Frequencies --   1161.3921              1168.7940              1209.8154
 Red. masses --      1.7483                 2.3439                 1.7812
 Frc consts  --      1.3894                 1.8865                 1.5360
 IR Inten    --      1.1249                49.1163                26.0664

                     28                     29                     30
                      A                      A                      A
 Frequencies --   1262.1397              1295.0907              1326.4445
 Red. masses --      1.4254                 1.2462                 1.3042
 Frc consts  --      1.3379                 1.2315                 1.3520
 IR Inten    --      0.3500                40.1203                11.0111

                     31                     32                     33
                      A                      A                      A
 Frequencies --   1364.4598              1376.2626              1400.1467
 Red. masses --      1.5230                 1.6378                 1.8834
 Frc consts  --      1.6705                 1.8278                 2.1754
 IR Inten    --      0.6112                43.4358                 9.4847

                     34                     35                     36
                      A                      A                      A
 Frequencies --   1414.5228              1445.3190              1468.4510
 Red. masses --      1.2679                 1.5465                 1.0915
 Frc consts  --      1.4948                 1.9034                 1.3868
 IR Inten    --      2.5651                68.4610                 3.6323

                     37                     38                     39
                      A                      A                      A
 Frequencies --   1472.2109              1487.4723              1496.9664
 Red. masses --      1.0448                 1.0612                 1.1002
 Frc consts  --      1.3342                 1.3834                 1.4526
 IR Inten    --      6.1996                 8.3582                 2.8808

                     40                     41                     42
                      A                      A                      A
 Frequencies --   1698.6735              1755.8104              2901.1226
 Red. masses --      6.8435                12.1507                 1.0784
 Frc consts  --     11.6345                22.0702                 5.3474
 IR Inten    --      9.5908               192.5061                40.0778

                     43                     44                     45
                      A                      A                      A
 Frequencies --   2990.3547              3039.8444              3040.6542
 Red. masses --      1.0712                 1.0370                 1.0633
 Frc consts  --      5.6438                 5.6460                 5.7924
 IR Inten    --     15.9986                21.3396                13.0922

                     46                     47                     48
                      A                      A                      A
 Frequencies --   3057.2300              3094.1278              3096.6179
 Red. masses --      1.0852                 1.1026                 1.0986
 Frc consts  --      5.9761                 6.2191                 6.2066
 IR Inten    --     30.9701                23.3478                11.1328

                     49                     50                     51
                      A                      A                      A
 Frequencies --   3124.7065              3140.7108              3678.1947
 Red. masses --      1.1028                 1.0894                 1.0644
 Frc consts  --      6.3437                 6.3313                 8.4842
 IR Inten    --     10.3809                22.5459                57.8638

 - Thermochemistry -
 -------------------
 Temperature   298.150 Kelvin.  Pressure   1.00000 Atm.
 Atom     1 has atomic number  6 and mass  12.00000

 Molecular mass:   126.06808 amu.
 Principal axes and moments of inertia in atomic units:
                           1         2         3
     Eigenvalues --   812.911301069.810171804.48737
           X            0.99732   0.07320  -0.00036
           Y           -0.07320   0.99732  -0.00147
           Z            0.00025   0.00149   1.00000
 This molecule is an asymmetric top.
 Rotational symmetry number  1.
 Warning -- assumption of classical behavior for rotation
           may cause significant error
 Rotational temperatures (Kelvin)      0.10655     0.08096     0.04800
 Rotational constants (GHZ):           2.22010     1.68697     1.00014
 Zero-point vibrational energy     418839.4 (Joules/Mol)
                                  100.10501 (Kcal/Mol)
 Warning -- explicit consideration of  13 degrees of freedom as
           vibrations may cause significant error
 Vibrational temperatures:    128.07   203.00   261.17   363.80   386.32
          (Kelvin)            439.85   488.86   597.45   629.56   654.62
                              716.09   836.32   890.96  1046.78  1128.03
                             1223.00  1276.87  1342.53  1350.97  1486.56
                             1522.76  1543.07  1560.06  1586.84  1670.98
                             1681.63  1740.65  1815.94  1863.34  1908.46
                             1963.15  1980.13  2014.50  2035.18  2079.49
                             2112.77  2118.18  2140.14  2153.80  2444.01
                             2526.22  4174.06  4302.45  4373.65  4374.82
                             4398.67  4451.75  4455.34  4495.75  4518.78
                             5292.10

 Zero-point correction=                           0.159527 (Hartree/Particle)
 Thermal correction to Energy=                    0.168163
 Thermal correction to Enthalpy=                  0.169107
 Thermal correction to Gibbs Free Energy=         0.126433
 Sum of electronic and zero-point Energies=           -423.076295
 Sum of electronic and thermal Energies=              -423.067659
 Sum of electronic and thermal Enthalpies=            -423.066715
 Sum of electronic and thermal Free Energies=         -423.109389

                     E (Thermal)             CV                S
                      KCal/Mol        Cal/Mol-Kelvin    Cal/Mol-Kelvin
 Total                  105.524             32.951             89.814
 Electronic               0.000              0.000              0.000
 Translational            0.889              2.981             40.409
 Rotational               0.889              2.981             28.841
 Vibrational            103.746             26.989             20.565
 Vibration     1          0.602              1.957              3.682
 Vibration     2          0.615              1.912              2.789
 Vibration     3          0.630              1.865              2.313
 Vibration     4          0.664              1.758              1.711
 Vibration     5          0.673              1.731              1.606
 Vibration     6          0.696              1.663              1.385
 Vibration     7          0.720              1.596              1.213
 Vibration     8          0.779              1.437              0.908
 Vibration     9          0.798              1.388              0.834
 Vibration    10          0.813              1.350              0.781
 Vibration    11          0.853              1.255              0.664
 Vibration    12          0.938              1.072              0.483
 Vibration    13          0.979              0.991              0.418

 Optimization completed.
    -- Stationary point found.
 Normal termination of Gaussian 09 at Tue Jan 28 08:59:13 2020.
