 Gaussian 09, Revision D.01,
 Gaussian 09:  ES64L-G09RevD.01 24-Apr-2013

 -----------------------------
 # b3lyp 6-31G(2df,p) opt Freq
 -----------------------------

 -----
 titel
 -----
 Symbolic Z-matrix:
 Charge =  0 Multiplicity = 1

 SCF Done:  E(RB3LYP) =  -423.113172442     A.U. after   14 cycles
 Optimization completed.
    -- Stationary point found.
 Normal termination of Gaussian 09 at Tue Jan 28 08:58:09 2020.

 ----------------------------------------------------------------------
 #N Geom=AllCheck Guess=TCheck SCRF=Check GenChk RB3LYP/6-31G(2df,p) Fr
 eq
 ----------------------------------------------------------------------

 Structure from the checkpoint file:  "/scratch/puck/g09_ba00dd87-7e74-485d-ada7-9b5f84f2e934/Gau-93551.chk"
 -----
 titel
 -----
 Charge =  0 Multiplicity = 1

                         Standard orientation:
 ---------------------------------------------------------------------
 Center     Atomic      Atomic             Coordinates (Angstroms)
 Number     Number       Type             X           Y           Z
 ---------------------------------------------------------------------
      1          6           0        0.704841    2.223595   -0.109491
      2          8           0        0.695530    0.997137   -0.819076
      3          6           0        0.744330   -0.170148   -0.047918
      4          6           0        1.935675   -0.243736    0.901294
      5          6           0        0.559871   -1.415572   -0.932328
      6          8           0       -0.512061   -1.908248   -0.100615
      7          6           0       -0.602579   -0.657548    0.626301
      8          6           0       -1.806854    0.097287    0.324847
      9          6           0       -2.813035    0.711898    0.088992
     10          1           0        1.675742    2.422856    0.363219
     11          1           0        0.508620    3.006335   -0.845406
     12          1           0       -0.081322    2.257682    0.655219
     13          1           0        2.867171   -0.081384    0.349754
     14          1           0        1.869053    0.502085    1.698902
     15          1           0        1.977740   -1.230808    1.370233
     16          1           0        0.217471   -1.160160   -1.941509
     17          1           0        1.397154   -2.119458   -0.983976
     18          1           0       -0.531283   -0.835678    1.706499
     19          1           0       -3.701588    1.252769   -0.125588
 ---------------------------------------------------------------------

 SCF Done:  E(RB3LYP) =  -423.113172442     A.U. after    1 cycles

 The electronic state is 1-A.
 Alpha  occ. eigenvalues --  -19.14870 -19.13952 -10.25329 -10.25160 -10.22718
 Alpha  occ. eigenvalues --  -10.22697 -10.18733 -10.18324 -10.17920  -1.05602
 Alpha  occ. eigenvalues --   -1.02916  -0.78077  -0.76463  -0.70604  -0.69350
 Alpha  occ. eigenvalues --   -0.65780  -0.57090  -0.53235  -0.50874  -0.49766
 Alpha  occ. eigenvalues --   -0.48554  -0.45211  -0.44154  -0.42810  -0.41167
 Alpha  occ. eigenvalues --   -0.40123  -0.39325  -0.35623  -0.33020  -0.31031
 Alpha  occ. eigenvalues --   -0.28436  -0.26967  -0.25802  -0.25003
 Alpha virt. eigenvalues --    0.02040   0.04617   0.08769   0.11488   0.12170
 Alpha virt. eigenvalues --    0.12367   0.13212   0.14291   0.14914   0.15708
 Alpha virt. eigenvalues --    0.16385   0.16983   0.17364   0.18496   0.20420

 Mulliken charges:
               1
     1  C   -0.257269
     2  O   -0.273960
     3  C    0.371320
     4  C   -0.465525
     5  C   -0.119306
     6  O   -0.273319
     7  C   -0.172994
     8  C    0.368956
     9  C   -0.442765
    10  H    0.110363
    11  H    0.131875
    12  H    0.118660
    13  H    0.127936
    14  H    0.124229
    15  H    0.134741
    16  H    0.116123
    17  H    0.102887
    18  H    0.097867
    19  H    0.200181
 Sum of Mulliken charges =   0.00000

 Dipole moment (field-independent basis, Debye):
    X=              1.2618    Y=              1.6535    Z=              0.9512  Tot=              2.2872
 Quadrupole moment (field-independent basis, Debye-Ang):
   XX=            -49.5008   YY=            -53.5804   ZZ=            -53.0859
   XY=             -4.5289   XZ=              1.1838   YZ=              0.8042

  Exact polarizability:  91.547 -11.099  77.471   2.034   0.016  63.403
 Approx polarizability: 130.022 -21.279 111.920   3.799  -2.730  96.125

                      1                      2                      3
                      A                      A                      A
 Frequencies --     67.6293               117.0539               141.2130
 Red. masses --      3.6381                 3.4077                 2.3383
 Frc consts  --      0.0098                 0.0275                 0.0275
 IR Inten    --      1.6755                 0.5690                 4.6699

                      4                      5                      6
                      A                      A                      A
 Frequencies --    184.0406               211.7307               250.0539
 Red. masses --      1.4815                 2.9157                 1.7672
 Frc consts  --      0.0296                 0.0770                 0.0651
 IR Inten    --      0.8898                 3.7044                 1.0237

                      7                      8                      9
                      A                      A                      A
 Frequencies --    272.9770               330.5912               359.2235
 Red. masses --      1.5410                 2.1011                 3.3644
 Frc consts  --      0.0677                 0.1353                 0.2558
 IR Inten    --      1.2985                 0.2615                 2.4712

                     10                     11                     12
                      A                      A                      A
 Frequencies --    377.1821               438.4798               539.1730
 Red. masses --      3.1391                 3.9751                 6.6485
 Frc consts  --      0.2631                 0.4503                 1.1388
 IR Inten    --      0.4773                 0.4978                 8.3802

                     13                     14                     15
                      A                      A                      A
 Frequencies --    586.9157               622.8803               661.7167
 Red. masses --      4.0518                 1.2378                 3.4672
 Frc consts  --      0.8223                 0.2829                 0.8945
 IR Inten    --      7.0742                41.9698                11.4497

                     16                     17                     18
                      A                      A                      A
 Frequencies --    671.9135               837.6774               904.1468
 Red. masses --      1.3546                 2.9449                 2.5044
 Frc consts  --      0.3603                 1.2175                 1.2062
 IR Inten    --     28.4718                 7.6527                12.3804

                     19                     20                     21
                      A                      A                      A
 Frequencies --    926.4739               927.4516               973.2541
 Red. masses --      1.7942                 2.2519                 2.9251
 Frc consts  --      0.9074                 1.1412                 1.6325
 IR Inten    --      9.2515                16.6934                 7.2249

                     22                     23                     24
                      A                      A                      A
 Frequencies --   1016.7356              1051.1078              1100.3528
 Red. masses --      8.3396                 3.2980                 4.6956
 Frc consts  --      5.0794                 2.1468                 3.3497
 IR Inten    --     94.5123                20.1251                58.1806

                     25                     26                     27
                      A                      A                      A
 Frequencies --   1150.7176              1161.9458              1178.6415
 Red. masses --      1.5210                 1.9937                 1.3925
 Frc consts  --      1.1866                 1.5859                 1.1397
 IR Inten    --      2.2670                17.0233                 9.9599

                     28                     29                     30
                      A                      A                      A
 Frequencies --   1180.2676              1229.5485              1256.2641
 Red. masses --      1.3556                 1.5163                 2.9348
 Frc consts  --      1.1126                 1.3506                 2.7289
 IR Inten    --      1.9995                11.8071               103.6366

                     31                     32                     33
                      A                      A                      A
 Frequencies --   1278.3154              1351.9886              1359.6745
 Red. masses --      1.7803                 1.3501                 1.6900
 Frc consts  --      1.7140                 1.4540                 1.8407
 IR Inten    --     30.1420                 6.6175                 5.9429

                     34                     35                     36
                      A                      A                      A
 Frequencies --   1404.7932              1476.5767              1489.3189
 Red. masses --      1.2774                 1.1177                 1.0519
 Frc consts  --      1.4853                 1.4358                 1.3746
 IR Inten    --     10.2116                 0.5506                 3.5625

                     37                     38                     39
                      A                      A                      A
 Frequencies --   1491.0545              1502.4577              1506.2425
 Red. masses --      1.0649                 1.0682                 1.0532
 Frc consts  --      1.3949                 1.4207                 1.4079
 IR Inten    --      1.8072                 5.9606                 2.2010

                     40                     41                     42
                      A                      A                      A
 Frequencies --   1518.6809              2230.8481              3002.8626
 Red. masses --      1.1019                 5.9327                 1.0355
 Frc consts  --      1.4974                17.3956                 5.5015
 IR Inten    --      1.6382                 1.6018                42.3854

                     43                     44                     45
                      A                      A                      A
 Frequencies --   3024.6738              3031.7965              3040.3962
 Red. masses --      1.0778                 1.0582                 1.0379
 Frc consts  --      5.8094                 5.7307                 5.6530
 IR Inten    --     46.9429                28.9488                14.0616

                     46                     47                     48
                      A                      A                      A
 Frequencies --   3063.0651              3085.8539              3112.9172
 Red. masses --      1.1024                 1.1116                 1.1015
 Frc consts  --      6.0939                 6.2368                 6.2890
 IR Inten    --     41.8828                31.4578                17.2371

                     49                     50                     51
                      A                      A                      A
 Frequencies --   3118.3943              3122.8600              3501.3331
 Red. masses --      1.1016                 1.0992                 1.1618
 Frc consts  --      6.3114                 6.3157                 8.3918
 IR Inten    --     21.6454                18.0622                63.2900

 - Thermochemistry -
 -------------------
 Temperature   298.150 Kelvin.  Pressure   1.00000 Atm.
 Atom     1 has atomic number  6 and mass  12.00000

 Molecular mass:   126.06808 amu.
 Principal axes and moments of inertia in atomic units:
                           1         2         3
     Eigenvalues --   895.562801063.703681594.52606
           X            0.99683  -0.07568   0.02458
           Y            0.07542   0.99709   0.01127
           Z           -0.02536  -0.00938   0.99963
 This molecule is an asymmetric top.
 Rotational symmetry number  1.
 Warning -- assumption of classical behavior for rotation
           may cause significant error
 Rotational temperatures (Kelvin)      0.09671     0.08143     0.05432
 Rotational constants (GHZ):           2.01520     1.69666     1.13184
 Zero-point vibrational energy     409370.9 (Joules/Mol)
                                   97.84198 (Kcal/Mol)
 Warning -- explicit consideration of  13 degrees of freedom as
           vibrations may cause significant error
 Vibrational temperatures:     97.30   168.41   203.17   264.79   304.63
          (Kelvin)            359.77   392.75   475.65   516.84   542.68
                              630.87   775.75   844.44   896.18   952.06
                              966.73  1205.23  1300.86  1332.99  1334.39
                             1400.29  1462.85  1512.31  1583.16  1655.62
                             1671.78  1695.80  1698.14  1769.04  1807.48
                             1839.21  1945.21  1956.27  2021.18  2124.46
                             2142.80  2145.29  2161.70  2167.14  2185.04
                             3209.69  4320.44  4351.83  4362.07  4374.45
                             4407.06  4439.85  4478.79  4486.67  4493.09
                             5037.63

 Zero-point correction=                           0.155921 (Hartree/Particle)
 Thermal correction to Energy=                    0.165611
 Thermal correction to Enthalpy=                  0.166555
 Thermal correction to Gibbs Free Energy=         0.121546
 Sum of electronic and zero-point Energies=           -422.957251
 Sum of electronic and thermal Energies=              -422.947562
 Sum of electronic and thermal Enthalpies=            -422.946618
 Sum of electronic and thermal Free Energies=         -422.991626

                     E (Thermal)             CV                S
                      KCal/Mol        Cal/Mol-Kelvin    Cal/Mol-Kelvin
 Total                  103.922             35.638             94.728
 Electronic               0.000              0.000              0.000
 Translational            0.889              2.981             40.409
 Rotational               0.889              2.981             28.809
 Vibrational            102.145             29.677             25.511
 Vibration     1          0.598              1.970              4.221
 Vibration     2          0.608              1.935              3.148
 Vibration     3          0.615              1.912              2.787
 Vibration     4          0.631              1.862              2.287
 Vibration     5          0.643              1.823              2.029
 Vibration     6          0.663              1.763              1.730
 Vibration     7          0.676              1.723              1.577
 Vibration     8          0.713              1.614              1.257
 Vibration     9          0.734              1.556              1.125
 Vibration    10          0.748              1.519              1.050
 Vibration    11          0.799              1.386              0.831
 Vibration    12          0.894              1.163              0.567
 Vibration    13          0.944              1.060              0.473

 Optimization completed.
    -- Stationary point found.
 Normal termination of Gaussian 09 at Tue Jan 28 09:40:28 2020.
