 Gaussian 09, Revision D.01,
 Gaussian 09:  ES64L-G09RevD.01 24-Apr-2013

 -----------------------------
 # b3lyp 6-31G(2df,p) opt Freq
 -----------------------------

 -----
 titel
 -----
 Symbolic Z-matrix:
 Charge =  0 Multiplicity = 1

 SCF Done:  E(RB3LYP) =  -423.177879739     A.U. after   13 cycles
 Optimization completed.
    -- Stationary point found.
 Normal termination of Gaussian 09 at Mon Jan 27 23:48:33 2020.

 ----------------------------------------------------------------------
 #N Geom=AllCheck Guess=TCheck SCRF=Check GenChk RB3LYP/6-31G(2df,p) Fr
 eq
 ----------------------------------------------------------------------

 Structure from the checkpoint file:  "/scratch/puck/g09_b2814689-5a51-43cc-8e4f-f9376a5a9b49/Gau-193950.chk"
 -----
 titel
 -----
 Charge =  0 Multiplicity = 1

                         Standard orientation:
 ---------------------------------------------------------------------
 Center     Atomic      Atomic             Coordinates (Angstroms)
 Number     Number       Type             X           Y           Z
 ---------------------------------------------------------------------
      1          8           0       -1.520288    1.510112   -0.339945
      2          6           0       -0.248502    1.213345    0.179236
      3          6           0        0.801527    0.690625   -0.832381
      4          6           0        1.988439    0.441457    0.137284
      5          6           0        1.084677   -0.700771    0.661361
      6          6           0        0.568285   -0.867266   -0.799519
      7          6           0       -0.859600   -1.377655   -0.679551
      8          8           0       -1.287372   -0.913246    0.623295
      9          6           0       -0.243309   -0.049149    1.104763
     10          1           0       -2.088355    0.770550   -0.079164
     11          1           0        0.130351    2.106809    0.689815
     12          1           0        0.908233    1.245125   -1.763921
     13          1           0        2.877697    0.053050   -0.363796
     14          1           0        2.270802    1.248738    0.819675
     15          1           0        1.452713   -1.536744    1.255481
     16          1           0        1.216203   -1.427011   -1.473997
     17          1           0       -1.528396   -0.983823   -1.453298
     18          1           0       -0.910419   -2.472696   -0.692147
     19          1           0       -0.416656    0.117555    2.167395
 ---------------------------------------------------------------------

 SCF Done:  E(RB3LYP) =  -423.177879739     A.U. after    1 cycles

 The electronic state is 1-A.
 Alpha  occ. eigenvalues --  -19.14816 -19.12375 -10.23361 -10.22946 -10.22526
 Alpha  occ. eigenvalues --  -10.19792 -10.19622 -10.19144 -10.19042  -1.04989
 Alpha  occ. eigenvalues --   -1.00159  -0.88364  -0.74724  -0.68811  -0.68568
 Alpha  occ. eigenvalues --   -0.62144  -0.56576  -0.55148  -0.52610  -0.49094
 Alpha  occ. eigenvalues --   -0.47170  -0.45677  -0.42620  -0.42412  -0.40712
 Alpha  occ. eigenvalues --   -0.37126  -0.36184  -0.33924  -0.33507  -0.31973
 Alpha  occ. eigenvalues --   -0.31421  -0.30432  -0.25706  -0.25068
 Alpha virt. eigenvalues --    0.09060   0.09443   0.11572   0.12051   0.12698
 Alpha virt. eigenvalues --    0.13953   0.14779   0.15410   0.16120   0.16952
 Alpha virt. eigenvalues --    0.17951   0.18188   0.19417   0.21349   0.22449

 Mulliken charges:
               1
     1  O   -0.465016
     2  C    0.159420
     3  C   -0.078436
     4  C   -0.249011
     5  C   -0.044211
     6  C   -0.030526
     7  C   -0.127149
     8  O   -0.293877
     9  C    0.050122
    10  H    0.291238
    11  H    0.075080
    12  H    0.070024
    13  H    0.102938
    14  H    0.094997
    15  H    0.070873
    16  H    0.077091
    17  H    0.109728
    18  H    0.107345
    19  H    0.079369
 Sum of Mulliken charges =   0.00000

 Dipole moment (field-independent basis, Debye):
    X=              1.8237    Y=             -1.2602    Z=             -0.0488  Tot=              2.2173
 Quadrupole moment (field-independent basis, Debye-Ang):
   XX=            -54.1152   YY=            -55.2426   ZZ=            -51.8064
   XY=              1.7226   XZ=              0.2754   YZ=              3.1187

  Exact polarizability:  76.344   2.156  73.858   1.773   2.657  68.408
 Approx polarizability: 110.555   2.422 108.853   2.312   1.920 106.276

                      1                      2                      3
                      A                      A                      A
 Frequencies --    194.2663               299.8268               324.6557
 Red. masses --      4.6002                 2.4437                 4.5515
 Frc consts  --      0.1023                 0.1294                 0.2826
 IR Inten    --      7.6052                 0.7391                19.1504

                      4                      5                      6
                      A                      A                      A
 Frequencies --    411.5018               445.6395               517.6960
 Red. masses --      2.4930                 3.0941                 1.0763
 Frc consts  --      0.2487                 0.3620                 0.1700
 IR Inten    --      0.6731                 3.7570                52.4069

                      7                      8                      9
                      A                      A                      A
 Frequencies --    541.1426               622.8662               692.1398
 Red. masses --      4.6581                 5.7524                 4.2346
 Frc consts  --      0.8037                 1.3149                 1.1952
 IR Inten    --      3.0940                 1.0361                 1.8534

                     10                     11                     12
                      A                      A                      A
 Frequencies --    783.8692               793.2701               830.9324
 Red. masses --      3.2206                 3.4321                 2.5759
 Frc consts  --      1.1659                 1.2725                 1.0479
 IR Inten    --      2.0790                19.8368                 2.7333

                     13                     14                     15
                      A                      A                      A
 Frequencies --    840.3776               897.6321               899.8574
 Red. masses --      2.6179                 3.2365                 2.2960
 Frc consts  --      1.0893                 1.5365                 1.0954
 IR Inten    --      8.4328                 7.9554                 2.3166

                     16                     17                     18
                      A                      A                      A
 Frequencies --    921.7989               954.0382               965.1914
 Red. masses --      2.3084                 1.7100                 2.0568
 Frc consts  --      1.1556                 0.9170                 1.1289
 IR Inten    --      8.8724                 4.8066                 1.8930

                     19                     20                     21
                      A                      A                      A
 Frequencies --    989.5069              1014.7930              1042.3675
 Red. masses --      2.3491                 2.0753                 1.5497
 Frc consts  --      1.3552                 1.2592                 0.9920
 IR Inten    --     16.1768                25.4882                 2.9592

                     22                     23                     24
                      A                      A                      A
 Frequencies --   1058.5260              1081.0931              1088.3580
 Red. masses --      2.9014                 1.6631                 1.5050
 Frc consts  --      1.9154                 1.1452                 1.0503
 IR Inten    --     32.3374                 8.0154                21.5204

                     25                     26                     27
                      A                      A                      A
 Frequencies --   1111.6784              1146.5555              1175.7191
 Red. masses --      1.8387                 2.0810                 1.7074
 Frc consts  --      1.3388                 1.6118                 1.3906
 IR Inten    --      4.4747               101.1569                 9.4429

                     28                     29                     30
                      A                      A                      A
 Frequencies --   1188.8095              1228.3193              1235.3873
 Red. masses --      2.0117                 1.4156                 1.3283
 Frc consts  --      1.6751                 1.2584                 1.1944
 IR Inten    --      2.4892                 0.5983                 4.0315

                     31                     32                     33
                      A                      A                      A
 Frequencies --   1243.4926              1271.9234              1285.5098
 Red. masses --      1.4179                 1.5223                 1.4115
 Frc consts  --      1.2918                 1.4510                 1.3743
 IR Inten    --      1.3437                 9.9259                 6.7557

                     34                     35                     36
                      A                      A                      A
 Frequencies --   1306.1962              1312.5294              1333.0674
 Red. masses --      1.3607                 1.8330                 1.5354
 Frc consts  --      1.3678                 1.8605                 1.6076
 IR Inten    --      5.8375                 3.4040                 4.3549

                     37                     38                     39
                      A                      A                      A
 Frequencies --   1367.5925              1389.7953              1435.2907
 Red. masses --      1.5397                 1.3263                 1.2082
 Frc consts  --      1.6967                 1.5093                 1.4665
 IR Inten    --      7.0284                 3.6397                65.9181

                     40                     41                     42
                      A                      A                      A
 Frequencies --   1511.1281              1516.7556              3026.2767
 Red. masses --      1.1115                 1.0912                 1.0565
 Frc consts  --      1.4955                 1.4791                 5.7008
 IR Inten    --      1.9959                 0.2862                67.9424

                     43                     44                     45
                      A                      A                      A
 Frequencies --   3029.7527              3055.1039              3066.4645
 Red. masses --      1.0851                 1.0589                 1.1095
 Frc consts  --      5.8688                 5.8234                 6.1466
 IR Inten    --     29.6348                52.8298                25.2766

                     46                     47                     48
                      A                      A                      A
 Frequencies --   3113.7829              3114.8502              3119.5331
 Red. masses --      1.0979                 1.0954                 1.0891
 Frc consts  --      6.2719                 6.2618                 6.2446
 IR Inten    --     11.5247                 1.9679                57.9110

                     49                     50                     51
                      A                      A                      A
 Frequencies --   3126.3777              3131.9121              3713.9462
 Red. masses --      1.0887                 1.0938                 1.0648
 Frc consts  --      6.2695                 6.3215                 8.6538
 IR Inten    --     75.4887                 7.3366                55.5599

 - Thermochemistry -
 -------------------
 Temperature   298.150 Kelvin.  Pressure   1.00000 Atm.
 Atom     1 has atomic number  8 and mass  15.99491

 Molecular mass:   126.06808 amu.
 Principal axes and moments of inertia in atomic units:
                           1         2         3
     Eigenvalues --   708.97176 850.550801092.31209
           X            0.99807   0.06035   0.01439
           Y           -0.06106   0.99658   0.05575
           Z           -0.01098  -0.05652   0.99834
 This molecule is an asymmetric top.
 Rotational symmetry number  1.
 Warning -- assumption of classical behavior for rotation
           may cause significant error
 Rotational temperatures (Kelvin)      0.12217     0.10183     0.07929
 Rotational constants (GHZ):           2.54558     2.12185     1.65222
 Zero-point vibrational energy     429274.5 (Joules/Mol)
                                  102.59907 (Kcal/Mol)
 Warning -- explicit consideration of   7 degrees of freedom as
           vibrations may cause significant error
 Vibrational temperatures:    279.51   431.38   467.11   592.06   641.17
          (Kelvin)            744.85   778.58   896.16   995.83  1127.81
                             1141.34  1195.52  1209.11  1291.49  1294.69
                             1326.26  1372.65  1388.69  1423.68  1460.06
                             1499.73  1522.98  1555.45  1565.90  1599.46
                             1649.64  1691.60  1710.43  1767.28  1777.44
                             1789.11  1830.01  1849.56  1879.32  1888.43
                             1917.98  1967.66  1999.60  2065.06  2174.17
                             2182.27  4354.13  4359.13  4395.61  4411.95
                             4480.03  4481.57  4488.31  4498.15  4506.12
                             5343.53

 Zero-point correction=                           0.163502 (Hartree/Particle)
 Thermal correction to Energy=                    0.169895
 Thermal correction to Enthalpy=                  0.170839
 Thermal correction to Gibbs Free Energy=         0.133148
 Sum of electronic and zero-point Energies=           -423.014378
 Sum of electronic and thermal Energies=              -423.007985
 Sum of electronic and thermal Enthalpies=            -423.007040
 Sum of electronic and thermal Free Energies=         -423.044732

                     E (Thermal)             CV                S
                      KCal/Mol        Cal/Mol-Kelvin    Cal/Mol-Kelvin
 Total                  106.611             27.657             79.329
 Electronic               0.000              0.000              0.000
 Translational            0.889              2.981             40.409
 Rotational               0.889              2.981             27.979
 Vibrational            104.833             21.695             10.941
 Vibration     1          0.635              1.848              2.187
 Vibration     2          0.692              1.674              1.418
 Vibration     3          0.709              1.626              1.287
 Vibration     4          0.775              1.445              0.921
 Vibration     5          0.805              1.371              0.809
 Vibration     6          0.873              1.211              0.615
 Vibration     7          0.896              1.159              0.563

 Optimization completed.
    -- Stationary point found.
 Normal termination of Gaussian 09 at Tue Jan 28 00:37:25 2020.
