 Gaussian 09, Revision D.01,
 Gaussian 09:  ES64L-G09RevD.01 24-Apr-2013

 -----------------------------
 # b3lyp 6-31G(2df,p) opt Freq
 -----------------------------

 -----
 titel
 -----
 Symbolic Z-matrix:
 Charge =  0 Multiplicity = 1

 SCF Done:  E(RB3LYP) =  -423.090930784     A.U. after   13 cycles
 Optimization completed.
    -- Stationary point found.
 Normal termination of Gaussian 09 at Tue Jan 28 12:46:58 2020.

 ----------------------------------------------------------------------
 #N Geom=AllCheck Guess=TCheck SCRF=Check GenChk RB3LYP/6-31G(2df,p) Fr
 eq
 ----------------------------------------------------------------------

 Structure from the checkpoint file:  "/scratch/puck/g09_7b7f608e-65c8-4576-933f-6873c8ab8222/Gau-10662.chk"
 -----
 titel
 -----
 Charge =  0 Multiplicity = 1

                         Standard orientation:
 ---------------------------------------------------------------------
 Center     Atomic      Atomic             Coordinates (Angstroms)
 Number     Number       Type             X           Y           Z
 ---------------------------------------------------------------------
      1          6           0       -3.132191   -0.679005    0.052496
      2          8           0       -2.143622    0.160794   -0.501121
      3          6           0       -1.101694    0.454217    0.387881
      4          6           0        0.076324    1.201485   -0.236655
      5          6           0        1.071085    0.631931    0.834748
      6          6           0        2.053242    0.184018   -0.268120
      7          8           0        2.959118   -0.860825   -0.029694
      8          6           0        0.666640   -0.105197   -0.877163
      9          6           0        0.071873   -0.542511    0.517085
     10          1           0       -3.587727   -0.232578    0.950392
     11          1           0       -3.907443   -0.813394   -0.705490
     12          1           0       -2.730652   -1.666274    0.326139
     13          1           0       -1.497051    0.856100    1.335026
     14          1           0        0.102562    2.200267   -0.672332
     15          1           0        1.269638    1.059935    1.818386
     16          1           0        2.631839    0.981471   -0.745019
     17          1           0        2.479412   -1.592599    0.373653
     18          1           0        0.403946   -0.519387   -1.849338
     19          1           0        0.079828   -1.542923    0.953466
 ---------------------------------------------------------------------

 SCF Done:  E(RB3LYP) =  -423.090930784     A.U. after    1 cycles

 The electronic state is 1-A.
 Alpha  occ. eigenvalues --  -19.14065 -19.13502 -10.23486 -10.23175 -10.22555
 Alpha  occ. eigenvalues --  -10.20191 -10.20121 -10.19988 -10.19649  -1.03769
 Alpha  occ. eigenvalues --   -1.02105  -0.93260  -0.73909  -0.68009  -0.63987
 Alpha  occ. eigenvalues --   -0.63516  -0.60075  -0.53055  -0.50997  -0.49577
 Alpha  occ. eigenvalues --   -0.48522  -0.46063  -0.43866  -0.43212  -0.38992
 Alpha  occ. eigenvalues --   -0.37978  -0.35702  -0.32823  -0.31727  -0.31055
 Alpha  occ. eigenvalues --   -0.30544  -0.28972  -0.25460  -0.25045
 Alpha virt. eigenvalues --    0.07010   0.08990   0.11465   0.12211   0.12724
 Alpha virt. eigenvalues --    0.13635   0.14282   0.14770   0.15941   0.16183
 Alpha virt. eigenvalues --    0.17496   0.18478   0.19135   0.19732   0.20911

 Mulliken charges:
               1
     1  C   -0.240021
     2  O   -0.255230
     3  C    0.147899
     4  C   -0.094814
     5  C   -0.109028
     6  C    0.149454
     7  O   -0.447520
     8  C   -0.092099
     9  C   -0.122392
    10  H    0.104982
    11  H    0.128321
    12  H    0.105288
    13  H    0.059319
    14  H    0.077332
    15  H    0.073275
    16  H    0.084053
    17  H    0.280843
    18  H    0.082587
    19  H    0.067751
 Sum of Mulliken charges =   0.00000

 Dipole moment (field-independent basis, Debye):
    X=             -1.4779    Y=             -0.5727    Z=              1.2450  Tot=              2.0155
 Quadrupole moment (field-independent basis, Debye-Ang):
   XX=            -59.0096   YY=            -49.8712   ZZ=            -52.9126
   XY=              2.9487   XZ=             -0.9641   YZ=             -0.8643

  Exact polarizability:  91.014   2.202  70.585  -1.166  -0.283  66.900
 Approx polarizability: 115.716   0.848 109.983  -0.089  -1.823 106.178

                      1                      2                      3
                      A                      A                      A
 Frequencies --     78.2901               152.7075               167.4600
 Red. masses --      2.9917                 2.3421                 1.9654
 Frc consts  --      0.0108                 0.0322                 0.0325
 IR Inten    --      1.1474                 0.8114                 0.7981

                      4                      5                      6
                      A                      A                      A
 Frequencies --    211.3197               264.5477               303.6697
 Red. masses --      2.2106                 1.8992                 1.5003
 Frc consts  --      0.0582                 0.0783                 0.0815
 IR Inten    --      5.5704                 9.1812                54.6686

                      7                      8                      9
                      A                      A                      A
 Frequencies --    382.0186               432.8228               535.9573
 Red. masses --      4.0323                 3.8721                 3.7010
 Frc consts  --      0.3467                 0.4274                 0.6264
 IR Inten    --     13.7127                 3.9002                 1.9265

                     10                     11                     12
                      A                      A                      A
 Frequencies --    597.5857               732.3166               801.3074
 Red. masses --      3.8788                 3.7231                 2.8832
 Frc consts  --      0.8161                 1.1764                 1.0908
 IR Inten    --      1.7397                 2.2716                12.7938

                     13                     14                     15
                      A                      A                      A
 Frequencies --    840.6022               845.2164               874.9726
 Red. masses --      1.9862                 2.0157                 2.1046
 Frc consts  --      0.8269                 0.8484                 0.9493
 IR Inten    --      0.3873                 0.7071                15.4172

                     16                     17                     18
                      A                      A                      A
 Frequencies --    906.8325               927.4115               951.6910
 Red. masses --      2.3372                 1.8733                 1.5204
 Frc consts  --      1.1324                 0.9493                 0.8113
 IR Inten    --     12.3304                 1.8076                 0.9052

                     19                     20                     21
                      A                      A                      A
 Frequencies --    985.2538              1007.5772              1021.4979
 Red. masses --      1.6688                 2.7581                 3.6456
 Frc consts  --      0.9544                 1.6497                 2.2412
 IR Inten    --      2.1859                 7.8565                15.5608

                     22                     23                     24
                      A                      A                      A
 Frequencies --   1081.8213              1114.4152              1120.9055
 Red. masses --      3.4937                 1.7765                 2.7493
 Frc consts  --      2.4091                 1.2999                 2.0352
 IR Inten    --    128.7791                54.3727                90.9276

                     25                     26                     27
                      A                      A                      A
 Frequencies --   1135.7651              1145.6368              1160.1768
 Red. masses --      1.7037                 1.5960                 1.9423
 Frc consts  --      1.2949                 1.2341                 1.5403
 IR Inten    --     11.8289                 4.2316                52.0911

                     28                     29                     30
                      A                      A                      A
 Frequencies --   1164.7093              1170.6908              1184.2256
 Red. masses --      1.6719                 1.9526                 1.3083
 Frc consts  --      1.3363                 1.5767                 1.0810
 IR Inten    --     22.7878                16.9390                 2.5661

                     31                     32                     33
                      A                      A                      A
 Frequencies --   1229.6540              1230.5895              1251.9203
 Red. masses --      1.6762                 1.7196                 1.6870
 Frc consts  --      1.4933                 1.5343                 1.5578
 IR Inten    --     15.5299                39.8336                 7.6280

                     34                     35                     36
                      A                      A                      A
 Frequencies --   1284.0940              1301.2541              1312.7286
 Red. masses --      1.4920                 1.9586                 1.7684
 Frc consts  --      1.4495                 1.9539                 1.7954
 IR Inten    --     35.8845                 7.9443                 1.0606

                     37                     38                     39
                      A                      A                      A
 Frequencies --   1399.1067              1446.8034              1484.0823
 Red. masses --      1.3546                 1.2981                 1.1419
 Frc consts  --      1.5623                 1.6010                 1.4818
 IR Inten    --     62.7499               108.4629                 5.0433

                     40                     41                     42
                      A                      A                      A
 Frequencies --   1488.9890              1509.1748              2969.3497
 Red. masses --      1.0692                 1.0665                 1.0662
 Frc consts  --      1.3967                 1.4312                 5.5387
 IR Inten    --      2.9136                 4.7797                35.1484

                     43                     44                     45
                      A                      A                      A
 Frequencies --   2978.7165              3022.6614              3067.4313
 Red. masses --      1.0529                 1.1026                 1.0853
 Frc consts  --      5.5040                 5.9353                 6.0166
 IR Inten    --     97.7517                49.6921                44.8565

                     46                     47                     48
                      A                      A                      A
 Frequencies --   3090.1555              3105.3437              3115.6526
 Red. masses --      1.0883                 1.0903                 1.0963
 Frc consts  --      6.1229                 6.1949                 6.2703
 IR Inten    --     45.7967                50.7534                34.3264

                     49                     50                     51
                      A                      A                      A
 Frequencies --   3117.0180              3133.0943              3803.1968
 Red. masses --      1.0909                 1.0951                 1.0654
 Frc consts  --      6.2447                 6.3336                 9.0792
 IR Inten    --     47.8928                21.5901                 9.2515

 - Thermochemistry -
 -------------------
 Temperature   298.150 Kelvin.  Pressure   1.00000 Atm.
 Atom     1 has atomic number  6 and mass  12.00000

 Molecular mass:   126.06808 amu.
 Principal axes and moments of inertia in atomic units:
                           1         2         3
     Eigenvalues --   368.238011817.928561898.22489
           X            0.99982   0.01740  -0.00748
           Y           -0.01756   0.99960  -0.02232
           Z            0.00709   0.02244   0.99972
 This molecule is an asymmetric top.
 Rotational symmetry number  1.
 Rotational temperatures (Kelvin)      0.23521     0.04764     0.04563
 Rotational constants (GHZ):           4.90102     0.99275     0.95075
 Zero-point vibrational energy     416542.2 (Joules/Mol)
                                   99.55598 (Kcal/Mol)
 Warning -- explicit consideration of  10 degrees of freedom as
           vibrations may cause significant error
 Vibrational temperatures:    112.64   219.71   240.94   304.04   380.62
          (Kelvin)            436.91   549.64   622.73   771.12   859.79
                             1053.64  1152.90  1209.44  1216.08  1258.89
                             1304.73  1334.34  1369.27  1417.56  1449.68
                             1469.71  1556.50  1603.39  1612.73  1634.11
                             1648.31  1669.23  1675.75  1684.36  1703.83
                             1769.20  1770.54  1801.23  1847.52  1872.21
                             1888.72  2013.00  2081.62  2135.26  2142.32
                             2171.36  4272.23  4285.70  4348.93  4413.34
                             4446.04  4467.89  4482.72  4484.69  4507.82
                             5471.95

 Zero-point correction=                           0.158653 (Hartree/Particle)
 Thermal correction to Energy=                    0.166829
 Thermal correction to Enthalpy=                  0.167773
 Thermal correction to Gibbs Free Energy=         0.125767
 Sum of electronic and zero-point Energies=           -422.932278
 Sum of electronic and thermal Energies=              -422.924102
 Sum of electronic and thermal Enthalpies=            -422.923158
 Sum of electronic and thermal Free Energies=         -422.965164

                     E (Thermal)             CV                S
                      KCal/Mol        Cal/Mol-Kelvin    Cal/Mol-Kelvin
 Total                  104.687             31.313             88.409
 Electronic               0.000              0.000              0.000
 Translational            0.889              2.981             40.409
 Rotational               0.889              2.981             28.632
 Vibrational            102.909             25.351             19.369
 Vibration     1          0.600              1.964              3.933
 Vibration     2          0.619              1.900              2.638
 Vibration     3          0.624              1.883              2.464
 Vibration     4          0.643              1.824              2.032
 Vibration     5          0.671              1.738              1.632
 Vibration     6          0.695              1.667              1.397
 Vibration     7          0.751              1.509              1.031
 Vibration     8          0.794              1.399              0.849
 Vibration     9          0.891              1.171              0.574
 Vibration    10          0.956              1.037              0.454

 Normal termination of Gaussian 09 at Tue Jan 28 14:34:20 2020.
