 Gaussian 09, Revision D.01,
 Gaussian 09:  ES64L-G09RevD.01 24-Apr-2013

 -----------------------------
 # b3lyp 6-31G(2df,p) opt Freq
 -----------------------------

 -----
 titel
 -----
 Symbolic Z-matrix:
 Charge =  0 Multiplicity = 1

 SCF Done:  E(RB3LYP) =  -423.167717585     A.U. after   14 cycles
 Optimization completed.
    -- Stationary point found.
 Normal termination of Gaussian 09 at Mon Jan 27 16:11:27 2020.

 ----------------------------------------------------------------------
 #N Geom=AllCheck Guess=TCheck SCRF=Check GenChk RB3LYP/6-31G(2df,p) Fr
 eq
 ----------------------------------------------------------------------

 Structure from the checkpoint file:  "/scratch/puck/g09_92a620d0-67d3-42c6-bcea-98274a9b4d15/Gau-63376.chk"
 -----
 titel
 -----
 Charge =  0 Multiplicity = 1

                         Standard orientation:
 ---------------------------------------------------------------------
 Center     Atomic      Atomic             Coordinates (Angstroms)
 Number     Number       Type             X           Y           Z
 ---------------------------------------------------------------------
      1          6           0        1.334112    0.059525    1.549037
      2          6           0        1.269117    0.017084    0.043245
      3          8           0        2.514592    0.053302   -0.605931
      4          6           0        0.181484   -0.756374   -0.675261
      5          8           0       -0.821338   -1.349088    0.097793
      6          6           0       -2.099834   -0.725620    0.011289
      7          6           0       -2.041895    0.770545    0.193598
      8          6           0       -0.946525    1.453638   -0.136072
      9          6           0        0.205611    0.754722   -0.753363
     10          1           0        1.867372    0.956348    1.879594
     11          1           0        0.337603    0.054498    1.991221
     12          1           0        1.872489   -0.816715    1.931075
     13          1           0        2.993841   -0.747972   -0.364185
     14          1           0        0.475507   -1.329622   -1.553559
     15          1           0       -2.583636   -0.973388   -0.949124
     16          1           0       -2.702054   -1.187656    0.800259
     17          1           0       -2.921214    1.260028    0.601523
     18          1           0       -0.884470    2.528275    0.010753
     19          1           0        0.586112    1.181373   -1.677288
 ---------------------------------------------------------------------

 SCF Done:  E(RB3LYP) =  -423.167717585     A.U. after    1 cycles

 The electronic state is 1-A.
 Alpha  occ. eigenvalues --  -19.14260 -19.14071 -10.23778 -10.23253 -10.22555
 Alpha  occ. eigenvalues --  -10.18819 -10.18674 -10.18358 -10.17280  -1.04079
 Alpha  occ. eigenvalues --   -1.02352  -0.84453  -0.78703  -0.71580  -0.67630
 Alpha  occ. eigenvalues --   -0.62393  -0.56724  -0.52627  -0.50416  -0.49379
 Alpha  occ. eigenvalues --   -0.48106  -0.44235  -0.43560  -0.41621  -0.40093
 Alpha  occ. eigenvalues --   -0.39150  -0.37311  -0.36393  -0.35051  -0.31316
 Alpha  occ. eigenvalues --   -0.30429  -0.26727  -0.24074  -0.22851
 Alpha virt. eigenvalues --    0.01141   0.08128   0.09600   0.11859   0.12449
 Alpha virt. eigenvalues --    0.13298   0.15442   0.15985   0.16902   0.17390
 Alpha virt. eigenvalues --    0.17800   0.18902   0.20376   0.21585   0.23929

 Mulliken charges:
               1
     1  C   -0.448461
     2  C    0.341774
     3  O   -0.462737
     4  C    0.008567
     5  O   -0.259862
     6  C   -0.117954
     7  C   -0.077044
     8  C   -0.087534
     9  C   -0.146305
    10  H    0.121024
    11  H    0.134423
    12  H    0.107438
    13  H    0.280403
    14  H    0.087895
    15  H    0.105469
    16  H    0.115386
    17  H    0.095653
    18  H    0.095464
    19  H    0.106402
 Sum of Mulliken charges =   0.00000

 Dipole moment (field-independent basis, Debye):
    X=             -0.5987    Y=             -0.0786    Z=              0.2576  Tot=              0.6565
 Quadrupole moment (field-independent basis, Debye-Ang):
   XX=            -49.0388   YY=            -53.1823   ZZ=            -53.2534
   XY=             -4.1568   XZ=              0.9392   YZ=              1.2187

  Exact polarizability:  95.192   0.990  72.032  -2.881   0.479  64.400
 Approx polarizability: 135.347   7.399 111.566  -8.285  -3.198  94.650

                      1                      2                      3
                      A                      A                      A
 Frequencies --    130.1768               158.9357               165.4578
 Red. masses --      2.8717                 2.2509                 1.1960
 Frc consts  --      0.0287                 0.0335                 0.0193
 IR Inten    --      0.7153                 2.4962                 0.3323

                      4                      5                      6
                      A                      A                      A
 Frequencies --    234.4956               266.5306               315.6890
 Red. masses --      2.2074                 2.4150                 1.5413
 Frc consts  --      0.0715                 0.1011                 0.0905
 IR Inten    --      9.3998                35.3086                45.5116

                      7                      8                      9
                      A                      A                      A
 Frequencies --    367.6810               385.6137               486.5508
 Red. masses --      2.6860                 5.1230                 3.2717
 Frc consts  --      0.2139                 0.4488                 0.4563
 IR Inten    --      1.8562                27.1332                 4.1847

                     10                     11                     12
                      A                      A                      A
 Frequencies --    499.2709               509.5967               578.7312
 Red. masses --      2.9733                 3.5970                 5.0348
 Frc consts  --      0.4367                 0.5504                 0.9935
 IR Inten    --      3.2204                 6.8258                 1.5741

                     13                     14                     15
                      A                      A                      A
 Frequencies --    691.3966               746.3553               832.3970
 Red. masses --      1.7875                 2.3139                 3.3910
 Frc consts  --      0.5034                 0.7594                 1.3843
 IR Inten    --     14.9478                12.0521                 7.7496

                     16                     17                     18
                      A                      A                      A
 Frequencies --    862.5183               891.3693               921.8859
 Red. masses --      2.5284                 3.2718                 3.3724
 Frc consts  --      1.1082                 1.5316                 1.6887
 IR Inten    --      6.1598                 6.6031                 6.3875

                     19                     20                     21
                      A                      A                      A
 Frequencies --    975.9361               980.5262               998.7866
 Red. masses --      1.5741                 1.4354                 1.9567
 Frc consts  --      0.8833                 0.8131                 1.1500
 IR Inten    --      5.2920                 4.4551                12.0595

                     22                     23                     24
                      A                      A                      A
 Frequencies --   1002.8795              1053.9905              1080.4440
 Red. masses --      2.2299                 1.8996                 1.6650
 Frc consts  --      1.3214                 1.2433                 1.1451
 IR Inten    --     11.8254                 7.9931                 1.5601

                     25                     26                     27
                      A                      A                      A
 Frequencies --   1092.8091              1115.5790              1144.8457
 Red. masses --      1.4124                 1.7803                 2.2289
 Frc consts  --      0.9938                 1.3054                 1.7212
 IR Inten    --      3.2578                27.6642               141.7503

                     28                     29                     30
                      A                      A                      A
 Frequencies --   1209.1018              1223.4276              1266.8702
 Red. masses --      1.4101                 2.3538                 1.1438
 Frc consts  --      1.2146                 2.0758                 1.0816
 IR Inten    --     60.1047                14.5061                 3.3442

                     31                     32                     33
                      A                      A                      A
 Frequencies --   1285.8971              1318.7465              1335.8961
 Red. masses --      2.1353                 1.2540                 1.4750
 Frc consts  --      2.0803                 1.2849                 1.5509
 IR Inten    --      3.0336                 2.7211                33.4749

                     34                     35                     36
                      A                      A                      A
 Frequencies --   1390.1221              1411.2207              1413.0097
 Red. masses --      1.4558                 1.5295                 1.4830
 Frc consts  --      1.6575                 1.7946                 1.7446
 IR Inten    --      4.5365                13.0845                 4.3960

                     37                     38                     39
                      A                      A                      A
 Frequencies --   1437.0056              1483.9656              1492.6667
 Red. masses --      2.4577                 1.0495                 1.0858
 Frc consts  --      2.9901                 1.3617                 1.4254
 IR Inten    --     12.8579                 2.8565                 1.2852

                     40                     41                     42
                      A                      A                      A
 Frequencies --   1497.8462              1708.6204              2958.8566
 Red. masses --      1.1705                 6.7067                 1.0720
 Frc consts  --      1.5472                11.5358                 5.5296
 IR Inten    --      5.3880                 3.6903                61.6740

                     43                     44                     45
                      A                      A                      A
 Frequencies --   3029.7473              3069.4627              3091.4768
 Red. masses --      1.0422                 1.0889                 1.0969
 Frc consts  --      5.6367                 6.0447                 6.1769
 IR Inten    --     34.2913                30.8199                19.7241

                     46                     47                     48
                      A                      A                      A
 Frequencies --   3107.8890              3147.7937              3148.8651
 Red. masses --      1.0883                 1.0888                 1.0949
 Frc consts  --      6.1932                 6.3562                 6.3962
 IR Inten    --     33.1169                 2.5057                14.8678

                     49                     50                     51
                      A                      A                      A
 Frequencies --   3158.9511              3182.5924              3783.1439
 Red. masses --      1.0848                 1.0982                 1.0658
 Frc consts  --      6.3779                 6.5537                 8.9873
 IR Inten    --      8.5520                23.0675                14.3980

 - Thermochemistry -
 -------------------
 Temperature   298.150 Kelvin.  Pressure   1.00000 Atm.
 Atom     1 has atomic number  6 and mass  12.00000

 Molecular mass:   126.06808 amu.
 Principal axes and moments of inertia in atomic units:
                           1         2         3
     Eigenvalues --   584.835851334.801381446.38198
           X            0.99985  -0.01065   0.01391
           Y            0.01001   0.99891   0.04552
           Z           -0.01438  -0.04538   0.99887
 This molecule is an asymmetric top.
 Rotational symmetry number  1.
 Warning -- assumption of classical behavior for rotation
           may cause significant error
 Rotational temperatures (Kelvin)      0.14810     0.06489     0.05988
 Rotational constants (GHZ):           3.08589     1.35207     1.24776
 Zero-point vibrational energy     416561.4 (Joules/Mol)
                                   99.56056 (Kcal/Mol)
 Warning -- explicit consideration of  12 degrees of freedom as
           vibrations may cause significant error
 Vibrational temperatures:    187.30   228.67   238.06   337.39   383.48
          (Kelvin)            454.21   529.01   554.81   700.04   718.34
                              733.20   832.66   994.76  1073.84  1197.63
                             1240.97  1282.48  1326.39  1404.15  1410.76
                             1437.03  1442.92  1516.46  1554.52  1572.31
                             1605.07  1647.18  1739.63  1760.24  1822.74
                             1850.12  1897.38  1922.05  2000.07  2030.43
                             2033.00  2067.53  2135.09  2147.61  2155.06
                             2458.32  4257.13  4359.13  4416.27  4447.94
                             4471.55  4528.97  4530.51  4545.02  4579.03
                             5443.09

 Zero-point correction=                           0.158660 (Hartree/Particle)
 Thermal correction to Energy=                    0.167154
 Thermal correction to Enthalpy=                  0.168098
 Thermal correction to Gibbs Free Energy=         0.126056
 Sum of electronic and zero-point Energies=           -423.009058
 Sum of electronic and thermal Energies=              -423.000564
 Sum of electronic and thermal Enthalpies=            -422.999620
 Sum of electronic and thermal Free Energies=         -423.041662

                     E (Thermal)             CV                S
                      KCal/Mol        Cal/Mol-Kelvin    Cal/Mol-Kelvin
 Total                  104.890             33.055             88.485
 Electronic               0.000              0.000              0.000
 Translational            0.889              2.981             40.409
 Rotational               0.889              2.981             28.514
 Vibrational            103.113             27.093             19.562
 Vibration     1          0.612              1.923              2.943
 Vibration     2          0.621              1.893              2.562
 Vibration     3          0.624              1.885              2.486
 Vibration     4          0.654              1.788              1.844
 Vibration     5          0.672              1.735              1.619
 Vibration     6          0.703              1.644              1.332
 Vibration     7          0.740              1.539              1.089
 Vibration     8          0.754              1.501              1.017
 Vibration     9          0.843              1.280              0.693
 Vibration    10          0.855              1.252              0.660
 Vibration    11          0.865              1.229              0.635
 Vibration    12          0.935              1.077              0.488

 Normal termination of Gaussian 09 at Mon Jan 27 16:58:23 2020.
 Normal termination of Gaussian 09 at Mon Jan 27 16:11:04 2020.
