 Gaussian 09, Revision D.01,
 Gaussian 09:  ES64L-G09RevD.01 24-Apr-2013

 -----------------------------
 # b3lyp 6-31G(2df,p) opt Freq
 -----------------------------

 -----
 titel
 -----
 Symbolic Z-matrix:
 Charge =  0 Multiplicity = 1

 SCF Done:  E(RB3LYP) =  -423.174258628     A.U. after   14 cycles
 Optimization completed.
    -- Stationary point found.
 Normal termination of Gaussian 09 at Tue Jan 28 00:02:19 2020.

 ----------------------------------------------------------------------
 #N Geom=AllCheck Guess=TCheck SCRF=Check GenChk RB3LYP/6-31G(2df,p) Fr
 eq
 ----------------------------------------------------------------------

 Structure from the checkpoint file:  "/scratch/puck/g09_9f15b089-9905-4d15-a631-350042ef9ca6/Gau-104144.chk"
 -----
 titel
 -----
 Charge =  0 Multiplicity = 1

                         Standard orientation:
 ---------------------------------------------------------------------
 Center     Atomic      Atomic             Coordinates (Angstroms)
 Number     Number       Type             X           Y           Z
 ---------------------------------------------------------------------
      1          6           0       -2.446383   -0.456657    0.630629
      2          6           0       -1.186640   -0.610803   -0.223713
      3          6           0        0.119412   -1.012958    0.517128
      4          8           0        1.041958   -1.712705   -0.336464
      5          6           0        1.730193   -0.493348   -0.682283
      6          6           0        0.786634    0.372772    0.195827
      7          6           0        1.386852    1.379210    1.150375
      8          6           0       -0.506858    0.739888   -0.551083
      9          8           0       -0.888780    1.748463   -1.072820
     10          1           0       -2.247340    0.123000    1.538688
     11          1           0       -3.223393    0.067778    0.067764
     12          1           0       -2.834002   -1.434252    0.932454
     13          1           0       -1.379124   -1.238675   -1.099175
     14          1           0        0.032860   -1.452761    1.513785
     15          1           0        2.764594   -0.499925   -0.315507
     16          1           0        1.733359   -0.296784   -1.760788
     17          1           0        1.780389    2.237751    0.595488
     18          1           0        0.640427    1.760075    1.854388
     19          1           0        2.207554    0.939099    1.725907
 ---------------------------------------------------------------------

 SCF Done:  E(RB3LYP) =  -423.174258628     A.U. after    1 cycles

 The electronic state is 1-A.
 Alpha  occ. eigenvalues --  -19.14248 -19.14120 -10.26855 -10.24350 -10.24234
 Alpha  occ. eigenvalues --  -10.20689 -10.19689 -10.19215 -10.19143  -1.05538
 Alpha  occ. eigenvalues --   -1.04443  -0.83845  -0.77313  -0.70570  -0.69065
 Alpha  occ. eigenvalues --   -0.61510  -0.58596  -0.51482  -0.49346  -0.48448
 Alpha  occ. eigenvalues --   -0.47083  -0.43844  -0.42673  -0.41751  -0.41479
 Alpha  occ. eigenvalues --   -0.40591  -0.38944  -0.38176  -0.37535  -0.35049
 Alpha  occ. eigenvalues --   -0.31800  -0.29845  -0.25486  -0.24009
 Alpha virt. eigenvalues --   -0.02700   0.06786   0.09055   0.11002   0.12009
 Alpha virt. eigenvalues --    0.12685   0.13270   0.14539   0.15513   0.16129
 Alpha virt. eigenvalues --    0.16635   0.17589   0.18213   0.19686   0.20920

 Mulliken charges:
               1
     1  C   -0.407454
     2  C   -0.131704
     3  C    0.051374
     4  O   -0.287840
     5  C   -0.121700
     6  C    0.147627
     7  C   -0.497461
     8  C    0.356767
     9  O   -0.309424
    10  H    0.119714
    11  H    0.141515
    12  H    0.126308
    13  H    0.111793
    14  H    0.082308
    15  H    0.109819
    16  H    0.115530
    17  H    0.140864
    18  H    0.127444
    19  H    0.124518
 Sum of Mulliken charges =   0.00000

 Dipole moment (field-independent basis, Debye):
    X=              0.5224    Y=             -0.4909    Z=              1.6618  Tot=              1.8098
 Quadrupole moment (field-independent basis, Debye-Ang):
   XX=            -50.2828   YY=            -60.9143   ZZ=            -52.5787
   XY=              5.3147   XZ=             -1.6482   YZ=              2.1109

  Exact polarizability:  85.311   2.393  73.570  -0.815  -1.903  67.663
 Approx polarizability: 112.430  -1.814 115.446   0.244  -7.639 102.068

                      1                      2                      3
                      A                      A                      A
 Frequencies --     57.8193               162.9344               169.0562
 Red. masses --      3.9629                 3.1193                 1.0886
 Frc consts  --      0.0078                 0.0488                 0.0183
 IR Inten    --      4.4950                 1.1237                 0.4859

                      4                      5                      6
                      A                      A                      A
 Frequencies --    194.0216               209.3462               224.5702
 Red. masses --      3.1278                 1.0379                 3.3055
 Frc consts  --      0.0694                 0.0268                 0.0982
 IR Inten    --      1.6257                 0.1084                 2.3647

                      7                      8                      9
                      A                      A                      A
 Frequencies --    266.7799               291.9077               392.4294
 Red. masses --      2.8280                 2.4744                 4.4957
 Frc consts  --      0.1186                 0.1242                 0.4079
 IR Inten    --      1.9758                 0.2408                 7.8242

                     10                     11                     12
                      A                      A                      A
 Frequencies --    479.8620               607.5011               645.9595
 Red. masses --      3.6451                 3.9986                 4.4047
 Frc consts  --      0.4945                 0.8695                 1.0829
 IR Inten    --      1.3934                 1.2577                 0.6632

                     13                     14                     15
                      A                      A                      A
 Frequencies --    718.0306               776.8523               845.7764
 Red. masses --      3.1777                 2.8351                 2.2818
 Frc consts  --      0.9653                 1.0081                 0.9617
 IR Inten    --      0.3254                 2.2111                 6.1934

                     16                     17                     18
                      A                      A                      A
 Frequencies --    891.7043               914.0562               957.5507
 Red. masses --      1.8746                 2.4144                 3.8146
 Frc consts  --      0.8782                 1.1885                 2.0608
 IR Inten    --      5.0012                20.9464                25.1170

                     19                     20                     21
                      A                      A                      A
 Frequencies --    975.4367              1006.5769              1025.9774
 Red. masses --      1.3115                 2.6302                 6.3933
 Frc consts  --      0.7352                 1.5701                 3.9651
 IR Inten    --      2.4649                16.9906                81.4106

                     22                     23                     24
                      A                      A                      A
 Frequencies --   1057.7076              1063.8309              1099.4825
 Red. masses --      1.8132                 1.9362                 2.0680
 Frc consts  --      1.1952                 1.2910                 1.4729
 IR Inten    --      0.7789                31.0810                13.2926

                     25                     26                     27
                      A                      A                      A
 Frequencies --   1142.1784              1158.0233              1172.6299
 Red. masses --      1.9815                 1.4449                 1.7878
 Frc consts  --      1.5230                 1.1417                 1.4484
 IR Inten    --      0.7313                 5.1213                 7.6297

                     28                     29                     30
                      A                      A                      A
 Frequencies --   1210.6245              1232.9353              1269.4431
 Red. masses --      2.5811                 1.7569                 1.3775
 Frc consts  --      2.2288                 1.5735                 1.3079
 IR Inten    --      4.8983                 0.7473                 2.2142

                     31                     32                     33
                      A                      A                      A
 Frequencies --   1293.1767              1319.6635              1369.5044
 Red. masses --      1.8682                 1.7901                 1.8291
 Frc consts  --      1.8407                 1.8367                 2.0213
 IR Inten    --     10.8833                22.1080                 1.9314

                     34                     35                     36
                      A                      A                      A
 Frequencies --   1406.0693              1409.1060              1487.1504
 Red. masses --      1.2072                 1.2272                 1.0504
 Frc consts  --      1.4061                 1.4356                 1.3687
 IR Inten    --      1.3945                 2.8377                 7.3933

                     37                     38                     39
                      A                      A                      A
 Frequencies --   1490.4720              1495.5120              1496.7290
 Red. masses --      1.0483                 1.0467                 1.0493
 Frc consts  --      1.3721                 1.3793                 1.3850
 IR Inten    --      2.7362                 5.5832                 5.1459

                     40                     41                     42
                      A                      A                      A
 Frequencies --   1523.4849              1879.6267              3011.7862
 Red. masses --      1.0929                12.6679                 1.0561
 Frc consts  --      1.4945                26.3692                 5.6442
 IR Inten    --      0.3468               220.2475                64.8394

                     43                     44                     45
                      A                      A                      A
 Frequencies --   3032.2624              3035.4873              3061.8358
 Red. masses --      1.0349                 1.0355                 1.1095
 Frc consts  --      5.6064                 5.6213                 6.1283
 IR Inten    --     22.9149                18.2844                29.4995

                     46                     47                     48
                      A                      A                      A
 Frequencies --   3067.4682              3083.8271              3101.5466
 Red. masses --      1.0845                 1.0895                 1.1008
 Frc consts  --      6.0120                 6.1048                 6.2388
 IR Inten    --      4.9877                33.1192                14.3899

                     49                     50                     51
                      A                      A                      A
 Frequencies --   3103.2429              3105.2481              3119.4373
 Red. masses --      1.1006                 1.1019                 1.1021
 Frc consts  --      6.2447                 6.2599                 6.3188
 IR Inten    --     24.3999                18.3509                13.6547

 - Thermochemistry -
 -------------------
 Temperature   298.150 Kelvin.  Pressure   1.00000 Atm.
 Atom     1 has atomic number  6 and mass  12.00000

 Molecular mass:   126.06808 amu.
 Principal axes and moments of inertia in atomic units:
                           1         2         3
     Eigenvalues --   834.451051091.184731420.42286
           X            0.98887   0.14821  -0.01283
           Y           -0.14738   0.98778   0.05067
           Z            0.02019  -0.04822   0.99863
 This molecule is an asymmetric top.
 Rotational symmetry number  1.
 Warning -- assumption of classical behavior for rotation
           may cause significant error
 Rotational temperatures (Kelvin)      0.10380     0.07938     0.06098
 Rotational constants (GHZ):           2.16279     1.65393     1.27057
 Zero-point vibrational energy     413391.4 (Joules/Mol)
                                   98.80291 (Kcal/Mol)
 Warning -- explicit consideration of  11 degrees of freedom as
           vibrations may cause significant error
 Vibrational temperatures:     83.19   234.43   243.23   279.15   301.20
          (Kelvin)            323.11   383.84   419.99   564.62   690.41
                              874.06   929.39  1033.08  1117.72  1216.88
                             1282.96  1315.12  1377.70  1403.43  1448.24
                             1476.15  1521.80  1530.61  1581.91  1643.34
                             1666.14  1687.15  1741.82  1773.92  1826.44
                             1860.59  1898.70  1970.41  2023.02  2027.39
                             2139.68  2144.45  2151.71  2153.46  2191.95
                             2704.36  4333.28  4362.74  4367.38  4405.29
                             4413.40  4436.93  4462.43  4464.87  4467.75
                             4488.17

 Zero-point correction=                           0.157452 (Hartree/Particle)
 Thermal correction to Energy=                    0.166491
 Thermal correction to Enthalpy=                  0.167435
 Thermal correction to Gibbs Free Energy=         0.123585
 Sum of electronic and zero-point Energies=           -423.016806
 Sum of electronic and thermal Energies=              -423.007767
 Sum of electronic and thermal Enthalpies=            -423.006823
 Sum of electronic and thermal Free Energies=         -423.050673

                     E (Thermal)             CV                S
                      KCal/Mol        Cal/Mol-Kelvin    Cal/Mol-Kelvin
 Total                  104.475             33.116             92.290
 Electronic               0.000              0.000              0.000
 Translational            0.889              2.981             40.409
 Rotational               0.889              2.981             28.649
 Vibrational            102.697             27.154             23.232
 Vibration     1          0.596              1.974              4.530
 Vibration     2          0.623              1.888              2.515
 Vibration     3          0.625              1.881              2.446
 Vibration     4          0.635              1.848              2.189
 Vibration     5          0.642              1.826              2.049
 Vibration     6          0.649              1.804              1.922
 Vibration     7          0.672              1.734              1.617
 Vibration     8          0.687              1.689              1.463
 Vibration     9          0.760              1.486              0.991
 Vibration    10          0.836              1.295              0.710
 Vibration    11          0.966              1.016              0.437

 Optimization completed.
    -- Stationary point found.
 Normal termination of Gaussian 09 at Tue Jan 28 00:49:19 2020.
