 Gaussian 09, Revision D.01,
 Gaussian 09:  ES64L-G09RevD.01 24-Apr-2013

 -----------------------------
 # b3lyp 6-31G(2df,p) opt Freq
 -----------------------------

 -----
 titel
 -----
 Symbolic Z-matrix:
 Charge =  0 Multiplicity = 1

 SCF Done:  E(RB3LYP) =  -423.155139635     A.U. after   14 cycles
 Optimization completed.
    -- Stationary point found.
 Normal termination of Gaussian 09 at Tue Jan 28 02:54:58 2020.

 ----------------------------------------------------------------------
 #N Geom=AllCheck Guess=TCheck SCRF=Check GenChk RB3LYP/6-31G(2df,p) Fr
 eq
 ----------------------------------------------------------------------

 Structure from the checkpoint file:  "/scratch/puck/g09_386954c9-9647-4b9d-bf68-d3a2c27190dd/Gau-29317.chk"
 -----
 titel
 -----
 Charge =  0 Multiplicity = 1

                         Standard orientation:
 ---------------------------------------------------------------------
 Center     Atomic      Atomic             Coordinates (Angstroms)
 Number     Number       Type             X           Y           Z
 ---------------------------------------------------------------------
      1          6           0       -0.504436   -1.513925    1.064104
      2          6           0       -0.011328   -0.469559    0.069159
      3          8           0        1.051647   -0.993518   -0.719192
      4          6           0        2.236842   -0.235583   -0.416818
      5          6           0        1.744827    1.043635    0.244099
      6          6           0        0.472851    0.859034    0.574210
      7          6           0       -0.883284    1.510544    0.468497
      8          6           0       -1.174357    0.361962   -0.589015
      9          8           0       -2.431527   -0.260583   -0.585110
     10          1           0       -1.298390   -1.120571    1.703645
     11          1           0       -0.908022   -2.374419    0.523944
     12          1           0        0.324832   -1.850481    1.692413
     13          1           0        2.915897   -0.832182    0.213624
     14          1           0        2.768266   -0.019776   -1.353217
     15          1           0        2.327737    1.955868    0.272109
     16          1           0       -1.520695    1.371696    1.346864
     17          1           0       -0.925281    2.550522    0.139895
     18          1           0       -0.864031    0.685382   -1.590321
     19          1           0       -3.067953    0.330124   -0.999953
 ---------------------------------------------------------------------

 SCF Done:  E(RB3LYP) =  -423.155139634     A.U. after    1 cycles

 The electronic state is 1-A.
 Alpha  occ. eigenvalues --  -19.14327 -19.12899 -10.23828 -10.22821 -10.22719
 Alpha  occ. eigenvalues --  -10.19515 -10.18412 -10.18299 -10.16681  -1.03229
 Alpha  occ. eigenvalues --   -1.02134  -0.84543  -0.76406  -0.71250  -0.65722
 Alpha  occ. eigenvalues --   -0.63269  -0.57255  -0.51948  -0.51887  -0.48800
 Alpha  occ. eigenvalues --   -0.45597  -0.44702  -0.41259  -0.40335  -0.40119
 Alpha  occ. eigenvalues --   -0.39377  -0.37811  -0.35860  -0.33525  -0.32360
 Alpha  occ. eigenvalues --   -0.29876  -0.27599  -0.24903  -0.22699
 Alpha virt. eigenvalues --    0.00415   0.07927   0.10771   0.11513   0.12153
 Alpha virt. eigenvalues --    0.13881   0.14378   0.16191   0.16675   0.17034
 Alpha virt. eigenvalues --    0.18588   0.19365   0.19693   0.21140   0.22163

 Mulliken charges:
               1
     1  C   -0.431256
     2  C    0.350448
     3  O   -0.321530
     4  C   -0.123954
     5  C   -0.237816
     6  C    0.205204
     7  C   -0.372546
     8  C    0.075464
     9  O   -0.427316
    10  H    0.119436
    11  H    0.134318
    12  H    0.113884
    13  H    0.102604
    14  H    0.109462
    15  H    0.102388
    16  H    0.119793
    17  H    0.109808
    18  H    0.083720
    19  H    0.287891
 Sum of Mulliken charges =   0.00000

 Dipole moment (field-independent basis, Debye):
    X=             -0.3968    Y=              2.3321    Z=             -0.0311  Tot=              2.3659
 Quadrupole moment (field-independent basis, Debye-Ang):
   XX=            -47.5780   YY=            -53.3365   ZZ=            -53.3233
   XY=             -2.2373   XZ=              1.7367   YZ=             -3.0221

  Exact polarizability:  98.974   0.909  73.640  -4.138  -1.519  61.777
 Approx polarizability: 145.077   3.825 105.117  -8.865   0.419  95.091

                      1                      2                      3
                      A                      A                      A
 Frequencies --    117.0423               188.8102               206.3591
 Red. masses --      3.2980                 2.5722                 1.1194
 Frc consts  --      0.0266                 0.0540                 0.0281
 IR Inten    --      1.6262                 1.3955                 0.5863

                      4                      5                      6
                      A                      A                      A
 Frequencies --    231.9385               251.4878               255.6296
 Red. masses --      1.1310                 2.3798                 2.5297
 Frc consts  --      0.0358                 0.0887                 0.0974
 IR Inten    --    105.5352                 2.5614                 2.5462

                      7                      8                      9
                      A                      A                      A
 Frequencies --    295.3020               388.9433               460.4813
 Red. masses --      4.2854                 3.1378                 4.2791
 Frc consts  --      0.2202                 0.2797                 0.5346
 IR Inten    --      1.3793                 1.6450                11.8224

                     10                     11                     12
                      A                      A                      A
 Frequencies --    492.7003               633.2725               663.8980
 Red. masses --      2.3952                 3.9776                 3.5904
 Frc consts  --      0.3426                 0.9398                 0.9324
 IR Inten    --      4.4250                 9.4432                 4.9755

                     13                     14                     15
                      A                      A                      A
 Frequencies --    701.3541               792.3776               796.1650
 Red. masses --      4.0423                 1.9133                 2.3082
 Frc consts  --      1.1715                 0.7078                 0.8620
 IR Inten    --      6.8198                 8.6668                 7.7448

                     16                     17                     18
                      A                      A                      A
 Frequencies --    817.3219               895.4421               908.4941
 Red. masses --      2.4819                 2.1414                 2.1470
 Frc consts  --      0.9768                 1.0116                 1.0441
 IR Inten    --      1.5502                 5.3674                 4.4215

                     19                     20                     21
                      A                      A                      A
 Frequencies --    931.0353               973.9735              1025.0065
 Red. masses --      2.3780                 1.8477                 3.4369
 Frc consts  --      1.2145                 1.0327                 2.1275
 IR Inten    --     11.6304                13.7531                21.8480

                     22                     23                     24
                      A                      A                      A
 Frequencies --   1025.8123              1071.1379              1102.4054
 Red. masses --      1.9662                 2.1052                 2.7045
 Frc consts  --      1.2190                 1.4231                 1.9365
 IR Inten    --     24.0593                25.9817               143.2257

                     25                     26                     27
                      A                      A                      A
 Frequencies --   1124.7114              1138.6652              1163.4568
 Red. masses --      2.2009                 1.9478                 1.9134
 Frc consts  --      1.6403                 1.4880                 1.5260
 IR Inten    --     17.1834                10.4064                 5.1120

                     28                     29                     30
                      A                      A                      A
 Frequencies --   1192.7828              1202.1958              1211.4092
 Red. masses --      1.2136                 1.5442                 1.6227
 Frc consts  --      1.0173                 1.3149                 1.4030
 IR Inten    --     11.4545                11.7898                40.3625

                     31                     32                     33
                      A                      A                      A
 Frequencies --   1241.2136              1283.6187              1323.8095
 Red. masses --      1.8682                 1.3872                 2.2396
 Frc consts  --      1.6958                 1.3467                 2.3125
 IR Inten    --      2.2237                35.7370                 5.6586

                     34                     35                     36
                      A                      A                      A
 Frequencies --   1365.9968              1398.7231              1416.3606
 Red. masses --      1.4092                 1.2725                 1.3722
 Frc consts  --      1.5492                 1.4668                 1.6218
 IR Inten    --      9.7555                 2.2338                 6.3642

                     37                     38                     39
                      A                      A                      A
 Frequencies --   1479.0118              1480.6962              1488.5097
 Red. masses --      1.0887                 1.0950                 1.0591
 Frc consts  --      1.4031                 1.4145                 1.3826
 IR Inten    --      8.4723                 0.4178                 2.2536

                     40                     41                     42
                      A                      A                      A
 Frequencies --   1517.9680              1730.9164              2970.6196
 Red. masses --      1.0874                 8.4661                 1.0697
 Frc consts  --      1.4763                14.9447                 5.5619
 IR Inten    --      1.2679                 2.2721                85.5332

                     43                     44                     45
                      A                      A                      A
 Frequencies --   3027.0290              3032.1338              3047.5502
 Red. masses --      1.0919                 1.0857                 1.0345
 Frc consts  --      5.8949                 5.8811                 5.6610
 IR Inten    --     37.1156                36.3794                14.9246

                     46                     47                     48
                      A                      A                      A
 Frequencies --   3059.1588              3121.9030              3123.4450
 Red. masses --      1.0584                 1.1059                 1.1029
 Frc consts  --      5.8359                 6.3507                 6.3395
 IR Inten    --     28.3291                27.8335                16.2486

                     49                     50                     51
                      A                      A                      A
 Frequencies --   3127.5794              3209.3697              3819.0681
 Red. masses --      1.1015                 1.0958                 1.0663
 Frc consts  --      6.3485                 6.6497                 9.1629
 IR Inten    --     13.2648                 8.7698                28.6920

 - Thermochemistry -
 -------------------
 Temperature   298.150 Kelvin.  Pressure   1.00000 Atm.
 Atom     1 has atomic number  6 and mass  12.00000

 Molecular mass:   126.06808 amu.
 Principal axes and moments of inertia in atomic units:
                           1         2         3
     Eigenvalues --   631.717171186.713481432.89473
           X            0.99992  -0.00730  -0.01011
           Y            0.00654   0.99727  -0.07351
           Z            0.01062   0.07344   0.99724
 This molecule is an asymmetric top.
 Rotational symmetry number  1.
 Warning -- assumption of classical behavior for rotation
           may cause significant error
 Rotational temperatures (Kelvin)      0.13711     0.07299     0.06045
 Rotational constants (GHZ):           2.85688     1.52079     1.25951
 Zero-point vibrational energy     415847.6 (Joules/Mol)
                                   99.38997 (Kcal/Mol)
 Warning -- explicit consideration of  10 degrees of freedom as
           vibrations may cause significant error
 Vibrational temperatures:    168.40   271.66   296.90   333.71   361.83
          (Kelvin)            367.79   424.87   559.60   662.53   708.88
                              911.14   955.20  1009.09  1140.05  1145.50
                             1175.94  1288.34  1307.12  1339.55  1401.33
                             1474.75  1475.91  1541.13  1586.11  1618.21
                             1638.28  1673.95  1716.15  1729.69  1742.95
                             1785.83  1846.84  1904.66  1965.36  2012.45
                             2037.82  2127.97  2130.39  2141.63  2184.01
                             2490.40  4274.05  4355.21  4362.56  4384.74
                             4401.44  4491.72  4493.94  4499.88  4617.56
                             5494.78

 Zero-point correction=                           0.158388 (Hartree/Particle)
 Thermal correction to Energy=                    0.166885
 Thermal correction to Enthalpy=                  0.167829
 Thermal correction to Gibbs Free Energy=         0.125802
 Sum of electronic and zero-point Energies=           -422.996752
 Sum of electronic and thermal Energies=              -422.988254
 Sum of electronic and thermal Enthalpies=            -422.987310
 Sum of electronic and thermal Free Energies=         -423.029338

                     E (Thermal)             CV                S
                      KCal/Mol        Cal/Mol-Kelvin    Cal/Mol-Kelvin
 Total                  104.722             32.934             88.455
 Electronic               0.000              0.000              0.000
 Translational            0.889              2.981             40.409
 Rotational               0.889              2.981             28.465
 Vibrational            102.945             26.973             19.582
 Vibration     1          0.608              1.935              3.149
 Vibration     2          0.633              1.855              2.239
 Vibration     3          0.641              1.831              2.076
 Vibration     4          0.653              1.792              1.864
 Vibration     5          0.663              1.760              1.720
 Vibration     6          0.666              1.753              1.691
 Vibration     7          0.690              1.682              1.443
 Vibration     8          0.757              1.494              1.004
 Vibration     9          0.818              1.338              0.765
 Vibration    10          0.848              1.266              0.677

 Optimization completed.
    -- Stationary point found.
 Normal termination of Gaussian 09 at Tue Jan 28 03:42:58 2020.
