 Gaussian 09, Revision D.01,
 Gaussian 09:  ES64L-G09RevD.01 24-Apr-2013

 -----------------------------
 # b3lyp 6-31G(2df,p) opt Freq
 -----------------------------

 -----
 titel
 -----
 Symbolic Z-matrix:
 Charge =  0 Multiplicity = 1

 SCF Done:  E(RB3LYP) =  -423.124565980     A.U. after   12 cycles
 Optimization completed.
    -- Stationary point found.
 Normal termination of Gaussian 09 at Mon Jan 27 17:49:08 2020.

 ----------------------------------------------------------------------
 #N Geom=AllCheck Guess=TCheck SCRF=Check GenChk RB3LYP/6-31G(2df,p) Fr
 eq
 ----------------------------------------------------------------------

 Structure from the checkpoint file:  "/scratch/puck/g09_b68f69ac-19fb-431d-ba8e-6476e05ab85e/Gau-87476.chk"
 -----
 titel
 -----
 Charge =  0 Multiplicity = 1

                         Standard orientation:
 ---------------------------------------------------------------------
 Center     Atomic      Atomic             Coordinates (Angstroms)
 Number     Number       Type             X           Y           Z
 ---------------------------------------------------------------------
      1          8           0        0.997793    1.833010   -0.317695
      2          6           0        0.895164    0.499955    0.037091
      3          6           0        1.887362   -0.184462    0.936906
      4          6           0        1.716271   -0.664692   -0.488974
      5          6           0        0.449076   -1.523825   -0.586033
      6          6           0       -0.397037   -0.319452   -0.073865
      7          6           0       -1.443588   -0.366264    1.055359
      8          8           0       -2.423282    0.302481    0.235806
      9          6           0       -1.552063    0.255917   -0.914724
     10          1           0        0.837711    2.373013    0.464382
     11          1           0        2.789891    0.392601    1.112168
     12          1           0        1.572025   -0.803333    1.775130
     13          1           0        2.540481   -0.662048   -1.190512
     14          1           0        0.184211   -1.799508   -1.610430
     15          1           0        0.433595   -2.425095    0.036791
     16          1           0       -1.769552   -1.375414    1.343946
     17          1           0       -1.203507    0.201522    1.964505
     18          1           0       -1.935594   -0.418025   -1.693142
     19          1           0       -1.376456    1.249297   -1.342280
 ---------------------------------------------------------------------

 SCF Done:  E(RB3LYP) =  -423.124565980     A.U. after    1 cycles

 The electronic state is 1-A.
 Alpha  occ. eigenvalues --  -19.15451 -19.12629 -10.24226 -10.22456 -10.22245
 Alpha  occ. eigenvalues --  -10.19716 -10.19470 -10.19068 -10.19005  -1.04130
 Alpha  occ. eigenvalues --   -1.02999  -0.89231  -0.74961  -0.68778  -0.67815
 Alpha  occ. eigenvalues --   -0.61409  -0.57513  -0.54923  -0.51743  -0.49226
 Alpha  occ. eigenvalues --   -0.46559  -0.45667  -0.43317  -0.42087  -0.40480
 Alpha  occ. eigenvalues --   -0.39416  -0.36800  -0.35568  -0.33566  -0.31348
 Alpha  occ. eigenvalues --   -0.30086  -0.26081  -0.25394  -0.24191
 Alpha virt. eigenvalues --    0.06767   0.07564   0.10039   0.10577   0.12227
 Alpha virt. eigenvalues --    0.12726   0.13521   0.14137   0.15797   0.16439
 Alpha virt. eigenvalues --    0.17183   0.18740   0.20306   0.20499   0.22268

 Mulliken charges:
               1
     1  O   -0.456504
     2  C    0.344256
     3  C   -0.349031
     4  C   -0.100531
     5  C   -0.320951
     6  C    0.231224
     7  C   -0.142239
     8  O   -0.277711
     9  C   -0.139217
    10  H    0.290131
    11  H    0.115723
    12  H    0.104812
    13  H    0.097299
    14  H    0.108560
    15  H    0.098073
    16  H    0.096025
    17  H    0.092437
    18  H    0.092551
    19  H    0.115092
 Sum of Mulliken charges =   0.00000

 Dipole moment (field-independent basis, Debye):
    X=              1.6448    Y=             -0.5445    Z=              0.8141  Tot=              1.9143
 Quadrupole moment (field-independent basis, Debye-Ang):
   XX=            -59.6715   YY=            -51.3306   ZZ=            -50.7186
   XY=              1.5557   XZ=              2.1074   YZ=              2.9259

  Exact polarizability:  78.012  -0.152  72.814   2.283   1.146  73.140
 Approx polarizability: 105.145  -2.064 108.734   1.446   1.272 110.127

                      1                      2                      3
                      A                      A                      A
 Frequencies --     75.1608               121.5637               198.8836
 Red. masses --      4.0901                 3.3353                 2.4687
 Frc consts  --      0.0136                 0.0290                 0.0575
 IR Inten    --      6.3245                 2.7468                 0.9000

                      4                      5                      6
                      A                      A                      A
 Frequencies --    259.7799               269.9974               343.7396
 Red. masses --      3.2866                 1.1257                 2.1403
 Frc consts  --      0.1307                 0.0484                 0.1490
 IR Inten    --     12.6991                73.0858                12.7942

                      7                      8                      9
                      A                      A                      A
 Frequencies --    414.0482               417.3857               482.1567
 Red. masses --      2.0937                 2.9582                 3.4979
 Frc consts  --      0.2115                 0.3036                 0.4791
 IR Inten    --      3.7332                 1.1163                 9.3331

                     10                     11                     12
                      A                      A                      A
 Frequencies --    532.6442               644.6387               767.1840
 Red. masses --      3.4343                 3.1905                 2.6935
 Frc consts  --      0.5741                 0.7812                 0.9340
 IR Inten    --      6.2491                 3.7563                 0.3762

                     13                     14                     15
                      A                      A                      A
 Frequencies --    834.7563               853.9845               867.2102
 Red. masses --      2.7891                 2.1642                 2.2107
 Frc consts  --      1.1451                 0.9299                 0.9796
 IR Inten    --      4.8655                 7.5115                12.0849

                     16                     17                     18
                      A                      A                      A
 Frequencies --    893.2095               927.5160               955.7606
 Red. masses --      1.8887                 2.3441                 1.3883
 Frc consts  --      0.8878                 1.1882                 0.7472
 IR Inten    --      5.5152                15.0340                 0.6193

                     19                     20                     21
                      A                      A                      A
 Frequencies --    987.7322               990.6784              1020.5910
 Red. masses --      3.9597                 1.4969                 1.3608
 Frc consts  --      2.2761                 0.8656                 0.8351
 IR Inten    --     13.3637                 7.5857                 2.7907

                     22                     23                     24
                      A                      A                      A
 Frequencies --   1026.5607              1035.4166              1080.0927
 Red. masses --      1.5973                 9.2359                 1.5602
 Frc consts  --      0.9918                 5.8339                 1.0724
 IR Inten    --      4.1070                77.2346                 6.3498

                     25                     26                     27
                      A                      A                      A
 Frequencies --   1117.9760              1150.5331              1158.6985
 Red. masses --      2.3239                 1.6039                 1.0951
 Frc consts  --      1.7113                 1.2509                 0.8663
 IR Inten    --      7.2540                 0.1941                 0.1568

                     28                     29                     30
                      A                      A                      A
 Frequencies --   1178.1223              1197.5549              1214.8501
 Red. masses --      1.5503                 1.8027                 2.6558
 Frc consts  --      1.2678                 1.5232                 2.3094
 IR Inten    --      4.8593                 7.3278                20.6683

                     31                     32                     33
                      A                      A                      A
 Frequencies --   1234.3552              1245.7472              1303.7739
 Red. masses --      1.8319                 1.8985                 1.4578
 Frc consts  --      1.6445                 1.7359                 1.4600
 IR Inten    --      2.8731                47.4315                38.7385

                     34                     35                     36
                      A                      A                      A
 Frequencies --   1306.3663              1326.7619              1380.3704
 Red. masses --      1.4117                 2.6414                 1.6944
 Frc consts  --      1.4194                 2.7395                 1.9022
 IR Inten    --     29.8584                12.1072                 2.5902

                     37                     38                     39
                      A                      A                      A
 Frequencies --   1398.3639              1476.8037              1500.8048
 Red. masses --      2.1342                 1.1573                 1.2476
 Frc consts  --      2.4588                 1.4871                 1.6557
 IR Inten    --     24.3801                 1.8381                 7.3640

                     40                     41                     42
                      A                      A                      A
 Frequencies --   1504.6159              1530.8400              2990.7983
 Red. masses --      1.1646                 1.1152                 1.0540
 Frc consts  --      1.5534                 1.5398                 5.5546
 IR Inten    --      7.1530                 0.9833                98.8734

                     43                     44                     45
                      A                      A                      A
 Frequencies --   3005.7685              3034.2184              3038.4739
 Red. masses --      1.0623                 1.1039                 1.0655
 Frc consts  --      5.6548                 5.9877                 5.7960
 IR Inten    --     25.7150                18.2997                67.5652

                     46                     47                     48
                      A                      A                      A
 Frequencies --   3067.0361              3094.7072              3098.4357
 Red. masses --      1.1036                 1.1050                 1.0579
 Frc consts  --      6.1162                 6.2354                 5.9836
 IR Inten    --     29.8929                16.1706                22.1062

                     49                     50                     51
                      A                      A                      A
 Frequencies --   3194.2287              3202.8312              3791.8804
 Red. masses --      1.1020                 1.1033                 1.0662
 Frc consts  --      6.6246                 6.6681                 9.0320
 IR Inten    --      4.5538                17.3851                23.8747

 - Thermochemistry -
 -------------------
 Temperature   298.150 Kelvin.  Pressure   1.00000 Atm.
 Atom     1 has atomic number  8 and mass  15.99491

 Molecular mass:   126.06808 amu.
 Principal axes and moments of inertia in atomic units:
                           1         2         3
     Eigenvalues --   634.521461237.022541424.96408
           X            0.99989  -0.00054   0.01510
           Y            0.00018   0.99972   0.02381
           Z           -0.01511  -0.02381   0.99960
 This molecule is an asymmetric top.
 Rotational symmetry number  1.
 Warning -- assumption of classical behavior for rotation
           may cause significant error
 Rotational temperatures (Kelvin)      0.13650     0.07002     0.06078
 Rotational constants (GHZ):           2.84426     1.45894     1.26652
 Zero-point vibrational energy     417171.4 (Joules/Mol)
                                   99.70635 (Kcal/Mol)
 Warning -- explicit consideration of  10 degrees of freedom as
           vibrations may cause significant error
 Vibrational temperatures:    108.14   174.90   286.15   373.76   388.47
          (Kelvin)            494.56   595.72   600.52   693.72   766.36
                              927.49  1103.81  1201.03  1228.69  1247.72
                             1285.13  1334.49  1375.12  1421.12  1425.36
                             1468.40  1476.99  1489.73  1554.01  1608.52
                             1655.36  1667.11  1695.05  1723.01  1747.90
                             1775.96  1792.35  1875.84  1879.57  1908.91
                             1986.04  2011.93  2124.79  2159.32  2164.80
                             2202.53  4303.09  4324.63  4365.56  4371.68
                             4412.78  4452.59  4457.95  4595.78  4608.15
                             5455.66

 Zero-point correction=                           0.158892 (Hartree/Particle)
 Thermal correction to Energy=                    0.167073
 Thermal correction to Enthalpy=                  0.168017
 Thermal correction to Gibbs Free Energy=         0.126095
 Sum of electronic and zero-point Energies=           -422.965674
 Sum of electronic and thermal Energies=              -422.957493
 Sum of electronic and thermal Enthalpies=            -422.956549
 Sum of electronic and thermal Free Energies=         -422.998471

                     E (Thermal)             CV                S
                      KCal/Mol        Cal/Mol-Kelvin    Cal/Mol-Kelvin
 Total                  104.840             31.640             88.231
 Electronic               0.000              0.000              0.000
 Translational            0.889              2.981             40.409
 Rotational               0.889              2.981             28.505
 Vibrational            103.062             25.678             19.318
 Vibration     1          0.599              1.966              4.013
 Vibration     2          0.609              1.931              3.075
 Vibration     3          0.637              1.841              2.143
 Vibration     4          0.668              1.746              1.663
 Vibration     5          0.674              1.728              1.596
 Vibration     6          0.722              1.588              1.195
 Vibration     7          0.778              1.440              0.912
 Vibration     8          0.780              1.432              0.901
 Vibration     9          0.838              1.290              0.704
 Vibration    10          0.888              1.178              0.581

 Normal termination of Gaussian 09 at Mon Jan 27 18:31:40 2020.
