 Gaussian 09, Revision D.01,
 Gaussian 09:  ES64L-G09RevD.01 24-Apr-2013

 -----------------------------
 # b3lyp 6-31G(2df,p) opt Freq
 -----------------------------

 -----
 titel
 -----
 Symbolic Z-matrix:
 Charge =  0 Multiplicity = 1

 SCF Done:  E(RB3LYP) =  -423.132349430     A.U. after   14 cycles
 SCF Done:  E(RB3LYP) =  -423.132349403     A.U. after    7 cycles
 SCF Done:  E(RB3LYP) =  -423.132349155     A.U. after    8 cycles
 SCF Done:  E(RB3LYP) =  -423.132349381     A.U. after    7 cycles
 SCF Done:  E(RB3LYP) =  -423.132349499     A.U. after    7 cycles
 Optimization completed.
    -- Stationary point found.
 Normal termination of Gaussian 09 at Tue Jan 28 00:59:06 2020.

 ----------------------------------------------------------------------
 #N Geom=AllCheck Guess=TCheck SCRF=Check GenChk RB3LYP/6-31G(2df,p) Fr
 eq
 ----------------------------------------------------------------------

 Structure from the checkpoint file:  "/scratch/puck/g09_5097c8dd-72f3-4a97-bd5c-e0d255f00d9f/Gau-95434.chk"
 -----
 titel
 -----
 Charge =  0 Multiplicity = 1

                         Standard orientation:
 ---------------------------------------------------------------------
 Center     Atomic      Atomic             Coordinates (Angstroms)
 Number     Number       Type             X           Y           Z
 ---------------------------------------------------------------------
      1          6           0       -1.075900   -2.203589    0.190384
      2          6           0       -0.469217   -1.038790   -0.556588
      3          8           0       -1.421900   -0.000045   -0.882501
      4          6           0       -0.469291    1.038768   -0.556585
      5          6           0       -1.076062    2.203519    0.190389
      6          6           0        0.425164    0.000018    0.205449
      7          8           0        0.276669    0.000005    1.609424
      8          6           0        1.844320    0.000086   -0.102064
      9          6           0        3.004512    0.000078   -0.414066
     10          1           0       -1.834953   -2.685475   -0.433299
     11          1           0       -0.304938   -2.941776    0.431101
     12          1           0       -1.554787   -1.888503    1.121436
     13          1           0        0.041557   -1.389012   -1.464074
     14          1           0        0.041457    1.389030   -1.464069
     15          1           0       -1.835208    2.685295   -0.433269
     16          1           0       -1.554855    1.888411    1.121481
     17          1           0       -0.305173    2.941804    0.431035
     18          1           0       -0.666658   -0.000073    1.807143
     19          1           0        4.034247    0.000072   -0.674387
 ---------------------------------------------------------------------

 SCF Done:  E(RB3LYP) =  -423.132349499     A.U. after    1 cycles

 The electronic state is 1-A.
 Alpha  occ. eigenvalues --  -19.15353 -19.13702 -10.26398 -10.23907 -10.23907
 Alpha  occ. eigenvalues --  -10.18517 -10.18422 -10.18422 -10.18131  -1.05843
 Alpha  occ. eigenvalues --   -1.02239  -0.78129  -0.77109  -0.73714  -0.69968
 Alpha  occ. eigenvalues --   -0.61021  -0.59383  -0.54115  -0.52024  -0.48453
 Alpha  occ. eigenvalues --   -0.48356  -0.45207  -0.43882  -0.41012  -0.39177
 Alpha  occ. eigenvalues --   -0.38284  -0.38116  -0.37091  -0.35603  -0.31809
 Alpha  occ. eigenvalues --   -0.29160  -0.27599  -0.25663  -0.25651
 Alpha virt. eigenvalues --    0.02884   0.04041   0.07671   0.09808   0.10767
 Alpha virt. eigenvalues --    0.11916   0.12546   0.14727   0.15265   0.16524
 Alpha virt. eigenvalues --    0.17544   0.17906   0.18951   0.21488   0.21618

 Mulliken charges:
               1
     1  C   -0.409787
     2  C    0.109015
     3  O   -0.320673
     4  C    0.109018
     5  C   -0.409785
     6  C    0.082060
     7  O   -0.459846
     8  C    0.352427
     9  C   -0.450807
    10  H    0.133331
    11  H    0.133813
    12  H    0.107564
    13  H    0.079717
    14  H    0.079716
    15  H    0.133330
    16  H    0.107564
    17  H    0.133810
    18  H    0.289112
    19  H    0.200423
 Sum of Mulliken charges =   0.00000

 Dipole moment (field-independent basis, Debye):
    X=             -0.0750    Y=             -0.0001    Z=             -0.2358  Tot=              0.2474
 Quadrupole moment (field-independent basis, Debye-Ang):
   XX=            -50.9762   YY=            -49.8707   ZZ=            -55.1237
   XY=             -0.0002   XZ=             -5.9628   YZ=             -0.0003

  Exact polarizability:  93.948   0.000  76.972  -6.847   0.000  63.102
 Approx polarizability: 143.098   0.000  99.149 -11.356   0.000  96.912

                      1                      2                      3
                      A                      A                      A
 Frequencies --     64.6283               120.3140               164.2114
 Red. masses --      3.0457                 3.5828                 3.7737
 Frc consts  --      0.0075                 0.0306                 0.0600
 IR Inten    --      3.0202                 0.0703                 0.9355

                      4                      5                      6
                      A                      A                      A
 Frequencies --    171.4028               178.7992               251.4099
 Red. masses --      1.0366                 1.1871                 3.4609
 Frc consts  --      0.0179                 0.0224                 0.1289
 IR Inten    --      6.4593                 0.8210                25.9764

                      7                      8                      9
                      A                      A                      A
 Frequencies --    251.7915               320.6442               338.0832
 Red. masses --      2.5753                 1.1347                 3.9254
 Frc consts  --      0.0962                 0.0687                 0.2643
 IR Inten    --      0.9908                86.9583                11.2804

                     10                     11                     12
                      A                      A                      A
 Frequencies --    365.2504               487.5917               496.1094
 Red. masses --      3.3565                 3.5980                 3.6648
 Frc consts  --      0.2638                 0.5040                 0.5314
 IR Inten    --     10.5294                 1.1414                 2.5943

                     13                     14                     15
                      A                      A                      A
 Frequencies --    536.6628               587.2201               615.9416
 Red. masses --      5.4155                 3.0253                 7.0785
 Frc consts  --      0.9190                 0.6146                 1.5822
 IR Inten    --      0.4696                 9.8779                 1.1720

                     16                     17                     18
                      A                      A                      A
 Frequencies --    633.3156               669.5811               764.3802
 Red. masses --      1.2375                 1.2653                 2.6130
 Frc consts  --      0.2924                 0.3342                 0.8995
 IR Inten    --     41.7300                35.7727                 1.8371

                     19                     20                     21
                      A                      A                      A
 Frequencies --    872.5907               874.3132               956.1332
 Red. masses --      2.2759                 3.0027                 4.3725
 Frc consts  --      1.0210                 1.3524                 2.3551
 IR Inten    --      7.9526                 7.5233                79.1849

                     22                     23                     24
                      A                      A                      A
 Frequencies --    996.1788              1029.0986              1061.7468
 Red. masses --      1.7771                 1.4276                 2.6168
 Frc consts  --      1.0390                 0.8908                 1.7381
 IR Inten    --     48.2522                 3.1856                32.5984

                     25                     26                     27
                      A                      A                      A
 Frequencies --   1075.4392              1132.3303              1134.8823
 Red. masses --      2.5625                 2.3244                 2.7476
 Frc consts  --      1.7462                 1.7559                 2.0850
 IR Inten    --     68.0299                25.4235                10.4900

                     28                     29                     30
                      A                      A                      A
 Frequencies --   1170.9383              1202.2784              1268.1130
 Red. masses --      2.1821                 4.8186                 1.2934
 Frc consts  --      1.7627                 4.1038                 1.2255
 IR Inten    --      2.4725                57.4597                 0.0324

                     31                     32                     33
                      A                      A                      A
 Frequencies --   1296.8074              1359.2674              1380.6296
 Red. masses --      1.4083                 1.2442                 1.5012
 Frc consts  --      1.3954                 1.3544                 1.6859
 IR Inten    --     49.9441                24.6900                16.3368

                     34                     35                     36
                      A                      A                      A
 Frequencies --   1401.0925              1405.8346              1435.4177
 Red. masses --      1.2444                 1.2747                 1.6619
 Frc consts  --      1.4393                 1.4843                 2.0175
 IR Inten    --      1.7488                11.7010                13.6587

                     37                     38                     39
                      A                      A                      A
 Frequencies --   1475.4253              1481.3197              1491.7476
 Red. masses --      1.0502                 1.0948                 1.0471
 Frc consts  --      1.3470                 1.4154                 1.3729
 IR Inten    --      0.6573                15.0658                 1.2153

                     40                     41                     42
                      A                      A                      A
 Frequencies --   1496.3200              2243.3479              3007.0451
 Red. masses --      1.0729                 5.9345                 1.0832
 Frc consts  --      1.4153                17.5966                 5.7707
 IR Inten    --     10.4287                 1.1227                14.1772

                     43                     44                     45
                      A                      A                      A
 Frequencies --   3013.9336              3043.1743              3043.6784
 Red. masses --      1.0856                 1.0349                 1.0349
 Frc consts  --      5.8101                 5.6466                 5.6488
 IR Inten    --     54.6673                13.1031                11.1579

                     46                     47                     48
                      A                      A                      A
 Frequencies --   3115.4850              3116.0725              3120.4310
 Red. masses --      1.1015                 1.1014                 1.1015
 Frc consts  --      6.2991                 6.3011                 6.3192
 IR Inten    --      6.0683                31.9588                 9.1784

                     49                     50                     51
                      A                      A                      A
 Frequencies --   3120.9787              3500.9761              3804.9614
 Red. masses --      1.1014                 1.1629                 1.0654
 Frc consts  --      6.3209                 8.3976                 9.0879
 IR Inten    --     28.0580                68.1846                11.4769

 - Thermochemistry -
 -------------------
 Temperature   298.150 Kelvin.  Pressure   1.00000 Atm.
 Atom     1 has atomic number  6 and mass  12.00000

 Molecular mass:   126.06808 amu.
 Principal axes and moments of inertia in atomic units:
                           1         2         3
     Eigenvalues --   933.850941152.612371543.55181
           X            0.99935  -0.00001  -0.03612
           Y            0.00001   1.00000   0.00000
           Z            0.03612   0.00000   0.99935
 This molecule is an asymmetric top.
 Rotational symmetry number  1.
 Warning -- assumption of classical behavior for rotation
           may cause significant error
 Rotational temperatures (Kelvin)      0.09275     0.07515     0.05611
 Rotational constants (GHZ):           1.93258     1.56578     1.16921
 Zero-point vibrational energy     407599.6 (Joules/Mol)
                                   97.41863 (Kcal/Mol)
 Warning -- explicit consideration of  15 degrees of freedom as
           vibrations may cause significant error
 Vibrational temperatures:     92.99   173.10   236.26   246.61   257.25
          (Kelvin)            361.72   362.27   461.33   486.43   525.51
                              701.53   713.79   772.14   844.88   886.20
                              911.20   963.38  1099.77  1255.46  1257.94
                             1375.66  1433.28  1480.64  1527.61  1547.32
                             1629.17  1632.84  1684.72  1729.81  1824.53
                             1865.81  1955.68  1986.42  2015.86  2022.68
                             2065.24  2122.81  2131.29  2146.29  2152.87
                             3227.67  4326.46  4336.37  4378.44  4379.17
                             4482.48  4483.33  4489.60  4490.39  5037.12
                             5474.48

 Zero-point correction=                           0.155246 (Hartree/Particle)
 Thermal correction to Energy=                    0.165270
 Thermal correction to Enthalpy=                  0.166214
 Thermal correction to Gibbs Free Energy=         0.120609
 Sum of electronic and zero-point Energies=           -422.977103
 Sum of electronic and thermal Energies=              -422.967079
 Sum of electronic and thermal Enthalpies=            -422.966135
 Sum of electronic and thermal Free Energies=         -423.011740

                     E (Thermal)             CV                S
                      KCal/Mol        Cal/Mol-Kelvin    Cal/Mol-Kelvin
 Total                  103.709             37.070             95.984
 Electronic               0.000              0.000              0.000
 Translational            0.889              2.981             40.409
 Rotational               0.889              2.981             28.898
 Vibrational            101.931             31.109             26.677
 Vibration     1          0.597              1.971              4.311
 Vibration     2          0.609              1.932              3.095
 Vibration     3          0.623              1.886              2.501
 Vibration     4          0.626              1.878              2.420
 Vibration     5          0.629              1.868              2.341
 Vibration     6          0.663              1.760              1.721
 Vibration     7          0.664              1.760              1.718
 Vibration     8          0.706              1.634              1.307
 Vibration     9          0.718              1.599              1.221
 Vibration    10          0.738              1.544              1.100
 Vibration    11          0.844              1.278              0.690
 Vibration    12          0.852              1.259              0.668
 Vibration    13          0.892              1.169              0.573
 Vibration    14          0.944              1.059              0.472
 Vibration    15          0.976              0.998              0.423

 Optimization completed.
    -- Stationary point found.
 Normal termination of Gaussian 09 at Tue Jan 28 01:40:50 2020.
