 Gaussian 09, Revision D.01,
 Gaussian 09:  ES64L-G09RevD.01 24-Apr-2013

 -----------------------------
 # b3lyp 6-31G(2df,p) opt Freq
 -----------------------------

 -----
 titel
 -----
 Symbolic Z-matrix:
 Charge =  0 Multiplicity = 1

 SCF Done:  E(RB3LYP) =  -423.171031147     A.U. after   14 cycles
 SCF Done:  E(RB3LYP) =  -423.171031029     A.U. after    7 cycles
 SCF Done:  E(RB3LYP) =  -423.171031074     A.U. after    7 cycles
 SCF Done:  E(RB3LYP) =  -423.171031279     A.U. after    7 cycles
 Optimization completed.
    -- Stationary point found.
 Normal termination of Gaussian 09 at Mon Jan 27 18:08:19 2020.

 ----------------------------------------------------------------------
 #N Geom=AllCheck Guess=TCheck SCRF=Check GenChk RB3LYP/6-31G(2df,p) Fr
 eq
 ----------------------------------------------------------------------

 Structure from the checkpoint file:  "/scratch/puck/g09_ca564ec7-aaf7-4c73-9c5c-168b81e0c372/Gau-180682.chk"
 -----
 titel
 -----
 Charge =  0 Multiplicity = 1

                         Standard orientation:
 ---------------------------------------------------------------------
 Center     Atomic      Atomic             Coordinates (Angstroms)
 Number     Number       Type             X           Y           Z
 ---------------------------------------------------------------------
      1          6           0        0.942951    1.993805    0.032063
      2          6           0        0.871839    0.491251    0.073877
      3          6           0        2.003444   -0.353237    0.596515
      4          6           0        1.517929   -0.593640   -0.803567
      5          6           0        0.259197   -1.454206   -0.738214
      6          6           0       -0.433629   -0.333404    0.146331
      7          8           0       -0.887396   -0.686827    1.414803
      8          6           0       -1.554947    0.290806   -0.647865
      9          8           0       -2.668632    0.417725   -0.196640
     10          1           0        0.304678    2.422696   -0.748712
     11          1           0        0.629617    2.423404    0.990814
     12          1           0        1.967132    2.329669   -0.159041
     13          1           0        2.945818    0.178664    0.683925
     14          1           0        1.832443   -1.094501    1.372150
     15          1           0        2.150421   -0.468435   -1.673334
     16          1           0       -0.235768   -1.617747   -1.699635
     17          1           0        0.351648   -2.410867   -0.217179
     18          1           0       -1.832049   -0.463061    1.432560
     19          1           0       -1.306416    0.604748   -1.681704
 ---------------------------------------------------------------------

 SCF Done:  E(RB3LYP) =  -423.171031279     A.U. after    1 cycles

 The electronic state is 1-A.
 Alpha  occ. eigenvalues --  -19.15837 -19.13525 -10.28002 -10.24818 -10.20635
 Alpha  occ. eigenvalues --  -10.19986 -10.19537 -10.18905 -10.18745  -1.07039
 Alpha  occ. eigenvalues --   -1.01992  -0.90199  -0.75053  -0.73196  -0.66068
 Alpha  occ. eigenvalues --   -0.60308  -0.58840  -0.53340  -0.52328  -0.48794
 Alpha  occ. eigenvalues --   -0.47564  -0.46302  -0.42649  -0.41733  -0.40513
 Alpha  occ. eigenvalues --   -0.39824  -0.39439  -0.36256  -0.35658  -0.34252
 Alpha  occ. eigenvalues --   -0.30198  -0.26761  -0.26360  -0.26325
 Alpha virt. eigenvalues --   -0.03603   0.08815   0.10438   0.10691   0.11915
 Alpha virt. eigenvalues --    0.12102   0.13001   0.14694   0.15730   0.16020
 Alpha virt. eigenvalues --    0.17279   0.18476   0.19361   0.19858   0.22903

 Mulliken charges:
               1
     1  C   -0.511671
     2  C    0.318464
     3  C   -0.329711
     4  C   -0.093802
     5  C   -0.305867
     6  C    0.269988
     7  O   -0.484921
     8  C    0.108850
     9  O   -0.285032
    10  H    0.115871
    11  H    0.135106
    12  H    0.122673
    13  H    0.111287
    14  H    0.126185
    15  H    0.089165
    16  H    0.105511
    17  H    0.118008
    18  H    0.289824
    19  H    0.100072
 Sum of Mulliken charges =   0.00000

 Dipole moment (field-independent basis, Debye):
    X=              1.8199    Y=              0.4104    Z=             -1.6002  Tot=              2.4579
 Quadrupole moment (field-independent basis, Debye-Ang):
   XX=            -57.3061   YY=            -52.6996   ZZ=            -53.2284
   XY=              2.0684   XZ=             -0.1458   YZ=              0.9846

  Exact polarizability:  86.379  -2.264  72.943  -0.792   0.366  69.537
 Approx polarizability: 126.641  -6.884 103.586  -5.468   0.690 109.185

                      1                      2                      3
                      A                      A                      A
 Frequencies --     93.5786               110.4681               181.1812
 Red. masses --      5.9446                 2.9956                 1.1741
 Frc consts  --      0.0307                 0.0215                 0.0227
 IR Inten    --      0.2865                 0.8990                 0.5120

                      4                      5                      6
                      A                      A                      A
 Frequencies --    225.5834               268.4708               318.9632
 Red. masses --      2.8418                 2.4561                 4.1716
 Frc consts  --      0.0852                 0.1043                 0.2501
 IR Inten    --      2.9029                 1.5131                14.0200

                      7                      8                      9
                      A                      A                      A
 Frequencies --    345.8624               405.5695               412.7814
 Red. masses --      2.7073                 2.6567                 2.2489
 Frc consts  --      0.1908                 0.2575                 0.2258
 IR Inten    --      5.9568                21.1822                 6.0375

                     10                     11                     12
                      A                      A                      A
 Frequencies --    449.1802               491.8338               552.8168
 Red. masses --      1.9828                 1.4388                 3.3479
 Frc consts  --      0.2357                 0.2051                 0.6028
 IR Inten    --      4.6502                33.5041                10.3927

                     13                     14                     15
                      A                      A                      A
 Frequencies --    646.9011               767.7134               826.3371
 Red. masses --      3.2318                 2.9727                 3.4517
 Frc consts  --      0.7968                 1.0323                 1.3887
 IR Inten    --      0.3200                 3.0589                20.8501

                     16                     17                     18
                      A                      A                      A
 Frequencies --    840.1166               879.9944               882.2694
 Red. masses --      3.0688                 1.9264                 1.7976
 Frc consts  --      1.2762                 0.8789                 0.8244
 IR Inten    --      8.8619                 2.1651                24.4658

                     19                     20                     21
                      A                      A                      A
 Frequencies --    914.3422               972.5845               989.3632
 Red. masses --      2.3490                 1.4416                 1.4095
 Frc consts  --      1.1570                 0.8034                 0.8129
 IR Inten    --      4.5042                 3.8113                 1.2047

                     22                     23                     24
                      A                      A                      A
 Frequencies --   1018.9398              1049.1830              1069.2623
 Red. masses --      1.3394                 1.5355                 2.0285
 Frc consts  --      0.8193                 0.9959                 1.3665
 IR Inten    --      5.7083                 4.4534                 2.2522

                     25                     26                     27
                      A                      A                      A
 Frequencies --   1089.9054              1107.2248              1111.6392
 Red. masses --      1.5745                 2.0991                 1.6870
 Frc consts  --      1.1020                 1.5162                 1.2283
 IR Inten    --      6.7937                55.6992                24.7774

                     28                     29                     30
                      A                      A                      A
 Frequencies --   1159.2990              1230.9063              1244.1447
 Red. masses --      1.7802                 1.8028                 2.4041
 Frc consts  --      1.4096                 1.6094                 2.1925
 IR Inten    --      4.5116                 1.7427                18.5152

                     31                     32                     33
                      A                      A                      A
 Frequencies --   1273.7621              1303.2972              1375.5455
 Red. masses --      1.9338                 3.1386                 1.7292
 Frc consts  --      1.8486                 3.1410                 1.9277
 IR Inten    --      3.5692                40.1555                28.5421

                     34                     35                     36
                      A                      A                      A
 Frequencies --   1384.1904              1420.5523              1432.0476
 Red. masses --      1.4443                 1.3939                 1.4380
 Frc consts  --      1.6305                 1.6573                 1.7375
 IR Inten    --     51.0627                 0.8417                28.7789

                     37                     38                     39
                      A                      A                      A
 Frequencies --   1476.4445              1488.0992              1497.8879
 Red. masses --      1.1186                 1.0489                 1.0557
 Frc consts  --      1.4367                 1.3685                 1.3955
 IR Inten    --      1.1069                 4.4457                 3.7849

                     40                     41                     42
                      A                      A                      A
 Frequencies --   1502.6394              1806.3108              2932.3276
 Red. masses --      1.2787                10.3444                 1.0858
 Frc consts  --      1.7011                19.8857                 5.5010
 IR Inten    --      4.0857               187.8505                57.3486

                     43                     44                     45
                      A                      A                      A
 Frequencies --   3024.0172              3052.3471              3082.7265
 Red. masses --      1.0359                 1.0575                 1.1009
 Frc consts  --      5.5815                 5.8051                 6.1639
 IR Inten    --     30.1336                31.9420                21.1066

                     46                     47                     48
                      A                      A                      A
 Frequencies --   3098.3040              3106.6346              3118.1289
 Red. masses --      1.0999                 1.1086                 1.0547
 Frc consts  --      6.2209                 6.3036                 6.0415
 IR Inten    --     16.9884                14.7573                14.9636

                     49                     50                     51
                      A                      A                      A
 Frequencies --   3191.5972              3205.4897              3679.1500
 Red. masses --      1.0961                 1.1127                 1.0646
 Frc consts  --      6.5783                 6.7361                 8.4905
 IR Inten    --     11.2988                11.8248                72.0508

 - Thermochemistry -
 -------------------
 Temperature   298.150 Kelvin.  Pressure   1.00000 Atm.
 Atom     1 has atomic number  6 and mass  12.00000

 Molecular mass:   126.06808 amu.
 Principal axes and moments of inertia in atomic units:
                           1         2         3
     Eigenvalues --   690.246251255.440251437.45588
           X            0.99967   0.02528   0.00432
           Y           -0.02537   0.99941   0.02333
           Z           -0.00373  -0.02343   0.99972
 This molecule is an asymmetric top.
 Rotational symmetry number  1.
 Warning -- assumption of classical behavior for rotation
           may cause significant error
 Rotational temperatures (Kelvin)      0.12548     0.06899     0.06025
 Rotational constants (GHZ):           2.61463     1.43754     1.25551
 Zero-point vibrational energy     413357.1 (Joules/Mol)
                                   98.79472 (Kcal/Mol)
 Warning -- explicit consideration of  12 degrees of freedom as
           vibrations may cause significant error
 Vibrational temperatures:    134.64   158.94   260.68   324.56   386.27
          (Kelvin)            458.92   497.62   583.52   593.90   646.27
                              707.64   795.38   930.75  1104.57  1188.91
                             1208.74  1266.11  1269.39  1315.53  1399.33
                             1423.47  1466.03  1509.54  1538.43  1568.13
                             1593.05  1599.40  1667.97  1771.00  1790.04
                             1832.66  1875.15  1979.10  1991.54  2043.86
                             2060.39  2124.27  2141.04  2155.12  2161.96
                             2598.88  4218.96  4350.88  4391.64  4435.35
                             4457.76  4469.75  4486.29  4591.99  4611.98
                             5293.47

 Zero-point correction=                           0.157439 (Hartree/Particle)
 Thermal correction to Energy=                    0.166253
 Thermal correction to Enthalpy=                  0.167198
 Thermal correction to Gibbs Free Energy=         0.124243
 Sum of electronic and zero-point Energies=           -423.013592
 Sum of electronic and thermal Energies=              -423.004778
 Sum of electronic and thermal Enthalpies=            -423.003834
 Sum of electronic and thermal Free Energies=         -423.046788

                     E (Thermal)             CV                S
                      KCal/Mol        Cal/Mol-Kelvin    Cal/Mol-Kelvin
 Total                  104.326             33.789             90.405
 Electronic               0.000              0.000              0.000
 Translational            0.889              2.981             40.409
 Rotational               0.889              2.981             28.612
 Vibrational            102.548             27.827             21.385
 Vibration     1          0.603              1.954              3.584
 Vibration     2          0.606              1.941              3.261
 Vibration     3          0.630              1.865              2.316
 Vibration     4          0.650              1.802              1.914
 Vibration     5          0.673              1.731              1.606
 Vibration     6          0.705              1.637              1.315
 Vibration     7          0.724              1.584              1.185
 Vibration     8          0.771              1.458              0.942
 Vibration     9          0.777              1.442              0.917
 Vibration    10          0.808              1.363              0.798
 Vibration    11          0.848              1.268              0.679
 Vibration    12          0.908              1.134              0.538

 Normal termination of Gaussian 09 at Mon Jan 27 18:55:24 2020.
