 Gaussian 09, Revision D.01,
 Gaussian 09:  ES64L-G09RevD.01 24-Apr-2013

 -----------------------------
 # b3lyp 6-31G(2df,p) opt Freq
 -----------------------------

 -----
 titel
 -----
 Symbolic Z-matrix:
 Charge =  0 Multiplicity = 1

 SCF Done:  E(RB3LYP) =  -423.196510449     A.U. after   13 cycles
 Optimization completed.
    -- Stationary point found.
 Normal termination of Gaussian 09 at Tue Jan 28 03:59:28 2020.

 ----------------------------------------------------------------------
 #N Geom=AllCheck Guess=TCheck SCRF=Check GenChk RB3LYP/6-31G(2df,p) Fr
 eq
 ----------------------------------------------------------------------

 Structure from the checkpoint file:  "/scratch/puck/g09_2323f009-0502-4f25-ab38-052c011bd63e/Gau-69793.chk"
 -----
 titel
 -----
 Charge =  0 Multiplicity = 1

                         Standard orientation:
 ---------------------------------------------------------------------
 Center     Atomic      Atomic             Coordinates (Angstroms)
 Number     Number       Type             X           Y           Z
 ---------------------------------------------------------------------
      1          8           0       -2.362580   -0.041460   -0.070234
      2          6           0       -1.126584    0.236060   -0.703097
      3          6           0       -0.307750   -1.051981   -1.026171
      4          6           0        1.035198   -1.012328   -0.252099
      5          6           0        0.692876   -0.856386    1.246948
      6          8           0       -0.103797    0.316609    1.445356
      7          6           0       -0.248023    1.101983    0.230252
      8          6           0        1.093406    1.360086   -0.396765
      9          6           0        1.774316    0.242068   -0.653443
     10          1           0       -2.143777   -0.206766    0.857122
     11          1           0       -1.368630    0.786632   -1.616321
     12          1           0       -0.905148   -1.917236   -0.722981
     13          1           0       -0.115888   -1.141174   -2.098310
     14          1           0        1.617989   -1.922096   -0.412190
     15          1           0        0.119105   -1.723326    1.601006
     16          1           0        1.606303   -0.776689    1.850055
     17          1           0       -0.778189    2.004934    0.535501
     18          1           0        1.446647    2.365857   -0.591289
     19          1           0        2.771975    0.211654   -1.077317
 ---------------------------------------------------------------------

 SCF Done:  E(RB3LYP) =  -423.196510449     A.U. after    1 cycles

 The electronic state is 1-A.
 Alpha  occ. eigenvalues --  -19.14436 -19.12410 -10.23262 -10.23141 -10.22765
 Alpha  occ. eigenvalues --  -10.19872 -10.18928 -10.18389 -10.18188  -1.03950
 Alpha  occ. eigenvalues --   -1.00214  -0.83370  -0.76879  -0.73497  -0.64329
 Alpha  occ. eigenvalues --   -0.62607  -0.59519  -0.53166  -0.51058  -0.48926
 Alpha  occ. eigenvalues --   -0.48244  -0.43688  -0.43074  -0.41003  -0.40084
 Alpha  occ. eigenvalues --   -0.39608  -0.38885  -0.36645  -0.33437  -0.32507
 Alpha  occ. eigenvalues --   -0.30037  -0.27452  -0.25283  -0.24301
 Alpha virt. eigenvalues --    0.00383   0.08203   0.10907   0.11154   0.11805
 Alpha virt. eigenvalues --    0.14019   0.15331   0.16104   0.17011   0.17789
 Alpha virt. eigenvalues --    0.18350   0.19231   0.19760   0.20322   0.21586

 Mulliken charges:
               1
     1  O   -0.452606
     2  C    0.161472
     3  C   -0.244876
     4  C   -0.078265
     5  C   -0.070353
     6  O   -0.295330
     7  C    0.013335
     8  C   -0.069299
     9  C   -0.084230
    10  H    0.283578
    11  H    0.084795
    12  H    0.104283
    13  H    0.101508
    14  H    0.069673
    15  H    0.097706
    16  H    0.100169
    17  H    0.081384
    18  H    0.100205
    19  H    0.096854
 Sum of Mulliken charges =   0.00000

 Dipole moment (field-independent basis, Debye):
    X=              2.1408    Y=             -0.4870    Z=             -0.5746  Tot=              2.2694
 Quadrupole moment (field-independent basis, Debye-Ang):
   XX=            -57.0746   YY=            -49.6116   ZZ=            -53.9775
   XY=             -0.7787   XZ=             -1.9869   YZ=             -1.9198

  Exact polarizability:  77.390  -2.472  77.854  -2.939  -2.020  66.315
 Approx polarizability: 113.126  -8.744 120.786  -7.158  -0.978 101.304

                      1                      2                      3
                      A                      A                      A
 Frequencies --    115.9972               274.1087               318.1863
 Red. masses --      3.3887                 4.0969                 2.4390
 Frc consts  --      0.0269                 0.1814                 0.1455
 IR Inten    --      1.4451                10.8973                 0.0702

                      4                      5                      6
                      A                      A                      A
 Frequencies --    367.2606               385.7669               443.1655
 Red. masses --      2.7195                 3.3691                 2.7962
 Frc consts  --      0.2161                 0.2954                 0.3236
 IR Inten    --      1.9433                 0.4885                 0.5526

                      7                      8                      9
                      A                      A                      A
 Frequencies --    494.2417               499.5473               628.6917
 Red. masses --      1.6835                 1.9454                 3.5462
 Frc consts  --      0.2423                 0.2860                 0.8258
 IR Inten    --     32.0431                39.0627                 0.4633

                     10                     11                     12
                      A                      A                      A
 Frequencies --    654.6328               686.4717               721.4606
 Red. masses --      6.0632                 3.7263                 1.6042
 Frc consts  --      1.5309                 1.0346                 0.4920
 IR Inten    --      3.1471                 3.1853                19.7898

                     13                     14                     15
                      A                      A                      A
 Frequencies --    798.2707               828.5510               858.0476
 Red. masses --      3.8966                 2.9116                 2.7852
 Frc consts  --      1.4630                 1.1776                 1.2082
 IR Inten    --      9.1304                19.2691                13.5272

                     16                     17                     18
                      A                      A                      A
 Frequencies --    922.2732               953.7581               968.2383
 Red. masses --      2.0298                 2.3977                 1.3872
 Frc consts  --      1.0172                 1.2850                 0.7662
 IR Inten    --      2.9290                 0.2530                 0.7893

                     19                     20                     21
                      A                      A                      A
 Frequencies --    980.9532              1007.4491              1009.9497
 Red. masses --      1.9417                 2.2937                 3.1682
 Frc consts  --      1.1009                 1.3716                 1.9040
 IR Inten    --      6.6700                16.8622                68.5724

                     22                     23                     24
                      A                      A                      A
 Frequencies --   1034.4281              1060.8802              1083.7348
 Red. masses --      4.0453                 2.4686                 2.5947
 Frc consts  --      2.5504                 1.6369                 1.7955
 IR Inten    --      7.5932                30.4171                23.8829

                     25                     26                     27
                      A                      A                      A
 Frequencies --   1110.4617              1140.1994              1182.6696
 Red. masses --      2.4678                 1.0953                 1.0949
 Frc consts  --      1.7929                 0.8390                 0.9023
 IR Inten    --     55.2391                 1.1339                33.3624

                     28                     29                     30
                      A                      A                      A
 Frequencies --   1209.8735              1238.0396              1266.2677
 Red. masses --      1.3389                 1.2263                 1.3248
 Frc consts  --      1.1547                 1.1074                 1.2516
 IR Inten    --      2.7556                 3.2571                12.2938

                     31                     32                     33
                      A                      A                      A
 Frequencies --   1296.5460              1320.9240              1337.9982
 Red. masses --      1.6652                 1.3853                 1.3855
 Frc consts  --      1.6493                 1.4242                 1.4614
 IR Inten    --      2.4607                 2.4802                 0.7072

                     34                     35                     36
                      A                      A                      A
 Frequencies --   1341.6884              1360.3165              1388.5591
 Red. masses --      1.2346                 1.4993                 1.5935
 Frc consts  --      1.3094                 1.6347                 1.8102
 IR Inten    --      1.4132                 3.7357                12.9936

                     37                     38                     39
                      A                      A                      A
 Frequencies --   1400.0637              1438.4658              1485.1074
 Red. masses --      1.4091                 1.2346                 1.0853
 Frc consts  --      1.6274                 1.5051                 1.4104
 IR Inten    --      4.7483                75.9446                 2.7356

                     40                     41                     42
                      A                      A                      A
 Frequencies --   1522.8208              1680.9342              3004.8669
 Red. masses --      1.0874                 5.9282                 1.0558
 Frc consts  --      1.4858                 9.8690                 5.6168
 IR Inten    --      0.0648                 1.6263                67.6338

                     43                     44                     45
                      A                      A                      A
 Frequencies --   3042.9867              3052.6751              3070.4703
 Red. masses --      1.1094                 1.0610                 1.0869
 Frc consts  --      6.0525                 5.8252                 6.0374
 IR Inten    --     37.8753                23.7250                24.6942

                     46                     47                     48
                      A                      A                      A
 Frequencies --   3086.5520              3103.3119              3110.2499
 Red. masses --      1.0863                 1.1047                 1.0889
 Frc consts  --      6.0973                 6.2681                 6.2063
 IR Inten    --     37.9843                26.7200                23.7040

                     49                     50                     51
                      A                      A                      A
 Frequencies --   3181.5552              3206.4160              3750.7148
 Red. masses --      1.0857                 1.1030                 1.0647
 Frc consts  --      6.4752                 6.6811                 8.8252
 IR Inten    --      6.5439                18.5271                29.6597

 - Thermochemistry -
 -------------------
 Temperature   298.150 Kelvin.  Pressure   1.00000 Atm.
 Atom     1 has atomic number  8 and mass  15.99491

 Molecular mass:   126.06808 amu.
 Principal axes and moments of inertia in atomic units:
                           1         2         3
     Eigenvalues --   686.741611052.686681064.97878
           X            0.99995  -0.01021   0.00063
           Y            0.00890   0.83749  -0.54637
           Z            0.00505   0.54635   0.83754
 This molecule is an asymmetric top.
 Rotational symmetry number  1.
 Warning -- assumption of classical behavior for rotation
           may cause significant error
 Rotational temperatures (Kelvin)      0.12612     0.08228     0.08133
 Rotational constants (GHZ):           2.62798     1.71441     1.69463
 Zero-point vibrational energy     427227.1 (Joules/Mol)
                                  102.10974 (Kcal/Mol)
 Warning -- explicit consideration of   8 degrees of freedom as
           vibrations may cause significant error
 Vibrational temperatures:    166.89   394.38   457.80   528.41   555.03
          (Kelvin)            637.62   711.10   718.74   904.55   941.87
                              987.68  1038.02  1148.53  1192.10  1234.54
                             1326.94  1372.24  1393.08  1411.37  1449.49
                             1453.09  1488.31  1526.37  1559.25  1597.70
                             1640.49  1701.60  1740.74  1781.26  1821.87
                             1865.44  1900.51  1925.08  1930.39  1957.19
                             1997.82  2014.38  2069.63  2136.74  2191.00
                             2418.49  4323.33  4378.17  4392.11  4417.72
                             4440.85  4464.97  4474.95  4577.54  4613.31
                             5396.44

 Zero-point correction=                           0.162722 (Hartree/Particle)
 Thermal correction to Energy=                    0.169735
 Thermal correction to Enthalpy=                  0.170679
 Thermal correction to Gibbs Free Energy=         0.131672
 Sum of electronic and zero-point Energies=           -423.033788
 Sum of electronic and thermal Energies=              -423.026775
 Sum of electronic and thermal Enthalpies=            -423.025831
 Sum of electronic and thermal Free Energies=         -423.064839

                     E (Thermal)             CV                S
                      KCal/Mol        Cal/Mol-Kelvin    Cal/Mol-Kelvin
 Total                  106.510             29.384             82.099
 Electronic               0.000              0.000              0.000
 Translational            0.889              2.981             40.409
 Rotational               0.889              2.981             28.134
 Vibrational            104.733             23.423             13.557
 Vibration     1          0.608              1.936              3.166
 Vibration     2          0.676              1.721              1.570
 Vibration     3          0.705              1.639              1.319
 Vibration     4          0.740              1.540              1.091
 Vibration     5          0.754              1.501              1.016
 Vibration     6          0.803              1.376              0.817
 Vibration     7          0.850              1.263              0.673
 Vibration     8          0.855              1.251              0.659

 Normal termination of Gaussian 09 at Tue Jan 28 04:50:23 2020.
