 Gaussian 09, Revision D.01,
 Gaussian 09:  ES64L-G09RevD.01 24-Apr-2013

 -----------------------------
 # b3lyp 6-31G(2df,p) opt Freq
 -----------------------------

 -----
 titel
 -----
 Symbolic Z-matrix:
 Charge =  0 Multiplicity = 1

 SCF Done:  E(RB3LYP) =  -423.186198779     A.U. after   14 cycles
 Optimization completed.
    -- Stationary point found.
 Normal termination of Gaussian 09 at Mon Jan 27 22:56:22 2020.

 ----------------------------------------------------------------------
 #N Geom=AllCheck Guess=TCheck SCRF=Check GenChk RB3LYP/6-31G(2df,p) Fr
 eq
 ----------------------------------------------------------------------

 Structure from the checkpoint file:  "/scratch/puck/g09_002d40fd-5b7e-4278-9b01-9225cbcd23b1/Gau-75294.chk"
 -----
 titel
 -----
 Charge =  0 Multiplicity = 1

                         Standard orientation:
 ---------------------------------------------------------------------
 Center     Atomic      Atomic             Coordinates (Angstroms)
 Number     Number       Type             X           Y           Z
 ---------------------------------------------------------------------
      1          6           0       -2.162465   -1.149213   -0.323046
      2          6           0       -0.669137   -1.091053    0.003956
      3          6           0       -0.286924   -0.401016    1.369572
      4          6           0        0.775333    0.618083    0.889590
      5          6           0        0.076543    1.229833   -0.373381
      6          8           0       -1.156946    1.882005   -0.252049
      7          6           0        0.196168   -0.229882   -0.958330
      8          6           0        1.511798   -0.236019   -0.160412
      9          8           0        2.626951   -0.632540   -0.322907
     10          1           0       -2.597321   -0.154743   -0.448158
     11          1           0       -2.331797   -1.696207   -1.256193
     12          1           0       -2.709167   -1.671299    0.470289
     13          1           0       -0.286354   -2.117414    0.004311
     14          1           0       -1.147742    0.088684    1.843824
     15          1           0        0.115654   -1.104797    2.101399
     16          1           0        1.292476    1.224585    1.630245
     17          1           0        0.737822    1.913740   -0.910834
     18          1           0       -1.634256    1.521549    0.501103
     19          1           0        0.152756   -0.444220   -2.024026
 ---------------------------------------------------------------------

 SCF Done:  E(RB3LYP) =  -423.186198779     A.U. after    1 cycles

 The electronic state is 1-A.
 Alpha  occ. eigenvalues --  -19.15417 -19.14124 -10.27295 -10.25214 -10.20887
 Alpha  occ. eigenvalues --  -10.20595 -10.20309 -10.19661 -10.18474  -1.05196
 Alpha  occ. eigenvalues --   -1.03869  -0.89446  -0.76981  -0.72270  -0.66800
 Alpha  occ. eigenvalues --   -0.62497  -0.56527  -0.53279  -0.52622  -0.49770
 Alpha  occ. eigenvalues --   -0.46039  -0.44760  -0.42198  -0.41606  -0.40253
 Alpha  occ. eigenvalues --   -0.39457  -0.38232  -0.37461  -0.35790  -0.34751
 Alpha  occ. eigenvalues --   -0.33211  -0.32568  -0.27570  -0.23338
 Alpha virt. eigenvalues --   -0.01495   0.06421   0.09351   0.11594   0.12477
 Alpha virt. eigenvalues --    0.13252   0.14099   0.15058   0.15293   0.16250
 Alpha virt. eigenvalues --    0.16664   0.18111   0.19359   0.21175   0.22864

 Mulliken charges:
               1
     1  C   -0.431967
     2  C    0.035627
     3  C   -0.273282
     4  C   -0.195142
     5  C    0.156470
     6  O   -0.439236
     7  C   -0.204588
     8  C    0.434532
     9  O   -0.321791
    10  H    0.125979
    11  H    0.123404
    12  H    0.116445
    13  H    0.092666
    14  H    0.095718
    15  H    0.120381
    16  H    0.087285
    17  H    0.107141
    18  H    0.287209
    19  H    0.083149
 Sum of Mulliken charges =   0.00000

 Dipole moment (field-independent basis, Debye):
    X=             -2.3711    Y=             -0.3355    Z=              1.3290  Tot=              2.7387
 Quadrupole moment (field-independent basis, Debye-Ang):
   XX=            -61.2268   YY=            -55.3089   ZZ=            -50.9987
   XY=              4.7425   XZ=             -0.7178   YZ=              1.1157

  Exact polarizability:  83.279   1.325  70.439  -0.890   1.244  70.008
 Approx polarizability: 123.541  -5.722 105.864  -3.684   1.357 106.017

                      1                      2                      3
                      A                      A                      A
 Frequencies --    142.8999               159.6316               195.3000
 Red. masses --      5.6377                 2.6821                 1.1412
 Frc consts  --      0.0678                 0.0403                 0.0256
 IR Inten    --      2.2340                35.1232                 8.3229

                      4                      5                      6
                      A                      A                      A
 Frequencies --    228.4657               255.6378               303.6665
 Red. masses --      2.0624                 1.3203                 3.1201
 Frc consts  --      0.0634                 0.0508                 0.1695
 IR Inten    --     17.9507                31.8326                 3.8581

                      7                      8                      9
                      A                      A                      A
 Frequencies --    315.4210               416.3287               512.4201
 Red. masses --      5.3022                 2.3610                 3.1414
 Frc consts  --      0.3108                 0.2411                 0.4860
 IR Inten    --      9.5524                 0.9198                 3.0205

                     10                     11                     12
                      A                      A                      A
 Frequencies --    535.9645               646.5891               682.2323
 Red. masses --      5.8705                 3.4347                 3.0580
 Frc consts  --      0.9936                 0.8460                 0.8386
 IR Inten    --      2.6298                 5.4979                 1.1117

                     13                     14                     15
                      A                      A                      A
 Frequencies --    737.2454               773.5699               787.0831
 Red. masses --      4.0134                 3.7658                 3.9499
 Frc consts  --      1.2852                 1.3277                 1.4417
 IR Inten    --      1.5725                 8.0852                 0.3915

                     16                     17                     18
                      A                      A                      A
 Frequencies --    821.9578               893.6795               929.7094
 Red. masses --      3.1411                 2.2279                 1.3455
 Frc consts  --      1.2504                 1.0483                 0.6852
 IR Inten    --      1.8579                 3.1997                 1.1517

                     19                     20                     21
                      A                      A                      A
 Frequencies --    964.8055              1010.2842              1014.1498
 Red. masses --      2.0216                 1.4131                 2.3931
 Frc consts  --      1.1087                 0.8498                 1.4501
 IR Inten    --      3.2452                12.3988                10.3219

                     22                     23                     24
                      A                      A                      A
 Frequencies --   1049.6384              1082.1997              1095.2689
 Red. masses --      2.4869                 1.6508                 1.5745
 Frc consts  --      1.6143                 1.1391                 1.1129
 IR Inten    --      5.6723                19.4174                19.9661

                     25                     26                     27
                      A                      A                      A
 Frequencies --   1128.5018              1138.5340              1172.0801
 Red. masses --      2.2016                 1.8818                 1.8048
 Frc consts  --      1.6519                 1.4372                 1.4608
 IR Inten    --     84.3906                11.5209                 3.2899

                     28                     29                     30
                      A                      A                      A
 Frequencies --   1183.1124              1197.3425              1240.8244
 Red. masses --      1.7852                 1.7576                 1.4845
 Frc consts  --      1.4723                 1.4846                 1.3467
 IR Inten    --     32.1052                 8.4846                24.1225

                     31                     32                     33
                      A                      A                      A
 Frequencies --   1251.4933              1288.0954              1316.7099
 Red. masses --      1.5010                 1.4352                 1.5233
 Frc consts  --      1.3851                 1.4030                 1.5560
 IR Inten    --      3.1103                 9.4924                 9.1057

                     34                     35                     36
                      A                      A                      A
 Frequencies --   1327.9249              1382.1820              1411.8809
 Red. masses --      1.5426                 1.3558                 1.2296
 Frc consts  --      1.6027                 1.5261                 1.4441
 IR Inten    --      1.2451                 6.8945                 4.0758

                     37                     38                     39
                      A                      A                      A
 Frequencies --   1448.9301              1492.0422              1509.5988
 Red. masses --      1.1836                 1.0461                 1.0791
 Frc consts  --      1.4641                 1.3721                 1.4489
 IR Inten    --     48.2656                 2.0313                 2.6618

                     40                     41                     42
                      A                      A                      A
 Frequencies --   1510.5633              1906.0751              3015.2821
 Red. masses --      1.0546                12.1843                 1.0711
 Frc consts  --      1.4178                26.0814                 5.7378
 IR Inten    --      2.4362               300.7327                31.8755

                     43                     44                     45
                      A                      A                      A
 Frequencies --   3034.4035              3039.0408              3088.3166
 Red. masses --      1.0436                 1.0784                 1.0865
 Frc consts  --      5.6617                 5.8680                 6.1056
 IR Inten    --     27.2106                20.5145                23.4444

                     46                     47                     48
                      A                      A                      A
 Frequencies --   3097.0307              3099.6587              3122.9294
 Red. masses --      1.0995                 1.0945                 1.0998
 Frc consts  --      6.2136                 6.1959                 6.3196
 IR Inten    --     25.0127                11.1835                21.9565

                     49                     50                     51
                      A                      A                      A
 Frequencies --   3144.7347              3148.1850              3827.1116
 Red. masses --      1.0896                 1.0923                 1.0658
 Frc consts  --      6.3489                 6.3783                 9.1971
 IR Inten    --     31.3661                 7.2531                15.8308

 - Thermochemistry -
 -------------------
 Temperature   298.150 Kelvin.  Pressure   1.00000 Atm.
 Atom     1 has atomic number  6 and mass  12.00000

 Molecular mass:   126.06808 amu.
 Principal axes and moments of inertia in atomic units:
                           1         2         3
     Eigenvalues --   729.292391151.413681404.47927
           X            0.99655   0.08274   0.00677
           Y           -0.08284   0.99643   0.01648
           Z           -0.00538  -0.01698   0.99984
 This molecule is an asymmetric top.
 Rotational symmetry number  1.
 Warning -- assumption of classical behavior for rotation
           may cause significant error
 Rotational temperatures (Kelvin)      0.11876     0.07522     0.06167
 Rotational constants (GHZ):           2.47465     1.56741     1.28499
 Zero-point vibrational energy     419151.9 (Joules/Mol)
                                  100.17972 (Kcal/Mol)
 Warning -- explicit consideration of  10 degrees of freedom as
           vibrations may cause significant error
 Vibrational temperatures:    205.60   229.67   280.99   328.71   367.81
          (Kelvin)            436.91   453.82   599.00   737.26   771.13
                              930.30   981.58  1060.73  1112.99  1132.44
                             1182.61  1285.80  1337.64  1388.14  1453.57
                             1459.13  1510.19  1557.04  1575.85  1623.66
                             1638.09  1686.36  1702.23  1722.71  1785.27
                             1800.62  1853.28  1894.45  1910.59  1988.65
                             2031.38  2084.68  2146.71  2171.97  2173.36
                             2742.41  4338.31  4365.82  4372.50  4443.39
                             4455.93  4459.71  4493.19  4524.57  4529.53
                             5506.35

 Zero-point correction=                           0.159647 (Hartree/Particle)
 Thermal correction to Energy=                    0.167938
 Thermal correction to Enthalpy=                  0.168883
 Thermal correction to Gibbs Free Energy=         0.127202
 Sum of electronic and zero-point Energies=           -423.026552
 Sum of electronic and thermal Energies=              -423.018260
 Sum of electronic and thermal Enthalpies=            -423.017316
 Sum of electronic and thermal Free Energies=         -423.058997

                     E (Thermal)             CV                S
                      KCal/Mol        Cal/Mol-Kelvin    Cal/Mol-Kelvin
 Total                  105.383             32.338             87.724
 Electronic               0.000              0.000              0.000
 Translational            0.889              2.981             40.409
 Rotational               0.889              2.981             28.558
 Vibrational            103.605             26.377             18.758
 Vibration     1          0.616              1.910              2.765
 Vibration     2          0.621              1.892              2.554
 Vibration     3          0.636              1.846              2.177
 Vibration     4          0.651              1.798              1.891
 Vibration     5          0.666              1.753              1.691
 Vibration     6          0.695              1.667              1.397
 Vibration     7          0.703              1.644              1.334
 Vibration     8          0.780              1.435              0.905
 Vibration     9          0.868              1.222              0.628
 Vibration    10          0.891              1.170              0.574

 Optimization completed.
    -- Stationary point found.
 Normal termination of Gaussian 09 at Mon Jan 27 23:42:27 2020.
