 Gaussian 09, Revision D.01,
 Gaussian 09:  ES64L-G09RevD.01 24-Apr-2013

 -----------------------------
 # b3lyp 6-31G(2df,p) opt Freq
 -----------------------------

 -----
 titel
 -----
 Symbolic Z-matrix:
 Charge =  0 Multiplicity = 1

 SCF Done:  E(RB3LYP) =  -423.194597683     A.U. after   14 cycles
 SCF Done:  E(RB3LYP) =  -423.194597915     A.U. after    7 cycles
 SCF Done:  E(RB3LYP) =  -423.194597623     A.U. after    7 cycles
 SCF Done:  E(RB3LYP) =  -423.194597503     A.U. after    7 cycles
 Optimization completed.
    -- Stationary point found.
 Normal termination of Gaussian 09 at Mon Jan 27 15:52:27 2020.

 ----------------------------------------------------------------------
 #N Geom=AllCheck Guess=TCheck SCRF=Check GenChk RB3LYP/6-31G(2df,p) Fr
 eq
 ----------------------------------------------------------------------

 Structure from the checkpoint file:  "/scratch/puck/g09_9fb04491-6c0e-4f25-9750-14355fdd237b/Gau-164789.chk"
 -----
 titel
 -----
 Charge =  0 Multiplicity = 1

                         Standard orientation:
 ---------------------------------------------------------------------
 Center     Atomic      Atomic             Coordinates (Angstroms)
 Number     Number       Type             X           Y           Z
 ---------------------------------------------------------------------
      1          6           0       -1.032331    1.853515   -0.484399
      2          6           0       -0.569219    0.415108   -0.768971
      3          6           0       -1.683222   -0.594723   -0.504798
      4          8           0       -1.515302   -1.723355   -0.125172
      5          6           0        0.716235    0.022732   -0.062402
      6          6           0        1.638217   -1.007652   -0.700239
      7          6           0        2.062200    0.419439   -0.669804
      8          6           0        0.682443   -0.008865    1.421446
      9          8           0       -0.272703    0.272828    2.103304
     10          1           0       -1.227688    1.993293    0.579805
     11          1           0       -0.267617    2.570448   -0.795975
     12          1           0       -1.948562    2.080721   -1.039235
     13          1           0       -0.393183    0.334015   -1.854420
     14          1           0       -2.704043   -0.211036   -0.735917
     15          1           0        2.136373   -1.711982   -0.042874
     16          1           0        1.297659   -1.437761   -1.634620
     17          1           0        2.856182    0.710054    0.010111
     18          1           0        2.022499    1.001089   -1.584036
     19          1           0        1.646477   -0.321945    1.887110
 ---------------------------------------------------------------------

 SCF Done:  E(RB3LYP) =  -423.194597503     A.U. after    1 cycles

 The electronic state is 1-A.
 Alpha  occ. eigenvalues --  -19.13926 -19.13762 -10.27144 -10.27074 -10.21728
 Alpha  occ. eigenvalues --  -10.21175 -10.21102 -10.20875 -10.18539  -1.04893
 Alpha  occ. eigenvalues --   -1.04338  -0.89051  -0.79144  -0.67557  -0.65730
 Alpha  occ. eigenvalues --   -0.62210  -0.59949  -0.53670  -0.51063  -0.48699
 Alpha  occ. eigenvalues --   -0.46539  -0.44563  -0.43854  -0.42780  -0.40660
 Alpha  occ. eigenvalues --   -0.39789  -0.38573  -0.38065  -0.37199  -0.35445
 Alpha  occ. eigenvalues --   -0.32467  -0.29900  -0.25449  -0.24859
 Alpha virt. eigenvalues --   -0.02101  -0.01918   0.07586   0.09432   0.10624
 Alpha virt. eigenvalues --    0.11813   0.12852   0.14162   0.15189   0.16242
 Alpha virt. eigenvalues --    0.17246   0.18962   0.19559   0.21101   0.21279

 Mulliken charges:
               1
     1  C   -0.424679
     2  C   -0.184827
     3  C    0.176279
     4  O   -0.255074
     5  C    0.299211
     6  C   -0.296789
     7  C   -0.328985
     8  C    0.126508
     9  O   -0.279271
    10  H    0.159921
    11  H    0.120098
    12  H    0.117364
    13  H    0.100185
    14  H    0.076966
    15  H    0.130843
    16  H    0.133270
    17  H    0.127631
    18  H    0.128212
    19  H    0.073137
 Sum of Mulliken charges =   0.00000

 Dipole moment (field-independent basis, Debye):
    X=              2.0997    Y=              1.7151    Z=             -2.7881  Tot=              3.8889
 Quadrupole moment (field-independent basis, Debye-Ang):
   XX=            -50.5868   YY=            -56.7768   ZZ=            -55.6214
   XY=             -3.5179   XZ=              3.7037   YZ=             -1.1248

  Exact polarizability:  84.421  -4.158  73.187  -1.628  -1.890  71.804
 Approx polarizability: 120.103  -6.557 112.973 -10.223  -2.896 112.058

                      1                      2                      3
                      A                      A                      A
 Frequencies --     68.8676                83.0440               139.4907
 Red. masses --      2.9730                 4.2812                 6.3064
 Frc consts  --      0.0083                 0.0174                 0.0723
 IR Inten    --      8.3315                 1.3577                 0.4394

                      4                      5                      6
                      A                      A                      A
 Frequencies --    164.6753               200.1310               215.4232
 Red. masses --      3.1697                 2.6945                 1.2111
 Frc consts  --      0.0506                 0.0636                 0.0331
 IR Inten    --      6.0439                 5.0162                 1.4621

                      7                      8                      9
                      A                      A                      A
 Frequencies --    254.3825               312.6651               336.6780
 Red. masses --      2.8177                 2.7603                 2.0872
 Frc consts  --      0.1074                 0.1590                 0.1394
 IR Inten    --      1.0899                10.5478                 3.5826

                     10                     11                     12
                      A                      A                      A
 Frequencies --    414.9161               452.6925               538.0886
 Red. masses --      3.0537                 3.2948                 5.1795
 Frc consts  --      0.3097                 0.3978                 0.8836
 IR Inten    --      0.1851                 1.1255                 6.5001

                     13                     14                     15
                      A                      A                      A
 Frequencies --    642.3101               724.6030               779.2028
 Red. masses --      4.5303                 2.6997                 1.0592
 Frc consts  --      1.1012                 0.8352                 0.3789
 IR Inten    --      9.7477                12.3331                 2.2684

                     16                     17                     18
                      A                      A                      A
 Frequencies --    841.0819               904.8252               914.2687
 Red. masses --      3.6148                 1.9241                 1.2887
 Frc consts  --      1.5066                 0.9281                 0.6347
 IR Inten    --      2.9107                37.7911                 4.1351

                     19                     20                     21
                      A                      A                      A
 Frequencies --    931.3123               953.3905               985.3283
 Red. masses --      1.7816                 1.4689                 2.3663
 Frc consts  --      0.9104                 0.7866                 1.3536
 IR Inten    --     51.5111                 1.0911                21.4852

                     22                     23                     24
                      A                      A                      A
 Frequencies --   1046.5597              1048.7884              1068.5993
 Red. masses --      1.6541                 1.6538                 1.4378
 Frc consts  --      1.0674                 1.0718                 0.9674
 IR Inten    --      0.2616                 0.6584                 0.9302

                     25                     26                     27
                      A                      A                      A
 Frequencies --   1090.8667              1118.2788              1142.4640
 Red. masses --      1.4320                 2.3663                 1.8283
 Frc consts  --      1.0040                 1.7435                 1.4060
 IR Inten    --      0.6928                 0.7931                 2.6150

                     28                     29                     30
                      A                      A                      A
 Frequencies --   1193.4954              1252.0404              1300.3688
 Red. masses --      1.3187                 2.2919                 1.3940
 Frc consts  --      1.1067                 2.1168                 1.3888
 IR Inten    --      0.0165                 3.8687                 0.8113

                     31                     32                     33
                      A                      A                      A
 Frequencies --   1344.6392              1355.0320              1402.5032
 Red. masses --      1.6683                 3.8105                 1.2263
 Frc consts  --      1.7772                 4.1222                 1.4212
 IR Inten    --      5.5394                17.2642                 9.4065

                     34                     35                     36
                      A                      A                      A
 Frequencies --   1423.5962              1445.8572              1469.6347
 Red. masses --      1.2126                 1.3004                 1.0855
 Frc consts  --      1.4479                 1.6017                 1.3814
 IR Inten    --      7.5169                 1.1308                 3.9620

                     37                     38                     39
                      A                      A                      A
 Frequencies --   1492.5106              1499.1947              1515.3232
 Red. masses --      1.0469                 1.2980                 1.0624
 Frc consts  --      1.3740                 1.7189                 1.4373
 IR Inten    --      7.7390                 0.0994                 4.6209

                     40                     41                     42
                      A                      A                      A
 Frequencies --   1809.8878              1834.9910              2855.6390
 Red. masses --     10.7068                10.8086                 1.0823
 Frc consts  --     20.6640                21.4431                 5.1999
 IR Inten    --    196.5292               138.2720               132.4976

                     43                     44                     45
                      A                      A                      A
 Frequencies --   2863.8648              2977.1820              3045.5357
 Red. masses --      1.0830                 1.0806                 1.0377
 Frc consts  --      5.2334                 5.6430                 5.6708
 IR Inten    --    107.8468                12.9293                24.5291

                     46                     47                     48
                      A                      A                      A
 Frequencies --   3108.7477              3134.8603              3142.8024
 Red. masses --      1.1004                 1.0535                 1.0563
 Frc consts  --      6.2657                 6.0999                 6.1474
 IR Inten    --     22.6239                 9.5741                 6.7624

                     49                     50                     51
                      A                      A                      A
 Frequencies --   3147.6062              3215.9545              3231.8137
 Red. masses --      1.1003                 1.1177                 1.1160
 Frc consts  --      6.4225                 6.8108                 6.8673
 IR Inten    --      5.3335                 0.8130                 6.7256

 - Thermochemistry -
 -------------------
 Temperature   298.150 Kelvin.  Pressure   1.00000 Atm.
 Atom     1 has atomic number  6 and mass  12.00000

 Molecular mass:   126.06808 amu.
 Principal axes and moments of inertia in atomic units:
                           1         2         3
     Eigenvalues --   948.242901241.121711268.86484
           X            0.99508  -0.04061  -0.09035
           Y            0.09753   0.56123   0.82190
           Z           -0.01733   0.82666  -0.56243
 This molecule is an asymmetric top.
 Rotational symmetry number  1.
 Warning -- assumption of classical behavior for rotation
           may cause significant error
 Rotational temperatures (Kelvin)      0.09134     0.06979     0.06826
 Rotational constants (GHZ):           1.90325     1.45412     1.42233
 Zero-point vibrational energy     409338.3 (Joules/Mol)
                                   97.83419 (Kcal/Mol)
 Warning -- explicit consideration of  12 degrees of freedom as
           vibrations may cause significant error
 Vibrational temperatures:     99.08   119.48   200.70   236.93   287.94
          (Kelvin)            309.95   366.00   449.85   484.40   596.97
                              651.32   774.19   924.14  1042.54  1121.10
                             1210.13  1301.84  1315.43  1339.95  1371.71
                             1417.67  1505.76  1508.97  1537.47  1569.51
                             1608.95  1643.75  1717.17  1801.40  1870.94
                             1934.63  1949.59  2017.89  2048.23  2080.26
                             2114.47  2147.39  2157.00  2180.21  2604.02
                             2640.14  4108.62  4120.46  4283.50  4381.84
                             4472.79  4510.36  4521.79  4528.70  4627.04
                             4649.85

 Zero-point correction=                           0.155909 (Hartree/Particle)
 Thermal correction to Energy=                    0.165589
 Thermal correction to Enthalpy=                  0.166533
 Thermal correction to Gibbs Free Energy=         0.121159
 Sum of electronic and zero-point Energies=           -423.038689
 Sum of electronic and thermal Energies=              -423.029009
 Sum of electronic and thermal Enthalpies=            -423.028064
 Sum of electronic and thermal Free Energies=         -423.073439

                     E (Thermal)             CV                S
                      KCal/Mol        Cal/Mol-Kelvin    Cal/Mol-Kelvin
 Total                  103.909             34.760             95.498
 Electronic               0.000              0.000              0.000
 Translational            0.889              2.981             40.409
 Rotational               0.889              2.981             28.792
 Vibrational            102.131             28.798             26.298
 Vibration     1          0.598              1.969              4.185
 Vibration     2          0.600              1.961              3.818
 Vibration     3          0.615              1.914              2.811
 Vibration     4          0.623              1.886              2.495
 Vibration     5          0.638              1.840              2.132
 Vibration     6          0.645              1.818              1.997
 Vibration     7          0.665              1.755              1.700
 Vibration     8          0.701              1.650              1.348
 Vibration     9          0.717              1.602              1.228
 Vibration    10          0.778              1.438              0.909
 Vibration    11          0.811              1.355              0.788
 Vibration    12          0.893              1.166              0.569

 Normal termination of Gaussian 09 at Mon Jan 27 16:38:09 2020.
