 Gaussian 09, Revision D.01,
 Gaussian 09:  ES64L-G09RevD.01 24-Apr-2013

 -----------------------------
 # b3lyp 6-31G(2df,p) opt Freq
 -----------------------------

 -----
 titel
 -----
 Symbolic Z-matrix:
 Charge =  0 Multiplicity = 1

 SCF Done:  E(RB3LYP) =  -423.132691880     A.U. after   14 cycles
 Optimization completed.
    -- Stationary point found.
 Normal termination of Gaussian 09 at Tue Jan 28 14:04:50 2020.

 ----------------------------------------------------------------------
 #N Geom=AllCheck Guess=TCheck SCRF=Check GenChk RB3LYP/6-31G(2df,p) Fr
 eq
 ----------------------------------------------------------------------

 Structure from the checkpoint file:  "/scratch/puck/g09_094ee694-298e-4c5a-8dbc-e6335abe343e/Gau-10230.chk"
 -----
 titel
 -----
 Charge =  0 Multiplicity = 1

                         Standard orientation:
 ---------------------------------------------------------------------
 Center     Atomic      Atomic             Coordinates (Angstroms)
 Number     Number       Type             X           Y           Z
 ---------------------------------------------------------------------
      1          6           0       -1.172484    2.012909   -0.064895
      2          6           0       -0.859326    0.542425   -0.050844
      3          8           0       -0.615488   -0.041836    1.279813
      4          6           0       -0.075084   -1.158294    0.500556
      5          6           0       -1.323797   -1.640283   -0.257842
      6          6           0       -1.859135   -0.480007   -0.639177
      7          6           0        0.508437   -0.105951   -0.496434
      8          6           0        1.780677    0.594241   -0.045917
      9          8           0        2.912266   -0.266473   -0.113047
     10          1           0       -1.324847    2.360979   -1.091726
     11          1           0       -2.088765    2.207845    0.501184
     12          1           0       -0.364402    2.597154    0.382782
     13          1           0        0.541906   -1.853212    1.066939
     14          1           0       -1.637417   -2.659480   -0.428847
     15          1           0       -2.747007   -0.257045   -1.213287
     16          1           0        0.573448   -0.416371   -1.545477
     17          1           0        1.939825    1.506871   -0.643067
     18          1           0        1.688123    0.891260    1.001100
     19          1           0        3.049184   -0.501769   -1.036411
 ---------------------------------------------------------------------

 SCF Done:  E(RB3LYP) =  -423.132691880     A.U. after    1 cycles

 The electronic state is 1-A.
 Alpha  occ. eigenvalues --  -19.13438 -19.12582 -10.24712 -10.23711 -10.22276
 Alpha  occ. eigenvalues --  -10.19317 -10.18503 -10.18408 -10.18375  -1.04396
 Alpha  occ. eigenvalues --   -1.01316  -0.80454  -0.75501  -0.74079  -0.65179
 Alpha  occ. eigenvalues --   -0.63845  -0.54832  -0.53864  -0.49748  -0.49266
 Alpha  occ. eigenvalues --   -0.48107  -0.44360  -0.42027  -0.41645  -0.40731
 Alpha  occ. eigenvalues --   -0.38034  -0.37769  -0.34874  -0.34471  -0.32083
 Alpha  occ. eigenvalues --   -0.30241  -0.27752  -0.24657  -0.23423
 Alpha virt. eigenvalues --   -0.00004   0.07569   0.09665   0.10548   0.12374
 Alpha virt. eigenvalues --    0.14091   0.15043   0.15131   0.15964   0.16145
 Alpha virt. eigenvalues --    0.17043   0.17851   0.18347   0.20397   0.21536

 Mulliken charges:
               1
     1  C   -0.517547
     2  C    0.355998
     3  O   -0.319253
     4  C    0.011660
     5  C   -0.090256
     6  C   -0.124887
     7  C   -0.045893
     8  C   -0.098124
     9  O   -0.420729
    10  H    0.123159
    11  H    0.136551
    12  H    0.132916
    13  H    0.087512
    14  H    0.111016
    15  H    0.108122
    16  H    0.058708
    17  H    0.083732
    18  H    0.127187
    19  H    0.280126
 Sum of Mulliken charges =   0.00000

 Dipole moment (field-independent basis, Debye):
    X=             -0.6562    Y=              0.1683    Z=             -2.7851  Tot=              2.8663
 Quadrupole moment (field-independent basis, Debye-Ang):
   XX=            -55.7214   YY=            -48.9220   ZZ=            -53.9284
   XY=             -0.4843   XZ=             -1.5959   YZ=              0.1093

  Exact polarizability:  80.931  -1.960  82.375   3.787  -1.264  61.906
 Approx polarizability: 110.473  -9.209 123.232   6.372  -4.575 102.583

                      1                      2                      3
                      A                      A                      A
 Frequencies --     92.2520               148.6955               188.3892
 Red. masses --      3.2316                 4.0134                 1.0375
 Frc consts  --      0.0162                 0.0523                 0.0217
 IR Inten    --      1.2018                 1.3783                 0.1079

                      4                      5                      6
                      A                      A                      A
 Frequencies --    237.6653               264.3074               305.4694
 Red. masses --      2.0704                 2.7334                 1.6730
 Frc consts  --      0.0689                 0.1125                 0.0920
 IR Inten    --     12.3589                 0.5765                53.3735

                      7                      8                      9
                      A                      A                      A
 Frequencies --    339.3885               412.2419               504.1505
 Red. masses --      1.7825                 4.0776                 2.8299
 Frc consts  --      0.1210                 0.4083                 0.4238
 IR Inten    --     60.6627                 1.4638                 8.1953

                     10                     11                     12
                      A                      A                      A
 Frequencies --    561.3819               623.6967               646.8546
 Red. masses --      2.7474                 2.9804                 3.5116
 Frc consts  --      0.5101                 0.6831                 0.8657
 IR Inten    --      2.5018                 2.4648                 3.3520

                     13                     14                     15
                      A                      A                      A
 Frequencies --    706.9072               745.6533               817.2391
 Red. masses --      2.0803                 4.5205                 3.1267
 Frc consts  --      0.6125                 1.4808                 1.2304
 IR Inten    --     28.9278                 6.9974                 7.4118

                     16                     17                     18
                      A                      A                      A
 Frequencies --    831.3307               861.6090               895.3229
 Red. masses --      2.1624                 2.1371                 2.7144
 Frc consts  --      0.8805                 0.9347                 1.2820
 IR Inten    --     19.1754                 1.4281                 6.6153

                     19                     20                     21
                      A                      A                      A
 Frequencies --    900.9810               913.1566               968.8470
 Red. masses --      1.4726                 3.1462                 2.6473
 Frc consts  --      0.7043                 1.5457                 1.4641
 IR Inten    --      3.2494                24.7823                13.2959

                     22                     23                     24
                      A                      A                      A
 Frequencies --   1030.7218              1056.5058              1062.3323
 Red. masses --      2.8053                 1.6711                 1.5822
 Frc consts  --      1.7559                 1.0990                 1.0521
 IR Inten    --     85.2469                 6.6112                 3.0785

                     25                     26                     27
                      A                      A                      A
 Frequencies --   1098.4331              1110.6521              1146.2116
 Red. masses --      2.6746                 1.8550                 1.7160
 Frc consts  --      1.9013                 1.3482                 1.3283
 IR Inten    --     22.2795                11.5994                 4.1684

                     28                     29                     30
                      A                      A                      A
 Frequencies --   1177.8877              1196.8611              1232.6306
 Red. masses --      1.2547                 1.5126                 1.6086
 Frc consts  --      1.0256                 1.2766                 1.4400
 IR Inten    --     14.3173                 8.8513                20.9007

                     31                     32                     33
                      A                      A                      A
 Frequencies --   1258.5119              1294.0822              1328.6296
 Red. masses --      1.5287                 1.6417                 2.6999
 Frc consts  --      1.4266                 1.6198                 2.8081
 IR Inten    --      1.3781                 4.9183                29.1346

                     34                     35                     36
                      A                      A                      A
 Frequencies --   1355.1659              1393.5070              1411.5025
 Red. masses --      1.2705                 1.4259                 1.3238
 Frc consts  --      1.3747                 1.6314                 1.5539
 IR Inten    --      7.5931                 7.8185                18.9645

                     37                     38                     39
                      A                      A                      A
 Frequencies --   1415.9056              1480.1004              1493.9945
 Red. masses --      1.4418                 1.0498                 1.0473
 Frc consts  --      1.7030                 1.3550                 1.3772
 IR Inten    --     28.1496                 2.8685                 3.7942

                     40                     41                     42
                      A                      A                      A
 Frequencies --   1508.2105              1619.1557              2970.6603
 Red. masses --      1.0781                 6.1790                 1.0717
 Frc consts  --      1.4448                 9.5444                 5.5725
 IR Inten    --      1.4839                 0.8782                58.4582

                     43                     44                     45
                      A                      A                      A
 Frequencies --   3040.7596              3044.1085              3109.3487
 Red. masses --      1.0410                 1.0790                 1.0956
 Frc consts  --      5.6713                 5.8909                 6.2407
 IR Inten    --     19.7450                33.5927                 0.7505

                     46                     47                     48
                      A                      A                      A
 Frequencies --   3110.0850              3121.1329              3147.3226
 Red. masses --      1.0961                 1.1011                 1.0917
 Frc consts  --      6.2467                 6.3199                 6.3712
 IR Inten    --     26.0473                15.2270                27.3315

                     49                     50                     51
                      A                      A                      A
 Frequencies --   3225.8503              3254.5699              3812.9226
 Red. masses --      1.0866                 1.1116                 1.0662
 Frc consts  --      6.6622                 6.9370                 9.1325
 IR Inten    --      2.9967                 7.6043                16.5105

 - Thermochemistry -
 -------------------
 Temperature   298.150 Kelvin.  Pressure   1.00000 Atm.
 Atom     1 has atomic number  6 and mass  12.00000

 Molecular mass:   126.06808 amu.
 Principal axes and moments of inertia in atomic units:
                           1         2         3
     Eigenvalues --   670.048261255.337801586.61851
           X            0.99992  -0.01202   0.00492
           Y            0.01202   0.99993  -0.00018
           Z           -0.00492   0.00023   0.99999
 This molecule is an asymmetric top.
 Rotational symmetry number  1.
 Warning -- assumption of classical behavior for rotation
           may cause significant error
 Rotational temperatures (Kelvin)      0.12927     0.06900     0.05459
 Rotational constants (GHZ):           2.69345     1.43765     1.13748
 Zero-point vibrational energy     415542.6 (Joules/Mol)
                                   99.31707 (Kcal/Mol)
 Warning -- explicit consideration of  10 degrees of freedom as
           vibrations may cause significant error
 Vibrational temperatures:    132.73   213.94   271.05   341.95   380.28
          (Kelvin)            439.50   488.30   593.12   725.36   807.70
                              897.36   930.68  1017.08  1072.83  1175.82
                             1196.10  1239.66  1288.17  1296.31  1313.83
                             1393.95  1482.98  1520.07  1528.46  1580.40
                             1597.98  1649.14  1694.72  1722.01  1773.48
                             1810.72  1861.89  1911.60  1949.78  2004.94
                             2030.83  2037.17  2129.53  2149.52  2169.98
                             2329.60  4274.11  4374.97  4379.79  4473.65
                             4474.71  4490.61  4528.29  4641.27  4682.59
                             5485.94

 Zero-point correction=                           0.158272 (Hartree/Particle)
 Thermal correction to Energy=                    0.166728
 Thermal correction to Enthalpy=                  0.167672
 Thermal correction to Gibbs Free Energy=         0.125430
 Sum of electronic and zero-point Energies=           -422.974420
 Sum of electronic and thermal Energies=              -422.965964
 Sum of electronic and thermal Enthalpies=            -422.965020
 Sum of electronic and thermal Free Energies=         -423.007262

                     E (Thermal)             CV                S
                      KCal/Mol        Cal/Mol-Kelvin    Cal/Mol-Kelvin
 Total                  104.623             32.964             88.906
 Electronic               0.000              0.000              0.000
 Translational            0.889              2.981             40.409
 Rotational               0.889              2.981             28.680
 Vibrational            102.846             27.003             19.817
 Vibration     1          0.602              1.955              3.612
 Vibration     2          0.618              1.904              2.689
 Vibration     3          0.633              1.856              2.244
 Vibration     4          0.656              1.783              1.820
 Vibration     5          0.671              1.738              1.633
 Vibration     6          0.696              1.663              1.387
 Vibration     7          0.719              1.597              1.215
 Vibration     8          0.776              1.444              0.919
 Vibration     9          0.859              1.241              0.648
 Vibration    10          0.917              1.115              0.521

 Normal termination of Gaussian 09 at Tue Jan 28 14:54:00 2020.
