 Gaussian 09, Revision D.01,
 Gaussian 09:  ES64L-G09RevD.01 24-Apr-2013

 -----------------------------
 # b3lyp 6-31G(2df,p) opt Freq
 -----------------------------

 -----
 titel
 -----
 Symbolic Z-matrix:
 Charge =  0 Multiplicity = 1

 SCF Done:  E(RB3LYP) =  -423.164814511     A.U. after   14 cycles
 Optimization completed.
    -- Stationary point found.
 Normal termination of Gaussian 09 at Mon Jan 27 16:19:02 2020.

 ----------------------------------------------------------------------
 #N Geom=AllCheck Guess=TCheck SCRF=Check GenChk RB3LYP/6-31G(2df,p) Fr
 eq
 ----------------------------------------------------------------------

 Structure from the checkpoint file:  "/scratch/puck/g09_bb28ebee-9767-4fba-becc-7cc86199a173/Gau-36453.chk"
 -----
 titel
 -----
 Charge =  0 Multiplicity = 1

                         Standard orientation:
 ---------------------------------------------------------------------
 Center     Atomic      Atomic             Coordinates (Angstroms)
 Number     Number       Type             X           Y           Z
 ---------------------------------------------------------------------
      1          6           0        1.170241   -1.075845    1.286444
      2          6           0        0.804325   -0.392182   -0.027688
      3          6           0        1.975949   -0.438167   -1.023227
      4          6           0       -0.544183   -0.759769   -0.744771
      5          6           0       -1.757489   -1.036550    0.152313
      6          8           0       -2.027582    0.378903    0.313955
      7          6           0       -1.015885    0.728955   -0.662171
      8          6           0        0.295483    1.070372    0.078317
      9          8           0        0.752848    2.064399    0.560740
     10          1           0        0.362757   -1.018558    2.020984
     11          1           0        1.415954   -2.131552    1.125833
     12          1           0        2.045692   -0.588055    1.726258
     13          1           0        1.723685    0.045558   -1.973099
     14          1           0        2.849159    0.073711   -0.608571
     15          1           0        2.250013   -1.476992   -1.237271
     16          1           0       -0.455453   -1.317549   -1.675308
     17          1           0       -2.586800   -1.531891   -0.367959
     18          1           0       -1.585546   -1.540223    1.109004
     19          1           0       -1.392234    1.358256   -1.472731
 ---------------------------------------------------------------------

 SCF Done:  E(RB3LYP) =  -423.164814511     A.U. after    1 cycles

 The electronic state is 1-A.
 Alpha  occ. eigenvalues --  -19.14987 -19.14266 -10.26637 -10.24321 -10.24107
 Alpha  occ. eigenvalues --  -10.21004 -10.20404 -10.19229 -10.18674  -1.05884
 Alpha  occ. eigenvalues --   -1.04285  -0.84716  -0.74457  -0.71863  -0.69852
 Alpha  occ. eigenvalues --   -0.61412  -0.58334  -0.51676  -0.49683  -0.48709
 Alpha  occ. eigenvalues --   -0.46928  -0.44933  -0.43243  -0.42430  -0.41535
 Alpha  occ. eigenvalues --   -0.39727  -0.38612  -0.37546  -0.35871  -0.34322
 Alpha  occ. eigenvalues --   -0.32405  -0.30116  -0.28091  -0.22952
 Alpha virt. eigenvalues --   -0.03226   0.07470   0.09137   0.10701   0.11195
 Alpha virt. eigenvalues --    0.11681   0.13262   0.14861   0.15675   0.16589
 Alpha virt. eigenvalues --    0.17155   0.17588   0.19039   0.19635   0.21291

 Mulliken charges:
               1
     1  C   -0.449970
     2  C    0.166363
     3  C   -0.433546
     4  C   -0.124010
     5  C   -0.095859
     6  O   -0.286748
     7  C   -0.019417
     8  C    0.392927
     9  O   -0.304484
    10  H    0.129901
    11  H    0.117020
    12  H    0.136073
    13  H    0.120701
    14  H    0.136171
    15  H    0.120944
    16  H    0.083328
    17  H    0.107530
    18  H    0.110365
    19  H    0.092710
 Sum of Mulliken charges =   0.00000

 Dipole moment (field-independent basis, Debye):
    X=              0.4427    Y=             -3.2219    Z=             -1.7453  Tot=              3.6909
 Quadrupole moment (field-independent basis, Debye-Ang):
   XX=            -54.9868   YY=            -57.1986   ZZ=            -51.8154
   XY=             -0.1864   XZ=              0.9579   YZ=             -3.0985

  Exact polarizability:  81.331   2.276  76.587   1.992  -0.864  67.955
 Approx polarizability: 112.040   5.566 119.598   2.194   3.916 101.346

                      1                      2                      3
                      A                      A                      A
 Frequencies --     62.5089               161.4702               182.6818
 Red. masses --      4.1631                 3.7441                 1.2200
 Frc consts  --      0.0096                 0.0575                 0.0240
 IR Inten    --      1.3367                 3.1828                 1.0606

                      4                      5                      6
                      A                      A                      A
 Frequencies --    215.2133               237.5701               263.9095
 Red. masses --      4.7790                 1.3627                 2.0913
 Frc consts  --      0.1304                 0.0453                 0.0858
 IR Inten    --      3.2418                 1.7603                 0.9397

                      7                      8                      9
                      A                      A                      A
 Frequencies --    277.3597               336.1743               414.6699
 Red. masses --      2.0932                 2.2006                 2.8674
 Frc consts  --      0.0949                 0.1465                 0.2905
 IR Inten    --      0.8233                 0.1758                 1.2249

                     10                     11                     12
                      A                      A                      A
 Frequencies --    485.6465               633.1922               656.1438
 Red. masses --      3.0547                 4.3481                 3.7370
 Frc consts  --      0.4245                 1.0271                 0.9479
 IR Inten    --      3.2572                 1.0591                 0.6589

                     13                     14                     15
                      A                      A                      A
 Frequencies --    753.3443               773.8248               815.6212
 Red. masses --      3.8315                 2.8864                 1.8759
 Frc consts  --      1.2812                 1.0183                 0.7353
 IR Inten    --      6.8276                 6.3159                 7.1520

                     16                     17                     18
                      A                      A                      A
 Frequencies --    891.8208               942.1442               960.6568
 Red. masses --      3.9596                 3.0752                 1.4525
 Frc consts  --      1.8555                 1.6083                 0.7898
 IR Inten    --      1.4784                43.4187                 0.0854

                     19                     20                     21
                      A                      A                      A
 Frequencies --    970.9074               996.4450              1010.4634
 Red. masses --      2.6828                 2.8970                 1.6670
 Frc consts  --      1.4900                 1.6948                 1.0028
 IR Inten    --     10.0438                28.0573                17.4054

                     22                     23                     24
                      A                      A                      A
 Frequencies --   1015.8294              1059.7317              1067.9665
 Red. masses --      1.5446                 4.0086                 2.3865
 Frc consts  --      0.9391                 2.6524                 1.6037
 IR Inten    --      2.3059                48.2468                 6.5047

                     25                     26                     27
                      A                      A                      A
 Frequencies --   1141.4319              1165.5404              1187.0199
 Red. masses --      1.7360                 1.5291                 1.6920
 Frc consts  --      1.3326                 1.2239                 1.4047
 IR Inten    --      2.2795                 0.7318                 2.0905

                     28                     29                     30
                      A                      A                      A
 Frequencies --   1193.9835              1227.7935              1261.8221
 Red. masses --      1.7723                 2.3262                 1.8897
 Frc consts  --      1.4886                 2.0660                 1.7727
 IR Inten    --      3.1191                 5.8654                 0.7680

                     31                     32                     33
                      A                      A                      A
 Frequencies --   1268.4993              1316.2929              1354.5337
 Red. masses --      1.6974                 1.8372                 1.4382
 Frc consts  --      1.6093                 1.8754                 1.5547
 IR Inten    --      1.2066                 2.8855                 1.0910

                     34                     35                     36
                      A                      A                      A
 Frequencies --   1396.0949              1418.0775              1480.4101
 Red. masses --      1.2171                 1.2097                 1.0460
 Frc consts  --      1.3976                 1.4333                 1.3507
 IR Inten    --      3.1084                 1.7950                 1.7853

                     37                     38                     39
                      A                      A                      A
 Frequencies --   1485.2234              1499.9049              1504.8904
 Red. masses --      1.0485                 1.0620                 1.0567
 Frc consts  --      1.3627                 1.4077                 1.4100
 IR Inten    --      3.0849                 3.5554                 5.4633

                     40                     41                     42
                      A                      A                      A
 Frequencies --   1529.6173              1888.8356              3021.5980
 Red. masses --      1.0889                12.5439                 1.0600
 Frc consts  --      1.5011                26.3676                 5.7020
 IR Inten    --      3.6843               218.3016                65.4451

                     43                     44                     45
                      A                      A                      A
 Frequencies --   3027.9289              3034.4812              3075.8383
 Red. masses --      1.0346                 1.0375                 1.1046
 Frc consts  --      5.5889                 5.6286                 6.1570
 IR Inten    --     20.9026                20.8915                41.4707

                     46                     47                     48
                      A                      A                      A
 Frequencies --   3080.7653              3095.2575              3102.0995
 Red. masses --      1.0892                 1.1015                 1.1000
 Frc consts  --      6.0907                 6.2179                 6.2370
 IR Inten    --     25.4958                24.1629                11.8408

                     49                     50                     51
                      A                      A                      A
 Frequencies --   3112.5834              3116.4452              3129.5663
 Red. masses --      1.1012                 1.1005                 1.0906
 Frc consts  --      6.2860                 6.2972                 6.2931
 IR Inten    --     12.9379                22.1887                26.1865

 - Thermochemistry -
 -------------------
 Temperature   298.150 Kelvin.  Pressure   1.00000 Atm.
 Atom     1 has atomic number  6 and mass  12.00000

 Molecular mass:   126.06808 amu.
 Principal axes and moments of inertia in atomic units:
                           1         2         3
     Eigenvalues --   772.459121091.184911352.03974
           X            0.99951  -0.03118   0.00045
           Y            0.03115   0.99753  -0.06289
           Z            0.00152   0.06288   0.99802
 This molecule is an asymmetric top.
 Rotational symmetry number  1.
 Warning -- assumption of classical behavior for rotation
           may cause significant error
 Rotational temperatures (Kelvin)      0.11213     0.07938     0.06406
 Rotational constants (GHZ):           2.33636     1.65393     1.33483
 Zero-point vibrational energy     414517.0 (Joules/Mol)
                                   99.07194 (Kcal/Mol)
 Warning -- explicit consideration of  10 degrees of freedom as
           vibrations may cause significant error
 Vibrational temperatures:     89.94   232.32   262.84   309.64   341.81
          (Kelvin)            379.71   399.06   483.68   596.62   698.74
                              911.02   944.04  1083.89  1113.36  1173.50
                             1283.13  1355.53  1382.17  1396.92  1433.66
                             1453.83  1461.55  1524.72  1536.56  1642.26
                             1676.95  1707.85  1717.87  1766.52  1815.48
                             1825.09  1893.85  1948.87  2008.67  2040.29
                             2129.98  2136.90  2158.03  2165.20  2200.78
                             2717.61  4347.40  4356.51  4365.94  4425.44
                             4432.53  4453.38  4463.22  4478.31  4483.86
                             4502.74

 Zero-point correction=                           0.157881 (Hartree/Particle)
 Thermal correction to Energy=                    0.166653
 Thermal correction to Enthalpy=                  0.167598
 Thermal correction to Gibbs Free Energy=         0.124485
 Sum of electronic and zero-point Energies=           -423.006933
 Sum of electronic and thermal Energies=              -422.998161
 Sum of electronic and thermal Enthalpies=            -422.997217
 Sum of electronic and thermal Free Energies=         -423.040330

                     E (Thermal)             CV                S
                      KCal/Mol        Cal/Mol-Kelvin    Cal/Mol-Kelvin
 Total                  104.577             32.797             90.739
 Electronic               0.000              0.000              0.000
 Translational            0.889              2.981             40.409
 Rotational               0.889              2.981             28.523
 Vibrational            102.799             26.835             21.806
 Vibration     1          0.597              1.972              4.376
 Vibration     2          0.622              1.890              2.533
 Vibration     3          0.630              1.863              2.301
 Vibration     4          0.645              1.818              1.999
 Vibration     5          0.656              1.783              1.821
 Vibration     6          0.670              1.739              1.636
 Vibration     7          0.678              1.715              1.550
 Vibration     8          0.717              1.603              1.230
 Vibration     9          0.778              1.438              0.910
 Vibration    10          0.842              1.282              0.695

 Normal termination of Gaussian 09 at Mon Jan 27 17:21:01 2020.
