 Gaussian 09, Revision D.01,
 Gaussian 09:  ES64L-G09RevD.01 24-Apr-2013

 -----------------------------
 # b3lyp 6-31G(2df,p) opt Freq
 -----------------------------

 -----
 titel
 -----
 Symbolic Z-matrix:
 Charge =  0 Multiplicity = 1

 SCF Done:  E(RB3LYP) =  -423.224256879     A.U. after   14 cycles
 Optimization completed.
    -- Stationary point found.
 Normal termination of Gaussian 09 at Mon Jan 27 22:03:57 2020.

 ----------------------------------------------------------------------
 #N Geom=AllCheck Guess=TCheck SCRF=Check GenChk RB3LYP/6-31G(2df,p) Fr
 eq
 ----------------------------------------------------------------------

 Structure from the checkpoint file:  "/scratch/puck/g09_1a8af9c1-ac59-48e6-bc73-7a4754a805e4/Gau-192782.chk"
 -----
 titel
 -----
 Charge =  0 Multiplicity = 1

                         Standard orientation:
 ---------------------------------------------------------------------
 Center     Atomic      Atomic             Coordinates (Angstroms)
 Number     Number       Type             X           Y           Z
 ---------------------------------------------------------------------
      1          6           0        2.510677    0.083565   -0.287774
      2          6           0        1.081001    0.458303   -0.070539
      3          6           0        0.566937    1.687973    0.045849
      4          6           0       -0.933255    1.706334    0.207755
      5          6           0       -1.280373    0.246333   -0.071312
      6          8           0       -2.336821   -0.209918   -0.428108
      7          6           0        0.002184   -0.602186    0.053488
      8          6           0        0.024751   -1.330447    1.411066
      9          8           0        0.067322   -1.543910   -1.005086
     10          1           0        2.606125   -0.529475   -1.190638
     11          1           0        3.144107    0.968201   -0.394597
     12          1           0        2.899754   -0.517463    0.543300
     13          1           0        1.155219    2.599027    0.018306
     14          1           0       -1.260335    1.986001    1.219690
     15          1           0       -1.462184    2.371608   -0.483948
     16          1           0        0.935359   -1.930472    1.490288
     17          1           0       -0.006981   -0.629093    2.251084
     18          1           0       -0.837673   -2.000839    1.480987
     19          1           0       -0.848931   -1.786122   -1.200118
 ---------------------------------------------------------------------

 SCF Done:  E(RB3LYP) =  -423.224256879     A.U. after    1 cycles

 The electronic state is 1-A.
 Alpha  occ. eigenvalues --  -19.14615 -19.13614 -10.27374 -10.24289 -10.20066
 Alpha  occ. eigenvalues --  -10.19519 -10.18987 -10.18462 -10.18323  -1.05961
 Alpha  occ. eigenvalues --   -1.01696  -0.85125  -0.75342  -0.74199  -0.66308
 Alpha  occ. eigenvalues --   -0.64748  -0.56260  -0.53113  -0.48813  -0.47179
 Alpha  occ. eigenvalues --   -0.45318  -0.44279  -0.43077  -0.41586  -0.41103
 Alpha  occ. eigenvalues --   -0.40019  -0.39509  -0.36817  -0.36681  -0.35766
 Alpha  occ. eigenvalues --   -0.34337  -0.27577  -0.25130  -0.24592
 Alpha virt. eigenvalues --   -0.02559   0.01308   0.08455   0.11158   0.11360
 Alpha virt. eigenvalues --    0.13151   0.15078   0.15730   0.16494   0.17067
 Alpha virt. eigenvalues --    0.17965   0.18617   0.20188   0.21145   0.22631

 Mulliken charges:
               1
     1  C   -0.497422
     2  C    0.309578
     3  C   -0.190194
     4  C   -0.376593
     5  C    0.356582
     6  O   -0.328573
     7  C    0.201260
     8  C   -0.430631
     9  O   -0.477557
    10  H    0.150962
    11  H    0.121683
    12  H    0.128591
    13  H    0.096928
    14  H    0.136035
    15  H    0.136461
    16  H    0.129995
    17  H    0.116926
    18  H    0.126730
    19  H    0.289239
 Sum of Mulliken charges =   0.00000

 Dipole moment (field-independent basis, Debye):
    X=              1.3075    Y=              1.3032    Z=              1.3372  Tot=              2.2795
 Quadrupole moment (field-independent basis, Debye-Ang):
   XX=            -56.9687   YY=            -50.6589   ZZ=            -53.2768
   XY=              0.3358   XZ=             -0.5213   YZ=             -0.7721

  Exact polarizability:  85.739  -3.678  86.151   0.105   1.393  60.185
 Approx polarizability: 123.485  -6.924 130.973   2.171   7.123  91.905

                      1                      2                      3
                      A                      A                      A
 Frequencies --     57.2740               170.8167               190.4071
 Red. masses --      4.4860                 1.3715                 1.7301
 Frc consts  --      0.0087                 0.0236                 0.0370
 IR Inten    --      1.3207                 2.3425                 3.7486

                      4                      5                      6
                      A                      A                      A
 Frequencies --    222.6393               235.6888               253.2220
 Red. masses --      2.6051                 1.3834                 1.9666
 Frc consts  --      0.0761                 0.0453                 0.0743
 IR Inten    --      0.8283                 1.0291                 3.0727

                      7                      8                      9
                      A                      A                      A
 Frequencies --    260.2930               299.8596               355.4618
 Red. masses --      2.1286                 3.9648                 1.4068
 Frc consts  --      0.0850                 0.2100                 0.1047
 IR Inten    --      3.0597                16.1415                74.3106

                     10                     11                     12
                      A                      A                      A
 Frequencies --    391.9748               512.4711               548.9616
 Red. masses --      2.4378                 3.4976                 3.1356
 Frc consts  --      0.2207                 0.5412                 0.5567
 IR Inten    --      2.3533                 5.0295                 5.1177

                     13                     14                     15
                      A                      A                      A
 Frequencies --    573.3502               632.9283               677.6539
 Red. masses --      3.4630                 3.1838                 4.3351
 Frc consts  --      0.6707                 0.7515                 1.1729
 IR Inten    --      0.3498                 1.5489                 3.7482

                     16                     17                     18
                      A                      A                      A
 Frequencies --    697.8077               822.6562               837.2517
 Red. masses --      5.4208                 1.2806                 1.9536
 Frc consts  --      1.5552                 0.5106                 0.8068
 IR Inten    --      3.1705                14.0464                 5.3248

                     19                     20                     21
                      A                      A                      A
 Frequencies --    940.7382               962.7734               972.0967
 Red. masses --      2.0570                 1.7536                 2.4156
 Frc consts  --      1.0726                 0.9577                 1.3449
 IR Inten    --      4.1834                 4.0225                11.8543

                     22                     23                     24
                      A                      A                      A
 Frequencies --   1034.4288              1060.6156              1063.8389
 Red. masses --      1.5723                 1.8000                 2.5897
 Frc consts  --      0.9912                 1.1930                 1.7269
 IR Inten    --      4.2695                20.4755                39.3059

                     25                     26                     27
                      A                      A                      A
 Frequencies --   1084.4291              1112.7558              1160.6193
 Red. masses --      2.1028                 2.0101                 1.5334
 Frc consts  --      1.4569                 1.4665                 1.2170
 IR Inten    --      9.1255                67.5941                21.9036

                     28                     29                     30
                      A                      A                      A
 Frequencies --   1213.0242              1233.0319              1286.9148
 Red. masses --      2.3850                 2.9800                 1.8333
 Frc consts  --      2.0676                 2.6695                 1.7889
 IR Inten    --     43.9933                 7.6706                13.9595

                     31                     32                     33
                      A                      A                      A
 Frequencies --   1326.2392              1388.8463              1402.9122
 Red. masses --      1.8030                 1.2847                 1.5031
 Frc consts  --      1.8685                 1.4600                 1.7430
 IR Inten    --     16.3903                15.6007                11.5475

                     34                     35                     36
                      A                      A                      A
 Frequencies --   1411.7952              1452.9707              1474.4731
 Red. masses --      1.4209                 1.0892                 1.0456
 Frc consts  --      1.6686                 1.3548                 1.3394
 IR Inten    --      2.8208                 4.7877                 9.0297

                     37                     38                     39
                      A                      A                      A
 Frequencies --   1487.2524              1489.1529              1491.7344
 Red. masses --      1.0668                 1.0614                 1.0833
 Frc consts  --      1.3903                 1.3868                 1.4203
 IR Inten    --      4.3916                 8.8654                 0.8624

                     40                     41                     42
                      A                      A                      A
 Frequencies --   1711.1299              1846.8407              3011.2600
 Red. masses --      7.2533                12.5529                 1.0675
 Frc consts  --     12.5128                25.2263                 5.7030
 IR Inten    --      3.7811               177.8931                16.1462

                     43                     44                     45
                      A                      A                      A
 Frequencies --   3027.1803              3034.7008              3065.3858
 Red. masses --      1.0379                 1.0337                 1.0922
 Frc consts  --      5.6036                 5.6088                 6.0468
 IR Inten    --     19.0649                14.9091                11.6827

                     46                     47                     48
                      A                      A                      A
 Frequencies --   3082.2892              3109.9722              3116.2402
 Red. masses --      1.0961                 1.1022                 1.1015
 Frc consts  --      6.1352                 6.2807                 6.3025
 IR Inten    --     12.6154                18.6933                18.5544

                     49                     50                     51
                      A                      A                      A
 Frequencies --   3119.5162              3187.3384              3744.2218
 Red. masses --      1.1021                 1.0932                 1.0655
 Frc consts  --      6.3192                 6.5434                 8.8007
 IR Inten    --     12.7385                13.2131                36.9482

 - Thermochemistry -
 -------------------
 Temperature   298.150 Kelvin.  Pressure   1.00000 Atm.
 Atom     1 has atomic number  6 and mass  12.00000

 Molecular mass:   126.06808 amu.
 Principal axes and moments of inertia in atomic units:
                           1         2         3
     Eigenvalues --   804.836371080.402501463.60630
           X            0.99975  -0.01881  -0.01173
           Y            0.01839   0.99922  -0.03499
           Z            0.01238   0.03477   0.99932
 This molecule is an asymmetric top.
 Rotational symmetry number  1.
 Warning -- assumption of classical behavior for rotation
           may cause significant error
 Rotational temperatures (Kelvin)      0.10762     0.08017     0.05918
 Rotational constants (GHZ):           2.24237     1.67043     1.23308
 Zero-point vibrational energy     411799.1 (Joules/Mol)
                                   98.42235 (Kcal/Mol)
 Warning -- explicit consideration of  13 degrees of freedom as
           vibrations may cause significant error
 Vibrational temperatures:     82.40   245.77   273.95   320.33   339.10
          (Kelvin)            364.33   374.50   431.43   511.43   563.96
                              737.33   789.83   824.92   910.64   974.99
                             1003.99  1183.62  1204.62  1353.51  1385.21
                             1398.63  1488.31  1525.99  1530.62  1560.25
                             1601.01  1669.87  1745.27  1774.06  1851.58
                             1908.16  1998.24  2018.48  2031.26  2090.50
                             2121.44  2139.82  2142.56  2146.27  2461.93
                             2657.19  4332.53  4355.43  4366.25  4410.40
                             4434.72  4474.55  4483.57  4488.28  4585.86
                             5387.09

 Zero-point correction=                           0.156846 (Hartree/Particle)
 Thermal correction to Energy=                    0.166256
 Thermal correction to Enthalpy=                  0.167200
 Thermal correction to Gibbs Free Energy=         0.123012
 Sum of electronic and zero-point Energies=           -423.067411
 Sum of electronic and thermal Energies=              -423.058001
 Sum of electronic and thermal Enthalpies=            -423.057057
 Sum of electronic and thermal Free Energies=         -423.101244

                     E (Thermal)             CV                S
                      KCal/Mol        Cal/Mol-Kelvin    Cal/Mol-Kelvin
 Total                  104.327             35.304             93.000
 Electronic               0.000              0.000              0.000
 Translational            0.889              2.981             40.409
 Rotational               0.889              2.981             28.633
 Vibrational            102.550             29.342             23.959
 Vibration     1          0.596              1.975              4.549
 Vibration     2          0.626              1.878              2.426
 Vibration     3          0.634              1.853              2.224
 Vibration     4          0.648              1.807              1.938
 Vibration     5          0.655              1.786              1.835
 Vibration     6          0.664              1.757              1.708
 Vibration     7          0.668              1.745              1.660
 Vibration     8          0.692              1.674              1.418
 Vibration     9          0.731              1.564              1.142
 Vibration    10          0.759              1.487              0.993
 Vibration    11          0.868              1.222              0.628
 Vibration    12          0.904              1.142              0.546
 Vibration    13          0.930              1.089              0.498

 Optimization completed.
    -- Stationary point found.
 Normal termination of Gaussian 09 at Mon Jan 27 22:51:14 2020.
