 Gaussian 09, Revision D.01,
 Gaussian 09:  ES64L-G09RevD.01 24-Apr-2013

 -----------------------------
 # b3lyp 6-31G(2df,p) opt Freq
 -----------------------------

 -----
 titel
 -----
 Symbolic Z-matrix:
 Charge =  0 Multiplicity = 1

 SCF Done:  E(RB3LYP) =  -423.081425134     A.U. after   14 cycles
 SCF Done:  E(RB3LYP) =  -423.081425471     A.U. after    7 cycles
 SCF Done:  E(RB3LYP) =  -423.081425699     A.U. after    7 cycles
 Optimization completed.
    -- Stationary point found.
 Normal termination of Gaussian 09 at Mon Jan 27 16:15:25 2020.

 ----------------------------------------------------------------------
 #N Geom=AllCheck Guess=TCheck SCRF=Check GenChk RB3LYP/6-31G(2df,p) Fr
 eq
 ----------------------------------------------------------------------

 Structure from the checkpoint file:  "/scratch/puck/g09_680ec0ea-0e05-43a8-ac03-14f6d7ce88dc/Gau-162607.chk"
 -----
 titel
 -----
 Charge =  0 Multiplicity = 1

                         Standard orientation:
 ---------------------------------------------------------------------
 Center     Atomic      Atomic             Coordinates (Angstroms)
 Number     Number       Type             X           Y           Z
 ---------------------------------------------------------------------
      1          6           0       -2.518737   -0.305120    0.000009
      2          6           0       -1.103797    0.266212   -0.000019
      3          6           0       -1.129821    1.792616   -0.000010
      4          6           0       -0.074689   -0.497045   -0.908980
      5          8           0       -0.185199   -1.666510    0.000016
      6          6           0       -0.074687   -0.497003    0.908969
      7          6           0        1.065054   -0.011996   -0.000012
      8          6           0        2.148806    0.959895   -0.000002
      9          8           0        2.382557   -0.467372    0.000011
     10          1           0       -3.069194    0.041106   -0.881983
     11          1           0       -2.505100   -1.394538    0.000154
     12          1           0       -3.069255    0.041347    0.881869
     13          1           0       -1.667429    2.159842    0.881239
     14          1           0       -0.137867    2.245976   -0.000409
     15          1           0       -1.668128    2.159850   -0.880826
     16          1           0       -0.091211   -0.688199   -1.982431
     17          1           0       -0.091218   -0.688107    1.982429
     18          1           0        2.423903    1.474205   -0.919814
     19          1           0        2.423864    1.474219    0.919815
 ---------------------------------------------------------------------

 SCF Done:  E(RB3LYP) =  -423.081425699     A.U. after    1 cycles

 The electronic state is 1-A.
 Alpha  occ. eigenvalues --  -19.15730 -19.13730 -10.25268 -10.24774 -10.24771
 Alpha  occ. eigenvalues --  -10.24073 -10.21240 -10.18367 -10.17368  -1.08893
 Alpha  occ. eigenvalues --   -1.05058  -0.81184  -0.73322  -0.68893  -0.66930
 Alpha  occ. eigenvalues --   -0.66073  -0.59626  -0.52635  -0.51961  -0.49142
 Alpha  occ. eigenvalues --   -0.46795  -0.44492  -0.43430  -0.41688  -0.39528
 Alpha  occ. eigenvalues --   -0.38485  -0.37559  -0.35764  -0.34837  -0.33854
 Alpha  occ. eigenvalues --   -0.30761  -0.30079  -0.26490  -0.24365
 Alpha virt. eigenvalues --    0.07020   0.08027   0.10090   0.11704   0.11825
 Alpha virt. eigenvalues --    0.12603   0.12699   0.13405   0.14845   0.16531
 Alpha virt. eigenvalues --    0.16955   0.17276   0.18965   0.20415   0.20647

 Mulliken charges:
               1
     1  C   -0.462087
     2  C    0.345878
     3  C   -0.479706
     4  C   -0.121870
     5  O   -0.310395
     6  C   -0.121865
     7  C    0.567062
     8  C   -0.312656
     9  O   -0.281300
    10  H    0.112468
    11  H    0.143295
    12  H    0.112465
    13  H    0.122372
    14  H    0.123228
    15  H    0.122369
    16  H    0.097304
    17  H    0.097305
    18  H    0.123065
    19  H    0.123066
 Sum of Mulliken charges =   0.00000

 Dipole moment (field-independent basis, Debye):
    X=             -1.1505    Y=              3.0465    Z=              0.0000  Tot=              3.2565
 Quadrupole moment (field-independent basis, Debye-Ang):
   XX=            -56.1449   YY=            -56.7418   ZZ=            -49.0889
   XY=              3.5576   XZ=             -0.0001   YZ=              0.0002

  Exact polarizability:  86.432   4.103  72.723   0.000   0.000  68.252
 Approx polarizability: 113.454   3.078 113.975   0.000   0.000 107.712

                      1                      2                      3
                      A                      A                      A
 Frequencies --    163.7383               171.9197               180.7148
 Red. masses --      1.2406                 4.1922                 1.8074
 Frc consts  --      0.0196                 0.0730                 0.0348
 IR Inten    --      0.2622                 0.4600                 0.5141

                      4                      5                      6
                      A                      A                      A
 Frequencies --    224.9095               275.4607               343.9425
 Red. masses --      1.1937                 2.5684                 2.5756
 Frc consts  --      0.0356                 0.1148                 0.1795
 IR Inten    --      0.6309                 1.4560                 0.4729

                      7                      8                      9
                      A                      A                      A
 Frequencies --    344.8553               375.2470               431.5019
 Red. masses --      4.2234                 2.5545                 2.4326
 Frc consts  --      0.2959                 0.2119                 0.2669
 IR Inten    --      0.0259                 1.6329                 1.0157

                     10                     11                     12
                      A                      A                      A
 Frequencies --    480.6327               601.3849               640.0641
 Red. masses --      5.4466                 4.4094                 4.0785
 Frc consts  --      0.7413                 0.9396                 0.9845
 IR Inten    --      2.6810                13.7173                 6.5027

                     13                     14                     15
                      A                      A                      A
 Frequencies --    738.7772               742.9717               774.4048
 Red. masses --      3.0970                 2.9574                 3.8411
 Frc consts  --      0.9959                 0.9619                 1.3572
 IR Inten    --      1.0485                18.7460                14.4513

                     16                     17                     18
                      A                      A                      A
 Frequencies --    862.3744               866.4312               889.4487
 Red. masses --      1.9762                 3.5328                 4.3108
 Frc consts  --      0.8659                 1.5626                 2.0093
 IR Inten    --      3.2079                16.3643                28.8509

                     19                     20                     21
                      A                      A                      A
 Frequencies --    949.0891               960.2581              1010.6389
 Red. masses --      1.3909                 2.0821                 1.2534
 Frc consts  --      0.7382                 1.1312                 0.7543
 IR Inten    --      0.4891                15.4237                 0.1499

                     22                     23                     24
                      A                      A                      A
 Frequencies --   1014.1670              1087.3170              1112.4538
 Red. masses --      5.7177                 1.5127                 1.4409
 Frc consts  --      3.4649                 1.0537                 1.0506
 IR Inten    --     52.6771                 0.1546                 0.1446

                     25                     26                     27
                      A                      A                      A
 Frequencies --   1116.2915              1123.8291              1133.7558
 Red. masses --      1.4920                 3.8152                 1.6182
 Frc consts  --      1.0954                 2.8390                 1.2255
 IR Inten    --      1.5351                 9.4097                 4.8815

                     28                     29                     30
                      A                      A                      A
 Frequencies --   1142.1209              1190.8668              1191.2795
 Red. masses --      1.3283                 1.5813                 2.3031
 Frc consts  --      1.0209                 1.3213                 1.9257
 IR Inten    --      2.3977                 2.3580                 0.1307

                     31                     32                     33
                      A                      A                      A
 Frequencies --   1235.5443              1254.0986              1314.0998
 Red. masses --      1.8503                 2.6032                 2.7706
 Frc consts  --      1.6642                 2.4123                 2.8189
 IR Inten    --     14.4703                 8.4439                 6.4472

                     34                     35                     36
                      A                      A                      A
 Frequencies --   1394.0387              1416.4938              1460.8154
 Red. masses --      1.2801                 1.2306                 1.5595
 Frc consts  --      1.4657                 1.4548                 1.9608
 IR Inten    --      9.0882                 4.1022                24.1478

                     37                     38                     39
                      A                      A                      A
 Frequencies --   1484.2197              1489.4021              1503.5684
 Red. masses --      1.0525                 1.0449                 1.0678
 Frc consts  --      1.3660                 1.3657                 1.4223
 IR Inten    --      3.8282                 0.1590                 0.0857

                     40                     41                     42
                      A                      A                      A
 Frequencies --   1514.2624              1556.9373              3032.3090
 Red. masses --      1.0482                 2.4311                 1.0396
 Frc consts  --      1.4162                 3.4721                 5.6320
 IR Inten    --      8.7785                23.0442                16.0217

                     43                     44                     45
                      A                      A                      A
 Frequencies --   3038.5952              3083.2265              3086.0136
 Red. masses --      1.0395                 1.0508                 1.1006
 Frc consts  --      5.6550                 5.8853                 6.1755
 IR Inten    --     40.7010                18.5084                 6.4420

                     46                     47                     48
                      A                      A                      A
 Frequencies --   3092.6526              3117.6983              3122.9562
 Red. masses --      1.0999                 1.0903                 1.0958
 Frc consts  --      6.1983                 6.2438                 6.2965
 IR Inten    --     31.8693                64.6472                 1.7682

                     49                     50                     51
                      A                      A                      A
 Frequencies --   3136.9578              3153.5970              3168.9631
 Red. masses --      1.0966                 1.0967                 1.1189
 Frc consts  --      6.3581                 6.4261                 6.6204
 IR Inten    --     21.3599                 6.6370                17.5151

 - Thermochemistry -
 -------------------
 Temperature   298.150 Kelvin.  Pressure   1.00000 Atm.
 Atom     1 has atomic number  6 and mass  12.00000

 Molecular mass:   126.06808 amu.
 Principal axes and moments of inertia in atomic units:
                           1         2         3
     Eigenvalues --   569.254571219.719491556.21997
           X            0.99990   0.01414   0.00000
           Y           -0.01414   0.99990   0.00000
           Z            0.00000   0.00000   1.00000
 This molecule is an asymmetric top.
 Rotational symmetry number  1.
 Warning -- assumption of classical behavior for rotation
           may cause significant error
 Rotational temperatures (Kelvin)      0.15215     0.07101     0.05566
 Rotational constants (GHZ):           3.17036     1.47964     1.15970
 Zero-point vibrational energy     411499.2 (Joules/Mol)
                                   98.35067 (Kcal/Mol)
 Warning -- explicit consideration of  11 degrees of freedom as
           vibrations may cause significant error
 Vibrational temperatures:    235.58   247.35   260.01   323.59   396.33
          (Kelvin)            494.86   496.17   539.90   620.83   691.52
                              865.26   920.91  1062.93  1068.97  1114.19
                             1240.76  1246.60  1279.72  1365.53  1381.60
                             1454.08  1459.16  1564.40  1600.57  1606.09
                             1616.94  1631.22  1643.26  1713.39  1713.98
                             1777.67  1804.37  1890.69  2005.71  2038.02
                             2101.78  2135.46  2142.91  2163.30  2178.68
                             2240.08  4362.81  4371.86  4436.07  4440.08
                             4449.63  4485.67  4493.23  4513.38  4537.32
                             4559.43

 Zero-point correction=                           0.156732 (Hartree/Particle)
 Thermal correction to Energy=                    0.165117
 Thermal correction to Enthalpy=                  0.166062
 Thermal correction to Gibbs Free Energy=         0.124396
 Sum of electronic and zero-point Energies=           -422.924694
 Sum of electronic and thermal Energies=              -422.916308
 Sum of electronic and thermal Enthalpies=            -422.915364
 Sum of electronic and thermal Free Energies=         -422.957030

                     E (Thermal)             CV                S
                      KCal/Mol        Cal/Mol-Kelvin    Cal/Mol-Kelvin
 Total                  103.613             33.045             87.693
 Electronic               0.000              0.000              0.000
 Translational            0.889              2.981             40.409
 Rotational               0.889              2.981             28.471
 Vibrational            101.835             27.084             18.813
 Vibration     1          0.623              1.887              2.506
 Vibration     2          0.626              1.877              2.414
 Vibration     3          0.630              1.866              2.321
 Vibration     4          0.650              1.803              1.919
 Vibration     5          0.677              1.719              1.562
 Vibration     6          0.723              1.588              1.194
 Vibration     7          0.723              1.586              1.190
 Vibration     8          0.746              1.523              1.058
 Vibration     9          0.793              1.402              0.854
 Vibration    10          0.837              1.293              0.708
 Vibration    11          0.960              1.029              0.447

 Optimization completed.
    -- Stationary point found.
 Normal termination of Gaussian 09 at Mon Jan 27 17:02:09 2020.
