 Gaussian 09, Revision D.01,
 Gaussian 09:  ES64L-G09RevD.01 24-Apr-2013

 -----------------------------
 # b3lyp 6-31G(2df,p) opt Freq
 -----------------------------

 -----
 titel
 -----
 Symbolic Z-matrix:
 Charge =  0 Multiplicity = 1

 SCF Done:  E(RB3LYP) =  -423.209621547     A.U. after   14 cycles
 Optimization completed.
    -- Stationary point found.
 Normal termination of Gaussian 09 at Tue Jan 28 00:03:01 2020.

 ----------------------------------------------------------------------
 #N Geom=AllCheck Guess=TCheck SCRF=Check GenChk RB3LYP/6-31G(2df,p) Fr
 eq
 ----------------------------------------------------------------------

 Structure from the checkpoint file:  "/scratch/puck/g09_3187b142-297c-4ba1-a5bd-0afeead377a2/Gau-56386.chk"
 -----
 titel
 -----
 Charge =  0 Multiplicity = 1

                         Standard orientation:
 ---------------------------------------------------------------------
 Center     Atomic      Atomic             Coordinates (Angstroms)
 Number     Number       Type             X           Y           Z
 ---------------------------------------------------------------------
      1          6           0       -1.959254   -1.121568   -0.491104
      2          6           0       -0.626808   -0.479204   -0.196993
      3          6           0        0.534449   -1.316025    0.348975
      4          8           0        1.371346   -0.884339    1.380583
      5          6           0        0.672213   -0.684841   -0.988560
      6          6           0        1.430614    0.643854   -1.059180
      7          6           0        0.735085    1.592163   -0.062737
      8          6           0       -0.625468    0.959320    0.238775
      9          8           0       -1.580847    1.529411    0.709803
     10          1           0       -2.634558   -0.995588    0.360625
     11          1           0       -2.440189   -0.659561   -1.359757
     12          1           0       -1.851624   -2.191106   -0.695331
     13          1           0        0.323499   -2.386106    0.361020
     14          1           0        0.899168   -0.982857    2.214583
     15          1           0        0.687134   -1.330447   -1.860474
     16          1           0        2.492854    0.511234   -0.836788
     17          1           0        1.356440    1.038654   -2.077095
     18          1           0        1.285702    1.667224    0.879540
     19          1           0        0.592595    2.605780   -0.444471
 ---------------------------------------------------------------------

 SCF Done:  E(RB3LYP) =  -423.209621547     A.U. after    1 cycles

 The electronic state is 1-A.
 Alpha  occ. eigenvalues --  -19.15749 -19.12033 -10.25927 -10.24899 -10.20114
 Alpha  occ. eigenvalues --  -10.19970 -10.19148 -10.18270 -10.18183  -1.04330
 Alpha  occ. eigenvalues --   -1.03034  -0.88301  -0.77157  -0.72079  -0.66963
 Alpha  occ. eigenvalues --   -0.61961  -0.57176  -0.53822  -0.50964  -0.46936
 Alpha  occ. eigenvalues --   -0.46302  -0.43861  -0.42479  -0.41580  -0.40354
 Alpha  occ. eigenvalues --   -0.38662  -0.38374  -0.37079  -0.35348  -0.33984
 Alpha  occ. eigenvalues --   -0.32485  -0.28973  -0.25760  -0.23492
 Alpha virt. eigenvalues --   -0.00898   0.06640   0.09339   0.11259   0.11922
 Alpha virt. eigenvalues --    0.13310   0.15347   0.15580   0.15860   0.16993
 Alpha virt. eigenvalues --    0.17388   0.20264   0.20830   0.22067   0.22429

 Mulliken charges:
               1
     1  C   -0.481103
     2  C    0.143468
     3  C    0.056705
     4  O   -0.413403
     5  C   -0.132622
     6  C   -0.227169
     7  C   -0.321500
     8  C    0.368532
     9  O   -0.337119
    10  H    0.138153
    11  H    0.126114
    12  H    0.110786
    13  H    0.094309
    14  H    0.294827
    15  H    0.093709
    16  H    0.117287
    17  H    0.107684
    18  H    0.138190
    19  H    0.123153
 Sum of Mulliken charges =   0.00000

 Dipole moment (field-independent basis, Debye):
    X=              1.1258    Y=             -1.9580    Z=             -0.6638  Tot=              2.3541
 Quadrupole moment (field-independent basis, Debye-Ang):
   XX=            -59.0736   YY=            -53.1971   ZZ=            -48.6881
   XY=              5.5273   XZ=              0.9214   YZ=             -2.9340

  Exact polarizability:  79.721   0.975  77.893  -2.785   1.157  68.398
 Approx polarizability: 118.918  -8.026 111.713  -6.480   3.602 104.623

                      1                      2                      3
                      A                      A                      A
 Frequencies --     89.7486               135.5255               176.5603
 Red. masses --      4.4994                 1.0468                 1.9896
 Frc consts  --      0.0214                 0.0113                 0.0365
 IR Inten    --      6.2306                 0.6884                 0.8022

                      4                      5                      6
                      A                      A                      A
 Frequencies --    223.6339               234.2394               264.7860
 Red. masses --      4.1064                 2.8264                 3.0605
 Frc consts  --      0.1210                 0.0914                 0.1264
 IR Inten    --      4.8038                 0.7338                 1.7956

                      7                      8                      9
                      A                      A                      A
 Frequencies --    337.3220               390.2839               469.5527
 Red. masses --      1.1254                 3.6007                 4.0838
 Frc consts  --      0.0754                 0.3231                 0.5305
 IR Inten    --    114.0435                 7.5185                 4.8813

                     10                     11                     12
                      A                      A                      A
 Frequencies --    527.2868               560.5893               638.6297
 Red. masses --      2.8723                 4.4904                 2.8019
 Frc consts  --      0.4705                 0.8314                 0.6733
 IR Inten    --      5.0357                 5.1691                 2.5104

                     13                     14                     15
                      A                      A                      A
 Frequencies --    645.7107               681.0370               792.2491
 Red. masses --      4.5822                 4.2933                 2.3596
 Frc consts  --      1.1257                 1.1732                 0.8726
 IR Inten    --      2.8281                 3.7350                 8.0859

                     16                     17                     18
                      A                      A                      A
 Frequencies --    831.5783               851.4029               891.5162
 Red. masses --      2.6288                 2.0418                 2.0780
 Frc consts  --      1.0711                 0.8721                 0.9731
 IR Inten    --      3.7954                11.9860                19.8908

                     19                     20                     21
                      A                      A                      A
 Frequencies --    963.9378              1000.4495              1020.6559
 Red. masses --      2.0289                 1.5312                 2.1240
 Frc consts  --      1.1107                 0.9030                 1.3037
 IR Inten    --     10.9272                 8.7363                16.2988

                     22                     23                     24
                      A                      A                      A
 Frequencies --   1056.0850              1082.1227              1093.5821
 Red. masses --      1.5309                 2.0446                 2.7125
 Frc consts  --      1.0060                 1.4106                 1.9113
 IR Inten    --     14.4151                 5.3183                35.2081

                     25                     26                     27
                      A                      A                      A
 Frequencies --   1118.1439              1147.1911              1191.9178
 Red. masses --      1.4234                 2.0293                 1.8204
 Frc consts  --      1.0485                 1.5735                 1.5238
 IR Inten    --      5.0697                31.6198                27.7543

                     28                     29                     30
                      A                      A                      A
 Frequencies --   1236.4633              1256.5621              1272.0352
 Red. masses --      1.3815                 1.3834                 1.8846
 Frc consts  --      1.2444                 1.2870                 1.7966
 IR Inten    --      0.6489                27.7350                49.9214

                     31                     32                     33
                      A                      A                      A
 Frequencies --   1293.3540              1330.6877              1335.6274
 Red. masses --      1.3556                 1.6444                 2.3977
 Frc consts  --      1.3360                 1.7156                 2.5201
 IR Inten    --      1.8473                12.9765                34.8470

                     34                     35                     36
                      A                      A                      A
 Frequencies --   1362.1830              1413.6435              1444.4374
 Red. masses --      1.4494                 1.2448                 1.1096
 Frc consts  --      1.5846                 1.4656                 1.3640
 IR Inten    --      6.3617                 1.1503                 9.0592

                     37                     38                     39
                      A                      A                      A
 Frequencies --   1465.4702              1482.4826              1497.9211
 Red. masses --      2.0526                 1.0480                 1.0669
 Frc consts  --      2.5973                 1.3571                 1.4105
 IR Inten    --      3.8497                 5.3241                 5.4856

                     40                     41                     42
                      A                      A                      A
 Frequencies --   1501.5585              1818.4830              3035.0610
 Red. masses --      1.1383                12.5565                 1.0352
 Frc consts  --      1.5122                24.4645                 5.6181
 IR Inten    --      7.8219               232.2114                28.0912

                     43                     44                     45
                      A                      A                      A
 Frequencies --   3054.2515              3068.5394              3091.5903
 Red. masses --      1.0602                 1.0615                 1.0885
 Frc consts  --      5.8271                 5.8892                 6.1297
 IR Inten    --     33.3996                 9.4707                25.8983

                     46                     47                     48
                      A                      A                      A
 Frequencies --   3093.3476              3099.0921              3111.6718
 Red. masses --      1.1017                 1.1004                 1.1015
 Frc consts  --      6.2110                 6.2270                 6.2836
 IR Inten    --      9.6826                23.4531                14.8266

                     49                     50                     51
                      A                      A                      A
 Frequencies --   3117.9546              3163.6119              3803.3036
 Red. masses --      1.1033                 1.0907                 1.0662
 Frc consts  --      6.3196                 6.4319                 9.0872
 IR Inten    --     12.1590                16.2538                29.7558

 - Thermochemistry -
 -------------------
 Temperature   298.150 Kelvin.  Pressure   1.00000 Atm.
 Atom     1 has atomic number  6 and mass  12.00000

 Molecular mass:   126.06808 amu.
 Principal axes and moments of inertia in atomic units:
                           1         2         3
     Eigenvalues --   885.873211014.887241284.65201
           X            0.93518   0.35416   0.00309
           Y           -0.35413   0.93516  -0.00828
           Z           -0.00582   0.00665   0.99996
 This molecule is an asymmetric top.
 Rotational symmetry number  1.
 Warning -- assumption of classical behavior for rotation
           may cause significant error
 Rotational temperatures (Kelvin)      0.09777     0.08534     0.06742
 Rotational constants (GHZ):           2.03725     1.77827     1.40485
 Zero-point vibrational energy     417287.8 (Joules/Mol)
                                   99.73417 (Kcal/Mol)
 Warning -- explicit consideration of  11 degrees of freedom as
           vibrations may cause significant error
 Vibrational temperatures:    129.13   194.99   254.03   321.76   337.02
          (Kelvin)            380.97   485.33   561.53   675.58   758.65
                              806.56   918.84   929.03   979.86  1139.87
                             1196.45  1224.98  1282.69  1386.89  1439.42
                             1468.49  1519.47  1556.93  1573.42  1608.76
                             1650.55  1714.90  1778.99  1807.91  1830.17
                             1860.85  1914.56  1921.67  1959.88  2033.92
                             2078.22  2108.48  2132.96  2155.17  2160.41
                             2616.39  4366.77  4394.38  4414.94  4448.10
                             4450.63  4458.90  4477.00  4486.04  4551.73
                             5472.10

 Zero-point correction=                           0.158937 (Hartree/Particle)
 Thermal correction to Energy=                    0.167660
 Thermal correction to Enthalpy=                  0.168604
 Thermal correction to Gibbs Free Energy=         0.125815
 Sum of electronic and zero-point Energies=           -423.050685
 Sum of electronic and thermal Energies=              -423.041962
 Sum of electronic and thermal Enthalpies=            -423.041018
 Sum of electronic and thermal Free Energies=         -423.083806

                     E (Thermal)             CV                S
                      KCal/Mol        Cal/Mol-Kelvin    Cal/Mol-Kelvin
 Total                  105.208             33.204             90.057
 Electronic               0.000              0.000              0.000
 Translational            0.889              2.981             40.409
 Rotational               0.889              2.981             28.537
 Vibrational            103.431             27.242             21.111
 Vibration     1          0.602              1.956              3.666
 Vibration     2          0.613              1.918              2.866
 Vibration     3          0.628              1.871              2.364
 Vibration     4          0.649              1.805              1.929
 Vibration     5          0.654              1.788              1.846
 Vibration     6          0.671              1.738              1.630
 Vibration     7          0.718              1.601              1.225
 Vibration     8          0.758              1.491              0.999
 Vibration     9          0.827              1.318              0.739
 Vibration    10          0.882              1.190              0.593
 Vibration    11          0.916              1.117              0.523

 Normal termination of Gaussian 09 at Tue Jan 28 01:28:38 2020.
