 Gaussian 09, Revision D.01,
 Gaussian 09:  ES64L-G09RevD.01 24-Apr-2013

 -----------------------------
 # b3lyp 6-31G(2df,p) opt Freq
 -----------------------------

 -----
 titel
 -----
 Symbolic Z-matrix:
 Charge =  0 Multiplicity = 1

 SCF Done:  E(RB3LYP) =  -423.215447516     A.U. after   14 cycles
 Optimization completed.
    -- Stationary point found.
 Normal termination of Gaussian 09 at Mon Jan 27 11:16:17 2020.

 ----------------------------------------------------------------------
 #N Geom=AllCheck Guess=TCheck SCRF=Check GenChk RB3LYP/6-31G(2df,p) Fr
 eq
 ----------------------------------------------------------------------

 Structure from the checkpoint file:  "/scratch/puck/g09_0e98dc28-0247-42f5-8ff0-94c3d0e5f7be/Gau-22668.chk"
 -----
 titel
 -----
 Charge =  0 Multiplicity = 1

                         Standard orientation:
 ---------------------------------------------------------------------
 Center     Atomic      Atomic             Coordinates (Angstroms)
 Number     Number       Type             X           Y           Z
 ---------------------------------------------------------------------
      1          6           0       -3.753090   -0.266128   -0.000322
      2          6           0       -2.394473    0.407870    0.001635
      3          8           0       -1.402416   -0.629038   -0.000930
      4          6           0       -0.118541   -0.260195   -0.000394
      5          6           0        1.011678   -1.017114    0.000038
      6          6           0        2.107240   -0.079481    0.000066
      7          6           0        3.567300   -0.408381    0.000511
      8          6           0        1.547314    1.155862   -0.000478
      9          8           0        0.170082    1.060774   -0.000618
     10          1           0       -3.874005   -0.896762    0.884643
     11          1           0       -4.542947    0.490855    0.001976
     12          1           0       -3.874119   -0.891525   -0.888976
     13          1           0       -2.260820    1.043707   -0.881454
     14          1           0       -2.261077    1.039019    0.888165
     15          1           0        1.059527   -2.093411    0.000363
     16          1           0        3.843801   -0.998790    0.881532
     17          1           0        3.844469   -0.998197   -0.880699
     18          1           0        4.177121    0.499397    0.001039
     19          1           0        1.942154    2.157227   -0.000545
 ---------------------------------------------------------------------

 SCF Done:  E(RB3LYP) =  -423.215447516     A.U. after    1 cycles

 The electronic state is 1-A.
 Alpha  occ. eigenvalues --  -19.19455 -19.17320 -10.27359 -10.24156 -10.20788
 Alpha  occ. eigenvalues --  -10.18357 -10.17953 -10.17914 -10.15872  -1.11561
 Alpha  occ. eigenvalues --   -1.05180  -0.80170  -0.77791  -0.72050  -0.68787
 Alpha  occ. eigenvalues --   -0.63557  -0.57714  -0.55699  -0.51461  -0.49040
 Alpha  occ. eigenvalues --   -0.47456  -0.44327  -0.42368  -0.40903  -0.40481
 Alpha  occ. eigenvalues --   -0.39626  -0.38497  -0.37642  -0.36769  -0.35310
 Alpha  occ. eigenvalues --   -0.33825  -0.32421  -0.25321  -0.18810
 Alpha virt. eigenvalues --    0.04385   0.08708   0.09813   0.11578   0.12347
 Alpha virt. eigenvalues --    0.13853   0.14625   0.15123   0.16080   0.16735
 Alpha virt. eigenvalues --    0.17203   0.19124   0.19625   0.20089   0.22150

 Mulliken charges:
               1
     1  C   -0.389016
     2  C   -0.050829
     3  O   -0.279018
     4  C    0.479736
     5  C   -0.440125
     6  C    0.281042
     7  C   -0.497360
     8  C   -0.136415
     9  O   -0.194793
    10  H    0.132128
    11  H    0.121365
    12  H    0.132128
    13  H    0.115919
    14  H    0.115813
    15  H    0.104161
    16  H    0.128688
    17  H    0.128697
    18  H    0.121968
    19  H    0.125912
 Sum of Mulliken charges =   0.00000

 Dipole moment (field-independent basis, Debye):
    X=             -0.5926    Y=              0.5960    Z=              0.0027  Tot=              0.8405
 Quadrupole moment (field-independent basis, Debye-Ang):
   XX=            -45.3350   YY=            -51.8439   ZZ=            -54.4388
   XY=             -1.2551   XZ=             -0.0045   YZ=             -0.0019

  Exact polarizability: 113.146  -2.233  77.785  -0.002  -0.003  51.672
 Approx polarizability: 139.140  -5.055 129.331   0.002  -0.009  78.645

                      1                      2                      3
                      A                      A                      A
 Frequencies --     20.5792                62.4848               141.1846
 Red. masses --      3.0128                 2.1762                 1.0563
 Frc consts  --      0.0008                 0.0050                 0.0124
 IR Inten    --      3.7310                 0.0016                 0.0435

                      4                      5                      6
                      A                      A                      A
 Frequencies --    142.1520               191.4319               250.5782
 Red. masses --      3.4032                 3.8715                 1.1253
 Frc consts  --      0.0405                 0.0836                 0.0416
 IR Inten    --      1.6197                 0.2539                 0.3066

                      7                      8                      9
                      A                      A                      A
 Frequencies --    293.4952               343.9700               354.5661
 Red. masses --      2.9189                 3.1226                 6.0640
 Frc consts  --      0.1481                 0.2177                 0.4492
 IR Inten    --      1.0989                 1.0910                 1.1695

                     10                     11                     12
                      A                      A                      A
 Frequencies --    479.2340               617.5321               634.2313
 Red. masses --      3.8419                 2.5024                 4.7130
 Frc consts  --      0.5199                 0.5623                 1.1170
 IR Inten    --      0.9823                11.4840                12.2576

                     13                     14                     15
                      A                      A                      A
 Frequencies --    643.2464               692.6368               752.8490
 Red. masses --      1.6126                 3.6843                 4.8702
 Frc consts  --      0.3931                 1.0414                 1.6263
 IR Inten    --      6.3845                 1.3916                 3.8017

                     16                     17                     18
                      A                      A                      A
 Frequencies --    756.2634               816.0447               902.2976
 Red. masses --      1.3379                 1.0835                 3.0219
 Frc consts  --      0.4509                 0.4251                 1.4495
 IR Inten    --     40.0939                 0.7132                 6.9503

                     19                     20                     21
                      A                      A                      A
 Frequencies --    977.6640               989.4109              1016.0446
 Red. masses --      2.1101                 2.5494                 2.3175
 Frc consts  --      1.1883                 1.4704                 1.4096
 IR Inten    --      8.6536                14.1659                 0.4971

                     22                     23                     24
                      A                      A                      A
 Frequencies --   1063.7004              1063.8971              1120.8427
 Red. masses --      1.4692                 3.1147                 3.2826
 Frc consts  --      0.9794                 2.0771                 2.4297
 IR Inten    --      1.6121                89.9790                 4.2198

                     25                     26                     27
                      A                      A                      A
 Frequencies --   1137.7949              1181.4561              1193.5674
 Red. masses --      3.0098                 1.5234                 1.9133
 Frc consts  --      2.2957                 1.2529                 1.6060
 IR Inten    --     34.7854                 3.2363                72.0345

                     28                     29                     30
                      A                      A                      A
 Frequencies --   1243.6619              1293.8012              1326.6181
 Red. masses --      1.5747                 1.1026                 5.2876
 Frc consts  --      1.4350                 1.0874                 5.4827
 IR Inten    --     27.8958                 0.4632                71.5618

                     31                     32                     33
                      A                      A                      A
 Frequencies --   1393.6435              1412.6117              1419.5321
 Red. masses --      1.3300                 1.5450                 1.3709
 Frc consts  --      1.5220                 1.8165                 1.6276
 IR Inten    --     74.3204                38.9213                61.9902

                     34                     35                     36
                      A                      A                      A
 Frequencies --   1427.9937              1481.4316              1484.2172
 Red. masses --      2.2509                 1.0430                 1.0398
 Frc consts  --      2.7043                 1.3487                 1.3495
 IR Inten    --     24.6400                 4.4134                 4.5600

                     37                     38                     39
                      A                      A                      A
 Frequencies --   1497.4548              1499.1584              1522.1933
 Red. masses --      1.1075                 1.0496                 1.0965
 Frc consts  --      1.4632                 1.3898                 1.4969
 IR Inten    --      1.2240                 5.1531                20.8291

                     40                     41                     42
                      A                      A                      A
 Frequencies --   1617.2349              1669.0047              3027.3500
 Red. masses --      6.0456                 6.9416                 1.0544
 Frc consts  --      9.3162                11.3927                 5.6935
 IR Inten    --    146.8632               242.3078                39.8852

                     43                     44                     45
                      A                      A                      A
 Frequencies --   3028.0210              3048.0182              3065.5698
 Red. masses --      1.0386                 1.0348                 1.1074
 Frc consts  --      5.6108                 5.6645                 6.1315
 IR Inten    --     24.8066                15.9742                20.8400

                     46                     47                     48
                      A                      A                      A
 Frequencies --   3078.5739              3109.3444              3122.8475
 Red. masses --      1.0998                 1.0998                 1.1013
 Frc consts  --      6.1416                 6.2648                 6.3277
 IR Inten    --     20.1653                19.2111                21.2643

                     49                     50                     51
                      A                      A                      A
 Frequencies --   3127.8901              3267.8521              3286.0801
 Red. masses --      1.1034                 1.0969                 1.0980
 Frc consts  --      6.3605                 6.9014                 6.9856
 IR Inten    --     27.1084                 2.7645                 0.2304

 - Thermochemistry -
 -------------------
 Temperature   298.150 Kelvin.  Pressure   1.00000 Atm.
 Atom     1 has atomic number  6 and mass  12.00000

 Molecular mass:   126.06808 amu.
 Principal axes and moments of inertia in atomic units:
                           1         2         3
     Eigenvalues --   280.753422268.716942515.70112
           X            0.99998  -0.00644   0.00000
           Y            0.00644   0.99998   0.00000
           Z            0.00000   0.00000   1.00000
 This molecule is an asymmetric top.
 Rotational symmetry number  1.
 Rotational temperatures (Kelvin)      0.30850     0.03818     0.03443
 Rotational constants (GHZ):           6.42821     0.79549     0.71739
 Zero-point vibrational energy     414441.8 (Joules/Mol)
                                   99.05397 (Kcal/Mol)
 Warning -- explicit consideration of  11 degrees of freedom as
           vibrations may cause significant error
 Vibrational temperatures:     29.61    89.90   203.13   204.52   275.43
          (Kelvin)            360.53   422.27   494.90   510.14   689.51
                              888.49   912.52   925.49   996.55  1083.18
                             1088.09  1174.10  1298.20  1406.64  1423.54
                             1461.86  1530.43  1530.71  1612.64  1637.03
                             1699.85  1717.28  1789.35  1861.49  1908.71
                             2005.14  2032.43  2042.39  2054.56  2131.45
                             2135.45  2154.50  2156.95  2190.09  2326.84
                             2401.32  4355.68  4356.64  4385.41  4410.67
                             4429.38  4473.65  4493.08  4500.33  4701.70
                             4727.93

 Zero-point correction=                           0.157853 (Hartree/Particle)
 Thermal correction to Energy=                    0.167364
 Thermal correction to Enthalpy=                  0.168308
 Thermal correction to Gibbs Free Energy=         0.122015
 Sum of electronic and zero-point Energies=           -423.057595
 Sum of electronic and thermal Energies=              -423.048084
 Sum of electronic and thermal Enthalpies=            -423.047140
 Sum of electronic and thermal Free Energies=         -423.093432

                     E (Thermal)             CV                S
                      KCal/Mol        Cal/Mol-Kelvin    Cal/Mol-Kelvin
 Total                  105.022             33.865             97.430
 Electronic               0.000              0.000              0.000
 Translational            0.889              2.981             40.409
 Rotational               0.889              2.981             28.862
 Vibrational            103.245             27.903             28.160
 Vibration     1          0.593              1.986              6.578
 Vibration     2          0.597              1.972              4.377
 Vibration     3          0.615              1.912              2.788
 Vibration     4          0.616              1.911              2.775
 Vibration     5          0.634              1.852              2.214
 Vibration     6          0.663              1.762              1.727
 Vibration     7          0.688              1.686              1.454
 Vibration     8          0.723              1.588              1.194
 Vibration     9          0.730              1.566              1.146
 Vibration    10          0.836              1.296              0.712
 Vibration    11          0.977              0.995              0.420

 Normal termination of Gaussian 09 at Mon Jan 27 11:54:40 2020.
