 Gaussian 09, Revision D.01,
 Gaussian 09:  ES64L-G09RevD.01 24-Apr-2013

 -----------------------------
 # b3lyp 6-31G(2df,p) opt Freq
 -----------------------------

 -----
 titel
 -----
 Symbolic Z-matrix:
 Charge =  0 Multiplicity = 1

 SCF Done:  E(RB3LYP) =  -423.118393288     A.U. after   13 cycles
 Optimization completed.
    -- Stationary point found.
 Normal termination of Gaussian 09 at Tue Jan 28 09:54:41 2020.

 ----------------------------------------------------------------------
 #N Geom=AllCheck Guess=TCheck SCRF=Check GenChk RB3LYP/6-31G(2df,p) Fr
 eq
 ----------------------------------------------------------------------

 Structure from the checkpoint file:  "/scratch/puck/g09_e68d96ab-6a26-4783-8bec-f9c8c419a6cc/Gau-96678.chk"
 -----
 titel
 -----
 Charge =  0 Multiplicity = 1

                         Standard orientation:
 ---------------------------------------------------------------------
 Center     Atomic      Atomic             Coordinates (Angstroms)
 Number     Number       Type             X           Y           Z
 ---------------------------------------------------------------------
      1          6           0       -1.994001    1.593982    0.069630
      2          6           0       -1.161957    0.355968   -0.004310
      3          6           0       -1.314306   -1.057658    0.561901
      4          6           0        0.081543   -1.028991    1.180185
      5          6           0        0.393793    0.044141    0.104176
      6          6           0        1.575274    0.968795    0.134061
      7          8           0        2.782739    0.237378    0.009320
      8          8           0        0.339840   -0.725054   -1.146125
      9          6           0       -1.069782   -0.800794   -0.937871
     10          1           0       -3.046409    1.355963   -0.119526
     11          1           0       -1.936716    2.063450    1.058343
     12          1           0       -1.682658    2.335606   -0.674476
     13          1           0       -2.215499   -1.531742    0.930835
     14          1           0        0.067865   -0.597377    2.184605
     15          1           0        0.698429   -1.931656    1.157023
     16          1           0        1.472471    1.720664   -0.664223
     17          1           0        1.618769    1.497727    1.092007
     18          1           0        2.684511   -0.318894   -0.772698
     19          1           0       -1.704767   -1.144987   -1.744083
 ---------------------------------------------------------------------

 SCF Done:  E(RB3LYP) =  -423.118393288     A.U. after    1 cycles

 The electronic state is 1-A.
 Alpha  occ. eigenvalues --  -19.13692 -19.13376 -10.24251 -10.23772 -10.22930
 Alpha  occ. eigenvalues --  -10.20057 -10.19376 -10.19137 -10.18489  -1.06191
 Alpha  occ. eigenvalues --   -1.01393  -0.85992  -0.74984  -0.73324  -0.68059
 Alpha  occ. eigenvalues --   -0.61723  -0.56456  -0.53062  -0.50273  -0.48239
 Alpha  occ. eigenvalues --   -0.47296  -0.44255  -0.42919  -0.42317  -0.40662
 Alpha  occ. eigenvalues --   -0.39951  -0.39371  -0.35728  -0.34034  -0.32889
 Alpha  occ. eigenvalues --   -0.28747  -0.27012  -0.25505  -0.23096
 Alpha virt. eigenvalues --    0.06306   0.09344   0.10772   0.11815   0.12841
 Alpha virt. eigenvalues --    0.13272   0.14224   0.15017   0.15464   0.15618
 Alpha virt. eigenvalues --    0.16498   0.18088   0.19147   0.21421   0.22037

 Mulliken charges:
               1
     1  C   -0.529979
     2  C    0.217601
     3  C   -0.172307
     4  C   -0.261889
     5  C    0.359450
     6  C   -0.182803
     7  O   -0.416772
     8  O   -0.351491
     9  C    0.052089
    10  H    0.127768
    11  H    0.124611
    12  H    0.128600
    13  H    0.088951
    14  H    0.101691
    15  H    0.103512
    16  H    0.094834
    17  H    0.111042
    18  H    0.299350
    19  H    0.105741
 Sum of Mulliken charges =   0.00000

 Dipole moment (field-independent basis, Debye):
    X=             -2.3970    Y=              0.6448    Z=              0.2141  Tot=              2.4914
 Quadrupole moment (field-independent basis, Debye-Ang):
   XX=            -55.6398   YY=            -52.0836   ZZ=            -52.5034
   XY=             -0.1970   XZ=             -0.8591   YZ=              0.2574

  Exact polarizability:  81.003  -0.536  74.138   1.724  -0.220  69.017
 Approx polarizability: 111.270  -0.409 107.707   0.484   2.573 108.622

                      1                      2                      3
                      A                      A                      A
 Frequencies --     80.3895               128.4136               196.7958
 Red. masses --      3.5211                 3.9282                 1.1506
 Frc consts  --      0.0134                 0.0382                 0.0263
 IR Inten    --      3.5420                 0.5932                 0.0282

                      4                      5                      6
                      A                      A                      A
 Frequencies --    210.0236               244.3620               312.1692
 Red. masses --      2.0263                 3.2625                 1.9479
 Frc consts  --      0.0527                 0.1148                 0.1118
 IR Inten    --      0.8870                 1.9092                 9.9020

                      7                      8                      9
                      A                      A                      A
 Frequencies --    397.4537               416.7800               478.2381
 Red. masses --      2.0590                 1.4954                 2.5516
 Frc consts  --      0.1916                 0.1530                 0.3438
 IR Inten    --     20.5311               100.5370                 1.4668

                     10                     11                     12
                      A                      A                      A
 Frequencies --    552.3456               603.6121               712.5228
 Red. masses --      3.8931                 3.5908                 3.4675
 Frc consts  --      0.6998                 0.7708                 1.0372
 IR Inten    --      4.2768                 5.6730                 3.9934

                     13                     14                     15
                      A                      A                      A
 Frequencies --    747.2954               773.5250               851.3869
 Red. masses --      4.2211                 4.4292                 2.4966
 Frc consts  --      1.3889                 1.5614                 1.0662
 IR Inten    --      3.4852                20.5737                15.0659

                     16                     17                     18
                      A                      A                      A
 Frequencies --    871.7714               881.8248               921.2905
 Red. masses --      1.8627                 1.8839                 1.9974
 Frc consts  --      0.8341                 0.8631                 0.9989
 IR Inten    --     17.0863                 9.6871                 2.7293

                     19                     20                     21
                      A                      A                      A
 Frequencies --    963.8704               980.8783              1016.5972
 Red. masses --      1.6704                 1.6486                 3.6446
 Frc consts  --      0.9143                 0.9345                 2.2192
 IR Inten    --      3.6458                 1.5740                99.8314

                     22                     23                     24
                      A                      A                      A
 Frequencies --   1022.4841              1052.7465              1067.3101
 Red. masses --      1.6067                 2.9770                 2.1800
 Frc consts  --      0.9897                 1.9439                 1.4632
 IR Inten    --      2.2064                19.7891                30.7767

                     25                     26                     27
                      A                      A                      A
 Frequencies --   1083.4038              1121.5184              1137.1986
 Red. masses --      2.3761                 1.7401                 1.4565
 Frc consts  --      1.6432                 1.2895                 1.1098
 IR Inten    --     23.1972                 3.2601                 0.7812

                     28                     29                     30
                      A                      A                      A
 Frequencies --   1175.8359              1215.0981              1224.6986
 Red. masses --      2.1722                 1.9174                 1.2188
 Frc consts  --      1.7695                 1.6680                 1.0771
 IR Inten    --      1.5432                 7.7158                 7.5665

                     31                     32                     33
                      A                      A                      A
 Frequencies --   1243.3347              1288.9649              1328.7741
 Red. masses --      2.0166                 1.7828                 2.5943
 Frc consts  --      1.8368                 1.7451                 2.6988
 IR Inten    --      0.7113                17.2604                17.4415

                     34                     35                     36
                      A                      A                      A
 Frequencies --   1377.7831              1411.6316              1436.5846
 Red. masses --      1.3491                 1.2177                 1.5442
 Frc consts  --      1.5089                 1.4296                 1.8776
 IR Inten    --      8.5304                 0.9712                54.3270

                     37                     38                     39
                      A                      A                      A
 Frequencies --   1458.4058              1484.5770              1489.3518
 Red. masses --      3.2300                 1.0527                 1.2061
 Frc consts  --      4.0477                 1.3670                 1.5763
 IR Inten    --      3.9976                 4.0210                 1.4802

                     40                     41                     42
                      A                      A                      A
 Frequencies --   1494.9052              1498.7434              2983.1333
 Red. masses --      1.0824                 1.0833                 1.0693
 Frc consts  --      1.4252                 1.4337                 5.6063
 IR Inten    --      1.7304                 4.0232                47.6426

                     43                     44                     45
                      A                      A                      A
 Frequencies --   3023.1051              3054.3391              3074.9854
 Red. masses --      1.0350                 1.0562                 1.0928
 Frc consts  --      5.5733                 5.8054                 6.0883
 IR Inten    --     39.9402                33.8108                18.0077

                     46                     47                     48
                      A                      A                      A
 Frequencies --   3084.0273              3093.0431              3114.3035
 Red. masses --      1.1012                 1.1002                 1.1089
 Frc consts  --      6.1708                 6.2016                 6.3370
 IR Inten    --     24.3678                17.1217                23.7350

                     49                     50                     51
                      A                      A                      A
 Frequencies --   3191.9749              3205.3605              3795.1374
 Red. masses --      1.0916                 1.0962                 1.0658
 Frc consts  --      6.5530                 6.6358                 9.0447
 IR Inten    --      9.7287                23.6024                27.3002

 - Thermochemistry -
 -------------------
 Temperature   298.150 Kelvin.  Pressure   1.00000 Atm.
 Atom     1 has atomic number  6 and mass  12.00000

 Molecular mass:   126.06808 amu.
 Principal axes and moments of inertia in atomic units:
                           1         2         3
     Eigenvalues --   633.568221280.317211440.28050
           X            0.99975  -0.02250   0.00048
           Y            0.02250   0.99903  -0.03793
           Z            0.00038   0.03793   0.99928
 This molecule is an asymmetric top.
 Rotational symmetry number  1.
 Warning -- assumption of classical behavior for rotation
           may cause significant error
 Rotational temperatures (Kelvin)      0.13671     0.06765     0.06014
 Rotational constants (GHZ):           2.84853     1.40960     1.25305
 Zero-point vibrational energy     416146.8 (Joules/Mol)
                                   99.46146 (Kcal/Mol)
 Warning -- explicit consideration of  11 degrees of freedom as
           vibrations may cause significant error
 Vibrational temperatures:    115.66   184.76   283.14   302.18   351.58
          (Kelvin)            449.14   571.85   599.65   688.08   794.70
                              868.46  1025.16  1075.19  1112.93  1224.95
                             1254.28  1268.75  1325.53  1386.79  1411.26
                             1462.65  1471.12  1514.67  1535.62  1558.77
                             1613.61  1636.17  1691.76  1748.25  1762.07
                             1788.88  1854.53  1911.81  1982.32  2031.02
                             2066.92  2098.32  2135.97  2142.84  2150.83
                             2156.35  4292.06  4349.57  4394.51  4424.21
                             4437.22  4450.19  4480.78  4592.53  4611.79
                             5460.35

 Zero-point correction=                           0.158502 (Hartree/Particle)
 Thermal correction to Energy=                    0.166926
 Thermal correction to Enthalpy=                  0.167870
 Thermal correction to Gibbs Free Energy=         0.125527
 Sum of electronic and zero-point Energies=           -422.959891
 Sum of electronic and thermal Energies=              -422.951467
 Sum of electronic and thermal Enthalpies=            -422.950523
 Sum of electronic and thermal Free Energies=         -422.992867

                     E (Thermal)             CV                S
                      KCal/Mol        Cal/Mol-Kelvin    Cal/Mol-Kelvin
 Total                  104.748             32.402             89.119
 Electronic               0.000              0.000              0.000
 Translational            0.889              2.981             40.409
 Rotational               0.889              2.981             28.548
 Vibrational            102.970             26.440             20.163
 Vibration     1          0.600              1.962              3.881
 Vibration     2          0.611              1.925              2.970
 Vibration     3          0.636              1.844              2.163
 Vibration     4          0.642              1.825              2.043
 Vibration     5          0.660              1.772              1.771
 Vibration     6          0.701              1.650              1.351
 Vibration     7          0.764              1.476              0.972
 Vibration     8          0.780              1.434              0.903
 Vibration     9          0.835              1.298              0.715
 Vibration    10          0.908              1.135              0.539
 Vibration    11          0.962              1.024              0.443

 Optimization completed.
    -- Stationary point found.
 Normal termination of Gaussian 09 at Tue Jan 28 10:38:04 2020.
