 Gaussian 09, Revision D.01,
 Gaussian 09:  ES64L-G09RevD.01 24-Apr-2013

 -----------------------------
 # b3lyp 6-31G(2df,p) opt Freq
 -----------------------------

 -----
 titel
 -----
 Symbolic Z-matrix:
 Charge =  0 Multiplicity = 1

 SCF Done:  E(RB3LYP) =  -423.161348444     A.U. after   14 cycles
 SCF Done:  E(RB3LYP) =  -423.161348456     A.U. after    7 cycles
 Optimization completed.
    -- Stationary point found.
 Normal termination of Gaussian 09 at Mon Jan 27 14:16:25 2020.

 ----------------------------------------------------------------------
 #N Geom=AllCheck Guess=TCheck SCRF=Check GenChk RB3LYP/6-31G(2df,p) Fr
 eq
 ----------------------------------------------------------------------

 Structure from the checkpoint file:  "/scratch/puck/g09_54710ad9-2f0a-46a1-9c1b-f195189f65b7/Gau-70754.chk"
 -----
 titel
 -----
 Charge =  0 Multiplicity = 1

                         Standard orientation:
 ---------------------------------------------------------------------
 Center     Atomic      Atomic             Coordinates (Angstroms)
 Number     Number       Type             X           Y           Z
 ---------------------------------------------------------------------
      1          6           0        0.500540    1.973754   -0.070403
      2          6           0        0.696109    0.516856   -0.534180
      3          6           0        2.014499    0.024037   -0.145242
      4          6           0        3.107711   -0.356658    0.178568
      5          6           0       -0.441437   -0.417160    0.010476
      6          6           0       -0.223926   -1.877714   -0.423323
      7          8           0       -0.514877   -0.333464    1.410743
      8          6           0       -1.762625    0.048788   -0.586018
      9          8           0       -2.695603    0.385254    0.101168
     10          1           0       -0.448358    2.379177   -0.436314
     11          1           0        0.498104    2.016572    1.020123
     12          1           0        1.309931    2.603795   -0.445318
     13          1           0        0.635344    0.484177   -1.631861
     14          1           0        4.072789   -0.694743    0.464968
     15          1           0       -1.040103   -2.503279   -0.051972
     16          1           0       -0.170344   -1.973023   -1.513007
     17          1           0        0.715133   -2.236094    0.002707
     18          1           0       -1.406401   -0.005538    1.610228
     19          1           0       -1.827484    0.043226   -1.694100
 ---------------------------------------------------------------------

 SCF Done:  E(RB3LYP) =  -423.161348456     A.U. after    1 cycles

 The electronic state is 1-A.
 Alpha  occ. eigenvalues --  -19.16681 -19.13853 -10.28704 -10.25705 -10.22469
 Alpha  occ. eigenvalues --  -10.18715 -10.18543 -10.18368 -10.17472  -1.07821
 Alpha  occ. eigenvalues --   -1.02355  -0.82815  -0.75921  -0.72812  -0.66408
 Alpha  occ. eigenvalues --   -0.64432  -0.57816  -0.53622  -0.52477  -0.48773
 Alpha  occ. eigenvalues --   -0.47179  -0.46245  -0.44019  -0.41088  -0.40643
 Alpha  occ. eigenvalues --   -0.39231  -0.38444  -0.37107  -0.36076  -0.35423
 Alpha  occ. eigenvalues --   -0.28897  -0.27657  -0.26751  -0.26101
 Alpha virt. eigenvalues --   -0.04267   0.04756   0.05371   0.08875   0.10557
 Alpha virt. eigenvalues --    0.12626   0.12950   0.14016   0.15175   0.15747
 Alpha virt. eigenvalues --    0.16981   0.17397   0.17808   0.20705   0.21740

 Mulliken charges:
               1
     1  C   -0.407204
     2  C   -0.187628
     3  C    0.337520
     4  C   -0.458342
     5  C    0.270045
     6  C   -0.430126
     7  O   -0.463010
     8  C    0.125315
     9  O   -0.271353
    10  H    0.119298
    11  H    0.149461
    12  H    0.127987
    13  H    0.103100
    14  H    0.197381
    15  H    0.127951
    16  H    0.114138
    17  H    0.155313
    18  H    0.292787
    19  H    0.097369
 Sum of Mulliken charges =   0.00000

 Dipole moment (field-independent basis, Debye):
    X=              0.6017    Y=             -0.2042    Z=             -1.9077  Tot=              2.0108
 Quadrupole moment (field-independent basis, Debye-Ang):
   XX=            -55.5698   YY=            -52.0580   ZZ=            -53.1503
   XY=              0.4741   XZ=              1.7878   YZ=              0.4005

  Exact polarizability:  98.665  -7.690  70.777   3.443  -0.094  64.939
 Approx polarizability: 148.442 -18.722  97.054   5.081  -1.450 103.972

                      1                      2                      3
                      A                      A                      A
 Frequencies --     61.5840               101.2578               152.4286
 Red. masses --      4.0057                 6.5247                 3.5865
 Frc consts  --      0.0090                 0.0394                 0.0491
 IR Inten    --      0.5227                 0.4501                 0.2870

                      4                      5                      6
                      A                      A                      A
 Frequencies --    200.1182               218.6228               232.2399
 Red. masses --      1.6982                 1.1714                 1.4531
 Frc consts  --      0.0401                 0.0330                 0.0462
 IR Inten    --      0.6513                 0.3388                 1.1919

                      7                      8                      9
                      A                      A                      A
 Frequencies --    252.4664               303.7401               320.6277
 Red. masses --      2.3240                 4.0135                 2.7278
 Frc consts  --      0.0873                 0.2182                 0.1652
 IR Inten    --      2.5209                11.6182                 3.6450

                     10                     11                     12
                      A                      A                      A
 Frequencies --    353.7794               382.1479               409.6312
 Red. masses --      3.4046                 3.5058                 3.7465
 Frc consts  --      0.2511                 0.3016                 0.3704
 IR Inten    --      5.4918                 1.1635                13.4105

                     13                     14                     15
                      A                      A                      A
 Frequencies --    468.8099               525.8915               575.2722
 Red. masses --      1.4664                 3.1076                 3.0786
 Frc consts  --      0.1899                 0.5064                 0.6003
 IR Inten    --     58.4312                 0.3467                 4.3840

                     16                     17                     18
                      A                      A                      A
 Frequencies --    622.8282               644.0360               700.6865
 Red. masses --      1.2450                 1.2532                 3.0947
 Frc consts  --      0.2845                 0.3063                 0.8952
 IR Inten    --     38.3754                40.5378                13.3028

                     19                     20                     21
                      A                      A                      A
 Frequencies --    802.5917               851.3673               903.0321
 Red. masses --      3.2555                 3.4729                 1.7877
 Frc consts  --      1.2356                 1.4831                 0.8589
 IR Inten    --      6.5103                37.5070                14.2495

                     22                     23                     24
                      A                      A                      A
 Frequencies --    925.7480               992.6246              1022.7550
 Red. masses --      1.9705                 1.8327                 1.4693
 Frc consts  --      0.9950                 1.0639                 0.9056
 IR Inten    --      3.6565                12.0347                 7.3701

                     25                     26                     27
                      A                      A                      A
 Frequencies --   1060.3811              1112.1388              1153.4115
 Red. masses --      3.2242                 1.7433                 2.2893
 Frc consts  --      2.1360                 1.2704                 1.7944
 IR Inten    --     29.8266                 8.2968                10.2853

                     28                     29                     30
                      A                      A                      A
 Frequencies --   1158.3118              1228.4854              1314.3292
 Red. masses --      2.0972                 3.3140                 1.4722
 Frc consts  --      1.6578                 2.9468                 1.4984
 IR Inten    --     21.0604                21.8864                 3.4052

                     31                     32                     33
                      A                      A                      A
 Frequencies --   1334.1153              1384.9296              1400.7092
 Red. masses --      1.4032                 1.2199                 1.2370
 Frc consts  --      1.4715                 1.3786                 1.4300
 IR Inten    --     28.3536                50.3475                13.2116

                     34                     35                     36
                      A                      A                      A
 Frequencies --   1406.0008              1425.7264              1485.8677
 Red. masses --      1.2095                 1.3340                 1.0820
 Frc consts  --      1.4088                 1.5976                 1.4074
 IR Inten    --      2.0653                34.6393                 5.1480

                     37                     38                     39
                      A                      A                      A
 Frequencies --   1490.2085              1492.1060              1503.2871
 Red. masses --      1.0450                 1.0497                 1.0554
 Frc consts  --      1.3673                 1.3770                 1.4053
 IR Inten    --      2.2099                 7.6854                 2.6973

                     40                     41                     42
                      A                      A                      A
 Frequencies --   1814.2072              2234.5748              2920.1791
 Red. masses --     10.5123                 5.9298                 1.0856
 Frc consts  --     20.3856                17.4455                 5.4544
 IR Inten    --    151.0889                 0.5838                63.2785

                     43                     44                     45
                      A                      A                      A
 Frequencies --   3000.9640              3042.0541              3047.5613
 Red. masses --      1.0810                 1.0358                 1.0378
 Frc consts  --      5.7359                 5.6477                 5.6789
 IR Inten    --     16.9622                16.5003                19.7854

                     46                     47                     48
                      A                      A                      A
 Frequencies --   3115.8625              3120.1017              3139.6126
 Red. masses --      1.1010                 1.0985                 1.1013
 Frc consts  --      6.2976                 6.3010                 6.3961
 IR Inten    --     17.7973                21.1641                 4.5960

                     49                     50                     51
                      A                      A                      A
 Frequencies --   3147.0307              3503.7594              3685.9191
 Red. masses --      1.1022                 1.1620                 1.0648
 Frc consts  --      6.4315                 8.4047                 8.5235
 IR Inten    --      8.4542                67.7661                77.1325

 - Thermochemistry -
 -------------------
 Temperature   298.150 Kelvin.  Pressure   1.00000 Atm.
 Atom     1 has atomic number  6 and mass  12.00000

 Molecular mass:   126.06808 amu.
 Principal axes and moments of inertia in atomic units:
                           1         2         3
     Eigenvalues --   668.373221481.378331760.95397
           X            0.99994   0.00892   0.00686
           Y           -0.00907   0.99970   0.02260
           Z           -0.00666  -0.02266   0.99972
 This molecule is an asymmetric top.
 Rotational symmetry number  1.
 Warning -- assumption of classical behavior for rotation
           may cause significant error
 Rotational temperatures (Kelvin)      0.12959     0.05847     0.04919
 Rotational constants (GHZ):           2.70020     1.21829     1.02487
 Zero-point vibrational energy     405211.8 (Joules/Mol)
                                   96.84794 (Kcal/Mol)
 Warning -- explicit consideration of  15 degrees of freedom as
           vibrations may cause significant error
 Vibrational temperatures:     88.61   145.69   219.31   287.93   314.55
          (Kelvin)            334.14   363.24   437.01   461.31   509.01
                              549.82   589.37   674.51   756.64   827.69
                              896.11   926.62  1008.13  1154.75  1224.93
                             1299.26  1331.94  1428.16  1471.51  1525.65
                             1600.12  1659.50  1666.55  1767.51  1891.02
                             1919.49  1992.60  2015.31  2022.92  2051.30
                             2137.83  2144.07  2146.81  2162.89  2610.24
                             3215.05  4201.48  4317.71  4376.83  4384.76
                             4483.03  4489.12  4517.20  4527.87  5041.12
                             5303.21

 Zero-point correction=                           0.154337 (Hartree/Particle)
 Thermal correction to Energy=                    0.164755
 Thermal correction to Enthalpy=                  0.165700
 Thermal correction to Gibbs Free Energy=         0.119369
 Sum of electronic and zero-point Energies=           -423.007011
 Sum of electronic and thermal Energies=              -422.996593
 Sum of electronic and thermal Enthalpies=            -422.995649
 Sum of electronic and thermal Free Energies=         -423.041979

                     E (Thermal)             CV                S
                      KCal/Mol        Cal/Mol-Kelvin    Cal/Mol-Kelvin
 Total                  103.386             38.347             97.510
 Electronic               0.000              0.000              0.000
 Translational            0.889              2.981             40.409
 Rotational               0.889              2.981             28.946
 Vibrational            101.608             32.386             28.155
 Vibration     1          0.597              1.973              4.406
 Vibration     2          0.604              1.948              3.430
 Vibration     3          0.619              1.900              2.642
 Vibration     4          0.638              1.840              2.132
 Vibration     5          0.646              1.813              1.970
 Vibration     6          0.653              1.792              1.862
 Vibration     7          0.664              1.759              1.713
 Vibration     8          0.695              1.667              1.396
 Vibration     9          0.706              1.634              1.307
 Vibration    10          0.730              1.568              1.149
 Vibration    11          0.752              1.508              1.031
 Vibration    12          0.774              1.449              0.928
 Vibration    13          0.826              1.319              0.741
 Vibration    14          0.881              1.193              0.596
 Vibration    15          0.932              1.085              0.494

 Optimization completed.
    -- Stationary point found.
 Normal termination of Gaussian 09 at Mon Jan 27 15:04:55 2020.
