 Gaussian 09, Revision D.01,
 Gaussian 09:  ES64L-G09RevD.01 24-Apr-2013

 -----------------------------
 # b3lyp 6-31G(2df,p) opt Freq
 -----------------------------

 -----
 titel
 -----
 Symbolic Z-matrix:
 Charge =  0 Multiplicity = 1

 SCF Done:  E(RB3LYP) =  -423.105676919     A.U. after   14 cycles
 Optimization completed.
    -- Stationary point found.
 Normal termination of Gaussian 09 at Mon Jan 27 11:15:07 2020.

 ----------------------------------------------------------------------
 #N Geom=AllCheck Guess=TCheck SCRF=Check GenChk RB3LYP/6-31G(2df,p) Fr
 eq
 ----------------------------------------------------------------------

 Structure from the checkpoint file:  "/scratch/puck/g09_a62536f6-3b54-4c3e-a043-a09d07fceaab/Gau-18564.chk"
 -----
 titel
 -----
 Charge =  0 Multiplicity = 1

                         Standard orientation:
 ---------------------------------------------------------------------
 Center     Atomic      Atomic             Coordinates (Angstroms)
 Number     Number       Type             X           Y           Z
 ---------------------------------------------------------------------
      1          6           0        4.588862   -0.573234   -0.249153
      2          6           0        3.538084   -0.007230   -0.118092
      3          6           0        2.280457    0.711033    0.041349
      4          8           0        1.203300   -0.202935    0.094982
      5          6           0       -0.044015    0.442891    0.252345
      6          6           0       -1.132670   -0.624354    0.267270
      7          6           0       -2.501866   -0.027062    0.474652
      8          6           0       -3.695108   -0.541288   -0.207057
      9          8           0       -3.071518    0.668172   -0.640906
     10          1           0        5.514855   -1.079770   -0.365871
     11          1           0        2.316284    1.320509    0.961128
     12          1           0        2.147379    1.416594   -0.796872
     13          1           0       -0.059426    1.024366    1.191184
     14          1           0       -0.223908    1.151345   -0.572254
     15          1           0       -1.107891   -1.173187   -0.679500
     16          1           0       -0.918171   -1.340684    1.069419
     17          1           0       -2.651060    0.485801    1.427426
     18          1           0       -3.598909   -1.386810   -0.887114
     19          1           0       -4.675875   -0.424594    0.251962
 ---------------------------------------------------------------------

 SCF Done:  E(RB3LYP) =  -423.105676920     A.U. after    1 cycles

 The electronic state is 1-A.
 Alpha  occ. eigenvalues --  -19.15135 -19.14775 -10.25609 -10.24213 -10.23562
 Alpha  occ. eigenvalues --  -10.23381 -10.19065 -10.18429 -10.17774  -1.07126
 Alpha  occ. eigenvalues --   -1.04274  -0.79580  -0.75910  -0.69897  -0.66793
 Alpha  occ. eigenvalues --   -0.63145  -0.59219  -0.53489  -0.51163  -0.50376
 Alpha  occ. eigenvalues --   -0.49044  -0.47782  -0.45807  -0.44213  -0.39951
 Alpha  occ. eigenvalues --   -0.38892  -0.37291  -0.35683  -0.33403  -0.30220
 Alpha  occ. eigenvalues --   -0.27721  -0.27681  -0.26924  -0.25735
 Alpha virt. eigenvalues --    0.03210   0.05506   0.09454   0.10143   0.10670
 Alpha virt. eigenvalues --    0.11805   0.12224   0.12636   0.13784   0.15145
 Alpha virt. eigenvalues --    0.16158   0.17500   0.18665   0.19654   0.20153

 Mulliken charges:
               1
     1  C   -0.414139
     2  C    0.279766
     3  C   -0.207200
     4  O   -0.246740
     5  C   -0.034889
     6  C   -0.240863
     7  C    0.092988
     8  C   -0.179085
     9  O   -0.235956
    10  H    0.200356
    11  H    0.117553
    12  H    0.120435
    13  H    0.085312
    14  H    0.108154
    15  H    0.116522
    16  H    0.114436
    17  H    0.092086
    18  H    0.115750
    19  H    0.115514
 Sum of Mulliken charges =   0.00000

 Dipole moment (field-independent basis, Debye):
    X=             -0.3708    Y=             -0.2233    Z=              1.1419  Tot=              1.2212
 Quadrupole moment (field-independent basis, Debye-Ang):
   XX=            -48.1521   YY=            -52.8813   ZZ=            -53.5420
   XY=              4.4405   XZ=             -3.6349   YZ=              1.9684

  Exact polarizability: 113.520  -6.276  65.359  -1.077   3.497  60.149
 Approx polarizability: 137.681 -15.761 102.837  -1.251   3.064  92.272

                      1                      2                      3
                      A                      A                      A
 Frequencies --     38.1375                63.8306                87.3872
 Red. masses --      4.5042                 3.3919                 3.4261
 Frc consts  --      0.0039                 0.0081                 0.0154
 IR Inten    --      0.4769                 3.4031                 1.6845

                      4                      5                      6
                      A                      A                      A
 Frequencies --    118.6284               127.2410               174.3739
 Red. masses --      3.1370                 2.8678                 3.5352
 Frc consts  --      0.0260                 0.0274                 0.0633
 IR Inten    --      1.6725                 5.9714                 1.1854

                      7                      8                      9
                      A                      A                      A
 Frequencies --    300.9846               315.4834               334.0399
 Red. masses --      4.8360                 3.7699                 3.4949
 Frc consts  --      0.2581                 0.2211                 0.2298
 IR Inten    --      1.2759                 0.2834                 1.9680

                     10                     11                     12
                      A                      A                      A
 Frequencies --    446.5246               470.0411               568.5576
 Red. masses --      2.6255                 3.3650                 5.6495
 Frc consts  --      0.3084                 0.4380                 1.0760
 IR Inten    --      7.6263                 1.3771                 3.7413

                     13                     14                     15
                      A                      A                      A
 Frequencies --    608.1030               676.0298               780.2596
 Red. masses --      1.1925                 1.2410                 2.0154
 Frc consts  --      0.2598                 0.3342                 0.7229
 IR Inten    --     44.4690                34.8658                 7.1871

                     16                     17                     18
                      A                      A                      A
 Frequencies --    819.8054               876.8086               946.9221
 Red. masses --      1.6004                 2.1376                 3.1938
 Frc consts  --      0.6337                 0.9682                 1.6873
 IR Inten    --      6.0612                18.0755                21.9195

                     19                     20                     21
                      A                      A                      A
 Frequencies --    974.1816              1007.9572              1028.4174
 Red. masses --      3.2586                 2.1975                 2.3413
 Frc consts  --      1.8220                 1.3154                 1.4589
 IR Inten    --      2.7595                19.2107                12.7645

                     22                     23                     24
                      A                      A                      A
 Frequencies --   1036.5102              1073.0693              1117.8502
 Red. masses --      1.8534                 1.5652                 2.1255
 Frc consts  --      1.1732                 1.0619                 1.5649
 IR Inten    --      6.8673                 1.7592                10.0785

                     25                     26                     27
                      A                      A                      A
 Frequencies --   1146.4560              1158.7203              1160.6306
 Red. masses --      7.5381                 1.7096                 1.3796
 Frc consts  --      5.8375                 1.3524                 1.0950
 IR Inten    --    266.1667                 6.4773                 2.8214

                     28                     29                     30
                      A                      A                      A
 Frequencies --   1180.7459              1238.0305              1256.3061
 Red. masses --      1.5400                 1.1995                 1.1143
 Frc consts  --      1.2650                 1.0832                 1.0362
 IR Inten    --      2.5496                 1.0812                 6.0945

                     31                     32                     33
                      A                      A                      A
 Frequencies --   1290.4248              1305.0454              1310.3402
 Red. masses --      1.6102                 1.2895                 1.1444
 Frc consts  --      1.5798                 1.2940                 1.1577
 IR Inten    --      4.0659                 8.2692                 2.2598

                     34                     35                     36
                      A                      A                      A
 Frequencies --   1386.2241              1442.8955              1452.3539
 Red. masses --      1.2855                 1.4855                 1.7087
 Frc consts  --      1.4555                 1.8222                 2.1235
 IR Inten    --     78.7005                19.0913                 6.9825

                     37                     38                     39
                      A                      A                      A
 Frequencies --   1476.8769              1497.8722              1529.5390
 Red. masses --      1.1034                 1.0800                 1.0890
 Frc consts  --      1.4180                 1.4277                 1.5011
 IR Inten    --      4.7069                 3.5461                 3.8425

                     40                     41                     42
                      A                      A                      A
 Frequencies --   1531.7525              2248.5818              2945.3328
 Red. masses --      1.3712                 5.8951                 1.0580
 Frc consts  --      1.8955                17.5613                 5.4074
 IR Inten    --      3.4610                 1.9455                15.2979

                     43                     44                     45
                      A                      A                      A
 Frequencies --   2954.5456              2968.8139              2992.2912
 Red. masses --      1.0589                 1.1018                 1.0970
 Frc consts  --      5.4460                 5.7216                 5.7874
 IR Inten    --     72.3916                39.2007                29.9762

                     46                     47                     48
                      A                      A                      A
 Frequencies --   3041.8402              3079.6654              3084.0252
 Red. masses --      1.0604                 1.0737                 1.0666
 Frc consts  --      5.7806                 6.0001                 5.9770
 IR Inten    --     16.8274                15.0284                20.9645

                     49                     50                     51
                      A                      A                      A
 Frequencies --   3099.2788              3169.0717              3506.5342
 Red. masses --      1.0989                 1.1195                 1.1639
 Frc consts  --      6.2192                 6.6240                 8.4318
 IR Inten    --     40.2847                29.0534                62.0435

 - Thermochemistry -
 -------------------
 Temperature   298.150 Kelvin.  Pressure   1.00000 Atm.
 Atom     1 has atomic number  6 and mass  12.00000

 Molecular mass:   126.06808 amu.
 Principal axes and moments of inertia in atomic units:
                           1         2         3
     Eigenvalues --   220.164183567.412203643.21810
           X            0.99996   0.00885  -0.00270
           Y           -0.00851   0.99438   0.10554
           Z            0.00362  -0.10551   0.99441
 This molecule is an asymmetric top.
 Rotational symmetry number  1.
 Rotational temperatures (Kelvin)      0.39341     0.02428     0.02377
 Rotational constants (GHZ):           8.19725     0.50590     0.49537
 Zero-point vibrational energy     409394.0 (Joules/Mol)
                                   97.84752 (Kcal/Mol)
 Warning -- explicit consideration of  13 degrees of freedom as
           vibrations may cause significant error
 Vibrational temperatures:     54.87    91.84   125.73   170.68   183.07
          (Kelvin)            250.88   433.05   453.91   480.61   642.45
                              676.28   818.03   874.92   972.65  1122.62
                             1179.52  1261.53  1362.41  1401.63  1450.22
                             1479.66  1491.31  1543.91  1608.34  1649.49
                             1667.14  1669.89  1698.83  1781.25  1807.54
                             1856.63  1877.67  1885.28  1994.46  2076.00
                             2089.61  2124.89  2155.10  2200.66  2203.85
                             3235.20  4237.67  4250.93  4271.46  4305.23
                             4376.52  4430.95  4437.22  4459.17  4559.58
                             5045.11

 Zero-point correction=                           0.155930 (Hartree/Particle)
 Thermal correction to Energy=                    0.165975
 Thermal correction to Enthalpy=                  0.166919
 Thermal correction to Gibbs Free Energy=         0.119327
 Sum of electronic and zero-point Energies=           -422.949747
 Sum of electronic and thermal Energies=              -422.939702
 Sum of electronic and thermal Enthalpies=            -422.938758
 Sum of electronic and thermal Free Energies=         -422.986350

                     E (Thermal)             CV                S
                      KCal/Mol        Cal/Mol-Kelvin    Cal/Mol-Kelvin
 Total                  104.151             34.816            100.167
 Electronic               0.000              0.000              0.000
 Translational            0.889              2.981             40.409
 Rotational               0.889              2.981             29.438
 Vibrational            102.374             28.855             30.321
 Vibration     1          0.594              1.982              5.354
 Vibration     2          0.597              1.972              4.335
 Vibration     3          0.601              1.958              3.718
 Vibration     4          0.609              1.934              3.123
 Vibration     5          0.611              1.926              2.987
 Vibration     6          0.627              1.874              2.388
 Vibration     7          0.693              1.672              1.411
 Vibration     8          0.703              1.644              1.333
 Vibration     9          0.716              1.608              1.240
 Vibration    10          0.806              1.369              0.806
 Vibration    11          0.827              1.317              0.737
 Vibration    12          0.925              1.099              0.507
 Vibration    13          0.967              1.015              0.436

 Optimization completed.
    -- Stationary point found.
 Normal termination of Gaussian 09 at Mon Jan 27 11:45:04 2020.
