 Gaussian 09, Revision D.01,
 Gaussian 09:  ES64L-G09RevD.01 24-Apr-2013

 -----------------------------
 # b3lyp 6-31G(2df,p) opt Freq
 -----------------------------

 -----
 titel
 -----
 Symbolic Z-matrix:
 Charge =  0 Multiplicity = 1

 SCF Done:  E(RB3LYP) =  -423.171817017     A.U. after   14 cycles
 Optimization completed.
    -- Stationary point found.
 Normal termination of Gaussian 09 at Mon Jan 27 15:55:23 2020.

 ----------------------------------------------------------------------
 #N Geom=AllCheck Guess=TCheck SCRF=Check GenChk RB3LYP/6-31G(2df,p) Fr
 eq
 ----------------------------------------------------------------------

 Structure from the checkpoint file:  "/scratch/puck/g09_14721a1d-2eb5-46bb-ab7e-6e6b33cff9b8/Gau-10334.chk"
 -----
 titel
 -----
 Charge =  0 Multiplicity = 1

                         Standard orientation:
 ---------------------------------------------------------------------
 Center     Atomic      Atomic             Coordinates (Angstroms)
 Number     Number       Type             X           Y           Z
 ---------------------------------------------------------------------
      1          6           0        2.188696    1.730172    0.271068
      2          6           0        1.980968    0.273098   -0.066724
      3          8           0        2.772166   -0.359610   -0.734519
      4          6           0        0.724138   -0.435583    0.449679
      5          8           0        0.752358   -1.783253    0.065030
      6          6           0       -0.560338    0.250537   -0.051443
      7          6           0       -1.818229   -0.500651    0.427885
      8          6           0       -3.050960    0.117157   -0.042575
      9          6           0       -4.051772    0.648673   -0.443768
     10          1           0        1.896942    1.948228    1.302546
     11          1           0        3.232529    2.000392    0.106459
     12          1           0        1.560933    2.348613   -0.380931
     13          1           0        0.746456   -0.362174    1.552600
     14          1           0        1.564946   -1.878193   -0.460081
     15          1           0       -0.597271    1.286180    0.302353
     16          1           0       -0.550915    0.274736   -1.146795
     17          1           0       -1.757124   -1.537685    0.082024
     18          1           0       -1.822398   -0.541397    1.525412
     19          1           0       -4.945308    1.103791   -0.792405
 ---------------------------------------------------------------------

 SCF Done:  E(RB3LYP) =  -423.171817017     A.U. after    1 cycles

 The electronic state is 1-A.
 Alpha  occ. eigenvalues --  -19.15349 -19.13439 -10.28631 -10.24695 -10.20876
 Alpha  occ. eigenvalues --  -10.20522 -10.20108 -10.18006 -10.16883  -1.06961
 Alpha  occ. eigenvalues --   -1.01675  -0.81461  -0.77418  -0.73538  -0.69159
 Alpha  occ. eigenvalues --   -0.62226  -0.56633  -0.52305  -0.51215  -0.49415
 Alpha  occ. eigenvalues --   -0.46917  -0.45661  -0.45182  -0.42724  -0.42265
 Alpha  occ. eigenvalues --   -0.40349  -0.38967  -0.36695  -0.36342  -0.34538
 Alpha  occ. eigenvalues --   -0.27832  -0.27160  -0.26246  -0.25918
 Alpha virt. eigenvalues --   -0.03146   0.05757   0.06033   0.07721   0.11009
 Alpha virt. eigenvalues --    0.11782   0.12807   0.13266   0.14219   0.15004
 Alpha virt. eigenvalues --    0.16210   0.16563   0.19295   0.20642   0.21993

 Mulliken charges:
               1
     1  C   -0.482308
     2  C    0.364731
     3  O   -0.317196
     4  C    0.030916
     5  O   -0.436907
     6  C   -0.203036
     7  C   -0.352601
     8  C    0.287771
     9  C   -0.433942
    10  H    0.141586
    11  H    0.152047
    12  H    0.160083
    13  H    0.087245
    14  H    0.293907
    15  H    0.108934
    16  H    0.119755
    17  H    0.158606
    18  H    0.126864
    19  H    0.193545
 Sum of Mulliken charges =   0.00000

 Dipole moment (field-independent basis, Debye):
    X=              0.1463    Y=              2.4251    Z=              1.0079  Tot=              2.6303
 Quadrupole moment (field-independent basis, Debye-Ang):
   XX=            -56.7058   YY=            -53.3702   ZZ=            -52.6663
   XY=              1.8659   XZ=              3.8079   YZ=              0.1742

  Exact polarizability: 103.558  -7.121  72.496   2.787  -0.070  60.699
 Approx polarizability: 137.470 -20.582 108.717   3.466   0.087  97.579

                      1                      2                      3
                      A                      A                      A
 Frequencies --     51.9587                79.8489                94.3392
 Red. masses --      3.8538                 3.6689                 2.4707
 Frc consts  --      0.0061                 0.0138                 0.0130
 IR Inten    --      1.3157                 0.1728                 0.9092

                      4                      5                      6
                      A                      A                      A
 Frequencies --    105.7178               122.9450               213.2828
 Red. masses --      2.6716                 1.2732                 3.7361
 Frc consts  --      0.0176                 0.0113                 0.1001
 IR Inten    --      0.3547                 0.6335                 1.9445

                      7                      8                      9
                      A                      A                      A
 Frequencies --    258.4984               325.2400               350.6212
 Red. masses --      4.4112                 3.5606                 3.4501
 Frc consts  --      0.1737                 0.2219                 0.2499
 IR Inten    --      1.6799                 7.5317                 2.4102

                     10                     11                     12
                      A                      A                      A
 Frequencies --    399.7211               445.6461               477.8904
 Red. masses --      4.2836                 1.7819                 2.5734
 Frc consts  --      0.4033                 0.2085                 0.3463
 IR Inten    --     18.3830                32.4128                 1.3688

                     13                     14                     15
                      A                      A                      A
 Frequencies --    502.4446               597.1985               615.7664
 Red. masses --      2.1287                 2.9930                 1.1994
 Frc consts  --      0.3166                 0.6289                 0.2680
 IR Inten    --     26.7960                13.8575                44.1318

                     16                     17                     18
                      A                      A                      A
 Frequencies --    637.8760               640.7255               774.6957
 Red. masses --      1.5600                 1.8359                 1.3989
 Frc consts  --      0.3740                 0.4441                 0.4947
 IR Inten    --     37.5047                11.5220                 1.2356

                     19                     20                     21
                      A                      A                      A
 Frequencies --    816.7285               938.3964               957.7637
 Red. masses --      2.6349                 2.3988                 2.5482
 Frc consts  --      1.0356                 1.2446                 1.3772
 IR Inten    --      6.4372                 3.6053                 3.1669

                     22                     23                     24
                      A                      A                      A
 Frequencies --    973.9328               999.8566              1055.6024
 Red. masses --      2.1807                 2.2850                 2.9064
 Frc consts  --      1.2187                 1.3459                 1.9081
 IR Inten    --     21.6130                 3.7565                 4.3154

                     25                     26                     27
                      A                      A                      A
 Frequencies --   1088.8452              1140.1081              1186.0348
 Red. masses --      2.2380                 3.2917                 1.4852
 Frc consts  --      1.5633                 2.5209                 1.2310
 IR Inten    --      0.2119               103.0491                25.6191

                     28                     29                     30
                      A                      A                      A
 Frequencies --   1220.8914              1252.0158              1293.4030
 Red. masses --      1.6011                 1.4026                 1.3634
 Frc consts  --      1.4062                 1.2954                 1.3438
 IR Inten    --     11.9581                32.8217                45.0552

                     31                     32                     33
                      A                      A                      A
 Frequencies --   1313.9416              1361.7282              1376.0007
 Red. masses --      1.1643                 1.3343                 1.3722
 Frc consts  --      1.1843                 1.4578                 1.5307
 IR Inten    --      3.5109                 1.8894                11.6757

                     34                     35                     36
                      A                      A                      A
 Frequencies --   1386.8640              1438.1021              1463.8921
 Red. masses --      1.3248                 1.3480                 1.0611
 Frc consts  --      1.5013                 1.6425                 1.3397
 IR Inten    --     36.3017                88.5664                 8.2734

                     37                     38                     39
                      A                      A                      A
 Frequencies --   1470.1162              1475.6314              1487.2399
 Red. masses --      1.0762                 1.0593                 1.0990
 Frc consts  --      1.3704                 1.3590                 1.4322
 IR Inten    --      4.5322                 8.3346                 0.9595

                     40                     41                     42
                      A                      A                      A
 Frequencies --   1795.0710              2239.0086              2939.4156
 Red. masses --     10.6096                 5.9366                 1.0802
 Frc consts  --     20.1425                17.5349                 5.4989
 IR Inten    --    144.2642                 3.5936                33.4297

                     43                     44                     45
                      A                      A                      A
 Frequencies --   3021.2583              3041.1436              3044.6095
 Red. masses --      1.0659                 1.0448                 1.0518
 Frc consts  --      5.7327                 5.6933                 5.7447
 IR Inten    --     10.4856                 6.1609                14.0115

                     46                     47                     48
                      A                      A                      A
 Frequencies --   3074.6830              3096.5571              3106.8428
 Red. masses --      1.0929                 1.1039                 1.0967
 Frc consts  --      6.0874                 6.2363                 6.2368
 IR Inten    --      0.9432                25.7632                 5.0953

                     49                     50                     51
                      A                      A                      A
 Frequencies --   3153.1720              3507.5124              3658.4789
 Red. masses --      1.1028                 1.1620                 1.0643
 Frc consts  --      6.4599                 8.4227                 8.3928
 IR Inten    --      7.5014                68.4619               102.7288

 - Thermochemistry -
 -------------------
 Temperature   298.150 Kelvin.  Pressure   1.00000 Atm.
 Atom     1 has atomic number  6 and mass  12.00000

 Molecular mass:   126.06808 amu.
 Principal axes and moments of inertia in atomic units:
                           1         2         3
     Eigenvalues --   532.071652399.968612749.76018
           X            0.99987   0.01493   0.00659
           Y           -0.01497   0.99987   0.00540
           Z           -0.00651  -0.00550   0.99996
 This molecule is an asymmetric top.
 Rotational symmetry number  1.
 Warning -- assumption of classical behavior for rotation
           may cause significant error
 Rotational temperatures (Kelvin)      0.16279     0.03609     0.03150
 Rotational constants (GHZ):           3.39191     0.75199     0.65633
 Zero-point vibrational energy     407144.6 (Joules/Mol)
                                   97.30990 (Kcal/Mol)
 Warning -- explicit consideration of  15 degrees of freedom as
           vibrations may cause significant error
 Vibrational temperatures:     74.76   114.88   135.73   152.10   176.89
          (Kelvin)            306.87   371.92   467.95   504.47   575.11
                              641.18   687.58   722.90   859.23   885.95
                              917.76   921.86  1114.61  1175.09  1350.14
                             1378.01  1401.27  1438.57  1518.77  1566.60
                             1640.36  1706.44  1756.59  1801.37  1860.92
                             1890.47  1959.22  1979.76  1995.39  2069.11
                             2106.21  2115.17  2123.10  2139.80  2582.70
                             3221.43  4229.16  4346.91  4375.52  4380.51
                             4423.78  4455.25  4470.05  4536.71  5046.52
                             5263.73

 Zero-point correction=                           0.155073 (Hartree/Particle)
 Thermal correction to Energy=                    0.165597
 Thermal correction to Enthalpy=                  0.166541
 Thermal correction to Gibbs Free Energy=         0.118588
 Sum of electronic and zero-point Energies=           -423.016744
 Sum of electronic and thermal Energies=              -423.006220
 Sum of electronic and thermal Enthalpies=            -423.005276
 Sum of electronic and thermal Free Energies=         -423.053229

                     E (Thermal)             CV                S
                      KCal/Mol        Cal/Mol-Kelvin    Cal/Mol-Kelvin
 Total                  103.914             37.322            100.925
 Electronic               0.000              0.000              0.000
 Translational            0.889              2.981             40.409
 Rotational               0.889              2.981             29.642
 Vibrational            102.136             31.360             30.875
 Vibration     1          0.596              1.977              4.741
 Vibration     2          0.600              1.963              3.895
 Vibration     3          0.603              1.953              3.568
 Vibration     4          0.605              1.945              3.346
 Vibration     5          0.610              1.930              3.054
 Vibration     6          0.644              1.821              2.015
 Vibration     7          0.667              1.748              1.672
 Vibration     8          0.709              1.625              1.284
 Vibration     9          0.728              1.574              1.163
 Vibration    10          0.766              1.471              0.964
 Vibration    11          0.805              1.371              0.809
 Vibration    12          0.834              1.299              0.716
 Vibration    13          0.858              1.245              0.652
 Vibration    14          0.955              1.038              0.454
 Vibration    15          0.975              0.999              0.423

 Optimization completed.
    -- Stationary point found.
 Normal termination of Gaussian 09 at Mon Jan 27 17:24:41 2020.
