 Gaussian 09, Revision D.01,
 Gaussian 09:  ES64L-G09RevD.01 24-Apr-2013

 -----------------------------
 # b3lyp 6-31G(2df,p) opt Freq
 -----------------------------

 -----
 titel
 -----
 Symbolic Z-matrix:
 Charge =  0 Multiplicity = 1

 SCF Done:  E(RB3LYP) =  -423.092338571     A.U. after   13 cycles
 Optimization completed.
    -- Stationary point found.
 Normal termination of Gaussian 09 at Mon Jan 27 17:05:23 2020.

 ----------------------------------------------------------------------
 #N Geom=AllCheck Guess=TCheck SCRF=Check GenChk RB3LYP/6-31G(2df,p) Fr
 eq
 ----------------------------------------------------------------------

 Structure from the checkpoint file:  "/scratch/puck/g09_3b9eab99-d2ea-4153-ad86-d2a89fd51283/Gau-179019.chk"
 -----
 titel
 -----
 Charge =  0 Multiplicity = 1

                         Standard orientation:
 ---------------------------------------------------------------------
 Center     Atomic      Atomic             Coordinates (Angstroms)
 Number     Number       Type             X           Y           Z
 ---------------------------------------------------------------------
      1          6           0       -1.664881    1.806456    0.035391
      2          6           0       -1.188530    0.387662    0.036358
      3          6           0       -1.310921   -0.707592    1.133585
      4          6           0       -0.815566   -1.360341   -0.174772
      5          8           0       -1.825319   -0.568666   -0.911412
      6          6           0        0.194030   -0.201737   -0.403866
      7          6           0        1.443994   -0.035183    0.408624
      8          6           0        2.537282    0.833133   -0.054077
      9          8           0        2.636278   -0.583849   -0.171468
     10          1           0       -1.106827    2.395784    0.769825
     11          1           0       -1.523614    2.257757   -0.951341
     12          1           0       -2.728091    1.853066    0.289577
     13          1           0       -0.646065   -0.670636    1.999304
     14          1           0       -2.336757   -0.959740    1.405393
     15          1           0       -0.719049   -2.414486   -0.431965
     16          1           0        0.395025   -0.037247   -1.465485
     17          1           0        1.370004   -0.206734    1.481957
     18          1           0        2.429179    1.374183   -0.993627
     19          1           0        3.206078    1.293793    0.671952
 ---------------------------------------------------------------------

 SCF Done:  E(RB3LYP) =  -423.092338571     A.U. after    1 cycles

 The electronic state is 1-A.
 Alpha  occ. eigenvalues --  -19.15323 -19.12913 -10.25592 -10.24751 -10.24232
 Alpha  occ. eigenvalues --  -10.23743 -10.19914 -10.19250 -10.18835  -1.07319
 Alpha  occ. eigenvalues --   -1.05437  -0.79990  -0.74696  -0.70995  -0.66427
 Alpha  occ. eigenvalues --   -0.62236  -0.61288  -0.54806  -0.49994  -0.48307
 Alpha  occ. eigenvalues --   -0.47717  -0.45103  -0.43763  -0.42322  -0.40672
 Alpha  occ. eigenvalues --   -0.39442  -0.37139  -0.35282  -0.33921  -0.32848
 Alpha  occ. eigenvalues --   -0.32006  -0.29207  -0.27048  -0.23714
 Alpha virt. eigenvalues --    0.08033   0.09077   0.09734   0.10597   0.11941
 Alpha virt. eigenvalues --    0.12248   0.12797   0.13632   0.14567   0.15161
 Alpha virt. eigenvalues --    0.16609   0.17114   0.17406   0.18317   0.20342

 Mulliken charges:
               1
     1  C   -0.512958
     2  C    0.388399
     3  C   -0.276980
     4  C    0.030488
     5  O   -0.342016
     6  C   -0.023891
     7  C    0.038965
     8  C   -0.183236
     9  O   -0.233188
    10  H    0.127087
    11  H    0.134998
    12  H    0.136453
    13  H    0.096984
    14  H    0.107502
    15  H    0.099458
    16  H    0.087248
    17  H    0.094751
    18  H    0.114622
    19  H    0.115313
 Sum of Mulliken charges =   0.00000

 Dipole moment (field-independent basis, Debye):
    X=              0.0471    Y=              1.8196    Z=              1.7096  Tot=              2.4972
 Quadrupole moment (field-independent basis, Debye-Ang):
   XX=            -59.3683   YY=            -50.5047   ZZ=            -53.1091
   XY=              2.8225   XZ=             -1.8103   YZ=             -1.2352

  Exact polarizability:  85.344   4.166  75.355  -2.294  -1.852  67.598
 Approx polarizability: 115.577   3.586 111.339  -1.048  -0.680 106.080

                      1                      2                      3
                      A                      A                      A
 Frequencies --     53.7087               137.4888               177.3428
 Red. masses --      3.5158                 3.1283                 1.1464
 Frc consts  --      0.0060                 0.0348                 0.0212
 IR Inten    --      2.2075                 1.6730                 0.3895

                      4                      5                      6
                      A                      A                      A
 Frequencies --    219.1453               268.1398               310.9641
 Red. masses --      2.7698                 3.3936                 2.6749
 Frc consts  --      0.0784                 0.1438                 0.1524
 IR Inten    --      1.4045                 3.3703                 3.3238

                      7                      8                      9
                      A                      A                      A
 Frequencies --    350.2132               474.0087               528.1697
 Red. masses --      3.8420                 3.4199                 2.5322
 Frc consts  --      0.2776                 0.4527                 0.4162
 IR Inten    --      0.4075                 4.7053                 7.4091

                     10                     11                     12
                      A                      A                      A
 Frequencies --    600.4658               643.0072               710.5953
 Red. masses --      2.8184                 3.3653                 4.7550
 Frc consts  --      0.5987                 0.8198                 1.4146
 IR Inten    --      8.4661                 0.8672                17.6885

                     13                     14                     15
                      A                      A                      A
 Frequencies --    819.0850               854.7276               867.9591
 Red. masses --      3.2494                 4.6210                 2.2927
 Frc consts  --      1.2844                 1.9890                 1.0176
 IR Inten    --      7.4076                11.6094                18.6465

                     16                     17                     18
                      A                      A                      A
 Frequencies --    874.6858               913.3757               921.1755
 Red. masses --      2.1932                 2.5311                 3.0671
 Frc consts  --      0.9886                 1.2441                 1.5334
 IR Inten    --     19.4866                 3.8473                24.4458

                     19                     20                     21
                      A                      A                      A
 Frequencies --    956.9846              1006.2069              1015.4182
 Red. masses --      2.3787                 1.3736                 1.4831
 Frc consts  --      1.2835                 0.8194                 0.9010
 IR Inten    --      2.7182                 4.6477                13.7587

                     22                     23                     24
                      A                      A                      A
 Frequencies --   1056.8066              1078.5706              1097.6344
 Red. masses --      1.8268                 1.4791                 1.3544
 Frc consts  --      1.2021                 1.0138                 0.9614
 IR Inten    --      5.2455                 3.7533                 2.8968

                     25                     26                     27
                      A                      A                      A
 Frequencies --   1140.3528              1152.4600              1161.2633
 Red. masses --      1.6150                 1.5896                 1.4499
 Frc consts  --      1.2374                 1.2439                 1.1520
 IR Inten    --      4.8005                 0.2752                 2.1274

                     28                     29                     30
                      A                      A                      A
 Frequencies --   1180.4438              1184.3556              1205.5963
 Red. masses --      1.6064                 1.8173                 1.6171
 Frc consts  --      1.3188                 1.5019                 1.3848
 IR Inten    --      1.7624                 1.6911                14.4431

                     31                     32                     33
                      A                      A                      A
 Frequencies --   1226.6475              1255.7258              1291.2940
 Red. masses --      1.4607                 2.0846                 1.7858
 Frc consts  --      1.2950                 1.9367                 1.7545
 IR Inten    --      9.0023                 8.2074                32.2271

                     34                     35                     36
                      A                      A                      A
 Frequencies --   1297.2001              1343.6121              1408.7135
 Red. masses --      1.4299                 2.2318                 1.5208
 Frc consts  --      1.4177                 2.3738                 1.7781
 IR Inten    --      1.2338                 7.6120                12.3744

                     37                     38                     39
                      A                      A                      A
 Frequencies --   1462.1846              1476.2975              1488.4507
 Red. masses --      1.6846                 1.0482                 1.0478
 Frc consts  --      2.1220                 1.3460                 1.3678
 IR Inten    --      6.8066                 3.1027                 4.7744

                     40                     41                     42
                      A                      A                      A
 Frequencies --   1500.1801              1528.5721              3039.0123
 Red. masses --      1.2506                 1.3543                 1.0346
 Frc consts  --      1.6583                 1.8644                 5.6298
 IR Inten    --      5.3259                 2.9755                14.2819

                     43                     44                     45
                      A                      A                      A
 Frequencies --   3067.5673              3079.8014              3088.0350
 Red. masses --      1.0568                 1.0506                 1.0845
 Frc consts  --      5.8592                 5.8711                 6.0930
 IR Inten    --     26.3545                24.1991                10.9642

                     46                     47                     48
                      A                      A                      A
 Frequencies --   3113.4029              3114.3359              3115.4548
 Red. masses --      1.0990                 1.0904                 1.1007
 Frc consts  --      6.2764                 6.2309                 6.2946
 IR Inten    --      6.3222                25.3773                20.7988

                     49                     50                     51
                      A                      A                      A
 Frequencies --   3129.0562              3145.2904              3166.6740
 Red. masses --      1.0939                 1.1093                 1.1192
 Frc consts  --      6.3103                 6.4656                 6.6125
 IR Inten    --     43.2331                27.5421                30.0178

 - Thermochemistry -
 -------------------
 Temperature   298.150 Kelvin.  Pressure   1.00000 Atm.
 Atom     1 has atomic number  6 and mass  12.00000

 Molecular mass:   126.06808 amu.
 Principal axes and moments of inertia in atomic units:
                           1         2         3
     Eigenvalues --   574.334961531.740621770.07272
           X            0.99995   0.00106  -0.00980
           Y           -0.00136   0.99953  -0.03057
           Z            0.00976   0.03058   0.99948
 This molecule is an asymmetric top.
 Rotational symmetry number  1.
 Warning -- assumption of classical behavior for rotation
           may cause significant error
 Rotational temperatures (Kelvin)      0.15081     0.05655     0.04893
 Rotational constants (GHZ):           3.14231     1.17823     1.01959
 Zero-point vibrational energy     414493.2 (Joules/Mol)
                                   99.06626 (Kcal/Mol)
 Warning -- explicit consideration of  10 degrees of freedom as
           vibrations may cause significant error
 Vibrational temperatures:     77.27   197.82   255.16   315.30   385.79
          (Kelvin)            447.41   503.88   681.99   759.92   863.94
                              925.14  1022.39  1178.48  1229.76  1248.80
                             1258.48  1314.14  1325.36  1376.89  1447.71
                             1460.96  1520.51  1551.82  1579.25  1640.71
                             1658.13  1670.80  1698.39  1704.02  1734.58
                             1764.87  1806.71  1857.88  1866.38  1933.16
                             2026.82  2103.75  2124.06  2141.55  2158.42
                             2199.27  4372.46  4413.54  4431.14  4442.99
                             4479.49  4480.83  4482.44  4502.01  4525.37
                             4556.13

 Zero-point correction=                           0.157872 (Hartree/Particle)
 Thermal correction to Energy=                    0.166170
 Thermal correction to Enthalpy=                  0.167115
 Thermal correction to Gibbs Free Energy=         0.124548
 Sum of electronic and zero-point Energies=           -422.934466
 Sum of electronic and thermal Energies=              -422.926168
 Sum of electronic and thermal Enthalpies=            -422.925224
 Sum of electronic and thermal Free Energies=         -422.967790

                     E (Thermal)             CV                S
                      KCal/Mol        Cal/Mol-Kelvin    Cal/Mol-Kelvin
 Total                  104.273             31.681             89.588
 Electronic               0.000              0.000              0.000
 Translational            0.889              2.981             40.409
 Rotational               0.889              2.981             28.834
 Vibrational            102.496             25.720             20.346
 Vibration     1          0.596              1.976              4.676
 Vibration     2          0.614              1.916              2.839
 Vibration     3          0.628              1.870              2.356
 Vibration     4          0.647              1.812              1.966
 Vibration     5          0.673              1.732              1.608
 Vibration     6          0.700              1.653              1.357
 Vibration     7          0.727              1.575              1.165
 Vibration     8          0.831              1.308              0.726
 Vibration     9          0.883              1.188              0.591
 Vibration    10          0.959              1.031              0.449

 Optimization completed.
    -- Stationary point found.
 Normal termination of Gaussian 09 at Mon Jan 27 17:44:36 2020.
