 Gaussian 09, Revision D.01,
 Gaussian 09:  ES64L-G09RevD.01 24-Apr-2013

 -----------------------------
 # b3lyp 6-31G(2df,p) opt Freq
 -----------------------------

 -----
 titel
 -----
 Symbolic Z-matrix:
 Charge =  0 Multiplicity = 1

 SCF Done:  E(RB3LYP) =  -423.155984350     A.U. after   13 cycles
 Optimization completed.
    -- Stationary point found.
 Normal termination of Gaussian 09 at Mon Jan 27 22:51:11 2020.

 ----------------------------------------------------------------------
 #N Geom=AllCheck Guess=TCheck SCRF=Check GenChk RB3LYP/6-31G(2df,p) Fr
 eq
 ----------------------------------------------------------------------

 Structure from the checkpoint file:  "/scratch/puck/g09_b809f267-07ff-483c-940c-e68423579384/Gau-191419.chk"
 -----
 titel
 -----
 Charge =  0 Multiplicity = 1

                         Standard orientation:
 ---------------------------------------------------------------------
 Center     Atomic      Atomic             Coordinates (Angstroms)
 Number     Number       Type             X           Y           Z
 ---------------------------------------------------------------------
      1          6           0        0.513039    2.301816   -0.489241
      2          6           0        0.302833    0.883335   -0.057673
      3          6           0        1.089823    0.089645    0.938474
      4          6           0        1.606861   -1.179038    0.273452
      5          8           0        0.908609   -1.257945   -0.977342
      6          6           0       -0.167341   -0.335846   -0.901125
      7          6           0       -1.178994   -0.698396    0.239748
      8          8           0       -2.474139   -0.170487    0.021034
      9          6           0       -0.412681    0.258337    1.139798
     10          1           0        1.306531    2.374548   -1.242337
     11          1           0       -0.399730    2.726784   -0.920502
     12          1           0        0.802807    2.930477    0.359433
     13          1           0        1.725911    0.611557    1.644587
     14          1           0        2.683293   -1.119499    0.071539
     15          1           0        1.420751   -2.083493    0.868305
     16          1           0       -0.588236   -0.184479   -1.895860
     17          1           0       -1.220030   -1.762391    0.516615
     18          1           0       -2.909959   -0.726204   -0.633650
     19          1           0       -0.818340    0.741022    2.021736
 ---------------------------------------------------------------------

 SCF Done:  E(RB3LYP) =  -423.155984350     A.U. after    1 cycles

 The electronic state is 1-A.
 Alpha  occ. eigenvalues --  -19.13690 -19.13393 -10.22805 -10.22647 -10.22592
 Alpha  occ. eigenvalues --  -10.19448 -10.19390 -10.18992 -10.18087  -1.03899
 Alpha  occ. eigenvalues --   -1.01649  -0.88531  -0.74397  -0.72637  -0.65408
 Alpha  occ. eigenvalues --   -0.62862  -0.56802  -0.53157  -0.51999  -0.48574
 Alpha  occ. eigenvalues --   -0.46062  -0.44233  -0.42337  -0.41359  -0.40667
 Alpha  occ. eigenvalues --   -0.40470  -0.37916  -0.35388  -0.34617  -0.29781
 Alpha  occ. eigenvalues --   -0.29498  -0.27702  -0.25969  -0.22718
 Alpha virt. eigenvalues --    0.07683   0.09480   0.10644   0.11641   0.12823
 Alpha virt. eigenvalues --    0.13514   0.15035   0.15631   0.16113   0.16703
 Alpha virt. eigenvalues --    0.17527   0.18341   0.20084   0.21129   0.21816

 Mulliken charges:
               1
     1  C   -0.525752
     2  C    0.351873
     3  C   -0.142096
     4  C   -0.104049
     5  O   -0.268539
     6  C   -0.019417
     7  C    0.100564
     8  O   -0.439404
     9  C   -0.132068
    10  H    0.123704
    11  H    0.127968
    12  H    0.119895
    13  H    0.091588
    14  H    0.104291
    15  H    0.099605
    16  H    0.077714
    17  H    0.062230
    18  H    0.282393
    19  H    0.089501
 Sum of Mulliken charges =   0.00000

 Dipole moment (field-independent basis, Debye):
    X=              0.2579    Y=              0.2642    Z=              0.3343  Tot=              0.4980
 Quadrupole moment (field-independent basis, Debye-Ang):
   XX=            -52.0990   YY=            -52.8573   ZZ=            -52.3184
   XY=              3.9723   XZ=              5.3167   YZ=             -0.8617

  Exact polarizability:  79.466  -0.047  75.613   3.344  -1.720  68.439
 Approx polarizability: 112.597  -2.010 105.238   3.412  -0.936 107.057

                      1                      2                      3
                      A                      A                      A
 Frequencies --    131.3093               194.5919               220.2679
 Red. masses --      3.7458                 1.0408                 2.2162
 Frc consts  --      0.0381                 0.0232                 0.0634
 IR Inten    --      0.6499                 0.0575                 1.9584

                      4                      5                      6
                      A                      A                      A
 Frequencies --    243.3843               297.0704               320.3195
 Red. masses --      3.0849                 1.3204                 2.8493
 Frc consts  --      0.1077                 0.0687                 0.1722
 IR Inten    --      0.9830                74.6761                37.1402

                      7                      8                      9
                      A                      A                      A
 Frequencies --    328.2324               427.6135               510.0154
 Red. masses --      2.6945                 3.7056                 4.1563
 Frc consts  --      0.1710                 0.3992                 0.6370
 IR Inten    --      2.0268                 1.1269                 6.0201

                     10                     11                     12
                      A                      A                      A
 Frequencies --    589.2218               696.3306               749.1799
 Red. masses --      3.3625                 4.9223                 4.2866
 Frc consts  --      0.6878                 1.4062                 1.4175
 IR Inten    --      1.1040                 6.2281                 0.7058

                     13                     14                     15
                      A                      A                      A
 Frequencies --    768.4911               852.5892               872.4785
 Red. masses --      3.7574                 2.3951                 2.2306
 Frc consts  --      1.3074                 1.0258                 1.0004
 IR Inten    --     14.3628                 2.3083                 4.2723

                     16                     17                     18
                      A                      A                      A
 Frequencies --    914.5979               933.3167               957.7266
 Red. masses --      2.0370                 2.0606                 2.5993
 Frc consts  --      1.0039                 1.0576                 1.4047
 IR Inten    --      4.0619                21.8122                17.7610

                     19                     20                     21
                      A                      A                      A
 Frequencies --    980.6452              1011.2520              1037.8099
 Red. masses --      1.7464                 1.5118                 2.2185
 Frc consts  --      0.9895                 0.9109                 1.4078
 IR Inten    --     15.9558                 7.0491                46.2275

                     22                     23                     24
                      A                      A                      A
 Frequencies --   1056.9996              1076.5727              1089.0220
 Red. masses --      1.6616                 3.0699                 2.7130
 Frc consts  --      1.0937                 2.0964                 1.8957
 IR Inten    --     10.5076                22.3667                 3.0178

                     25                     26                     27
                      A                      A                      A
 Frequencies --   1108.4495              1131.9503              1184.3616
 Red. masses --      2.6481                 2.3442                 1.6452
 Frc consts  --      1.9170                 1.7697                 1.3597
 IR Inten    --     65.5544                25.6626                 1.7760

                     28                     29                     30
                      A                      A                      A
 Frequencies --   1195.8688              1213.6952              1224.4836
 Red. masses --      1.3227                 1.3845                 1.4201
 Frc consts  --      1.1145                 1.2016                 1.2545
 IR Inten    --     23.8596                 9.5180                12.0370

                     31                     32                     33
                      A                      A                      A
 Frequencies --   1241.2992              1285.3394              1310.5357
 Red. masses --      2.1523                 1.3585                 1.4366
 Frc consts  --      1.9539                 1.3224                 1.4538
 IR Inten    --     10.2572                18.8185                 3.2759

                     34                     35                     36
                      A                      A                      A
 Frequencies --   1321.2797              1373.5451              1413.0651
 Red. masses --      1.6164                 1.4689                 1.2362
 Frc consts  --      1.6626                 1.6328                 1.4544
 IR Inten    --     15.1935                 5.5702                 2.0247

                     37                     38                     39
                      A                      A                      A
 Frequencies --   1430.1953              1465.0643              1485.9947
 Red. masses --      1.5605                 3.9720                 1.0528
 Frc consts  --      1.8807                 5.0231                 1.3697
 IR Inten    --     17.4458                 3.3133                 3.3310

                     40                     41                     42
                      A                      A                      A
 Frequencies --   1499.4084              1526.3943              2987.0199
 Red. masses --      1.0656                 1.0884                 1.0834
 Frc consts  --      1.4115                 1.4941                 5.6954
 IR Inten    --      4.3835                 0.5312                57.1693

                     43                     44                     45
                      A                      A                      A
 Frequencies --   3007.6726              3023.7415              3046.5838
 Red. masses --      1.0610                 1.0355                 1.1043
 Frc consts  --      5.6550                 5.5782                 6.0388
 IR Inten    --     98.8738                33.2438                43.9469

                     46                     47                     48
                      A                      A                      A
 Frequencies --   3085.7811              3095.0692              3114.9895
 Red. masses --      1.1005                 1.1008                 1.0905
 Frc consts  --      6.1739                 6.2128                 6.2342
 IR Inten    --     20.9070                17.4547                31.6919

                     49                     50                     51
                      A                      A                      A
 Frequencies --   3176.1312              3186.1235              3809.6748
 Red. masses --      1.0904                 1.0926                 1.0661
 Frc consts  --      6.4806                 6.5347                 9.1162
 IR Inten    --      7.2711                16.8903                19.3788

 - Thermochemistry -
 -------------------
 Temperature   298.150 Kelvin.  Pressure   1.00000 Atm.
 Atom     1 has atomic number  6 and mass  12.00000

 Molecular mass:   126.06808 amu.
 Principal axes and moments of inertia in atomic units:
                           1         2         3
     Eigenvalues --   804.53828 984.583471290.24264
           X            0.99730   0.06793   0.02802
           Y           -0.06667   0.99682  -0.04364
           Z           -0.03089   0.04166   0.99865
 This molecule is an asymmetric top.
 Rotational symmetry number  1.
 Warning -- assumption of classical behavior for rotation
           may cause significant error
 Rotational temperatures (Kelvin)      0.10766     0.08797     0.06713
 Rotational constants (GHZ):           2.24320     1.83300     1.39876
 Zero-point vibrational energy     419905.7 (Joules/Mol)
                                  100.35988 (Kcal/Mol)
 Warning -- explicit consideration of  10 degrees of freedom as
           vibrations may cause significant error
 Vibrational temperatures:    188.92   279.97   316.92   350.18   427.42
          (Kelvin)            460.87   472.25   615.24   733.80   847.76
                             1001.86  1077.90  1105.69  1226.68  1255.30
                             1315.90  1342.83  1377.95  1410.93  1454.96
                             1493.18  1520.78  1548.95  1566.86  1594.81
                             1628.62  1704.03  1720.59  1746.23  1761.76
                             1785.95  1849.31  1885.57  1901.02  1976.22
                             2033.08  2057.73  2107.90  2138.01  2157.31
                             2196.14  4297.65  4327.36  4350.48  4383.35
                             4439.75  4453.11  4481.77  4569.74  4584.12
                             5481.27

 Zero-point correction=                           0.159934 (Hartree/Particle)
 Thermal correction to Energy=                    0.167863
 Thermal correction to Enthalpy=                  0.168807
 Thermal correction to Gibbs Free Energy=         0.127894
 Sum of electronic and zero-point Energies=           -422.996051
 Sum of electronic and thermal Energies=              -422.988122
 Sum of electronic and thermal Enthalpies=            -422.987177
 Sum of electronic and thermal Free Energies=         -423.028090

                     E (Thermal)             CV                S
                      KCal/Mol        Cal/Mol-Kelvin    Cal/Mol-Kelvin
 Total                  105.335             31.270             86.108
 Electronic               0.000              0.000              0.000
 Translational            0.889              2.981             40.409
 Rotational               0.889              2.981             28.415
 Vibrational            103.558             25.308             17.284
 Vibration     1          0.612              1.922              2.927
 Vibration     2          0.635              1.847              2.184
 Vibration     3          0.647              1.810              1.957
 Vibration     4          0.659              1.774              1.778
 Vibration     5          0.691              1.679              1.433
 Vibration     6          0.706              1.635              1.308
 Vibration     7          0.711              1.619              1.269
 Vibration     8          0.789              1.410              0.866
 Vibration     9          0.865              1.228              0.634
 Vibration    10          0.946              1.055              0.469

 Optimization completed.
    -- Stationary point found.
 Normal termination of Gaussian 09 at Mon Jan 27 23:36:12 2020.
