 Gaussian 09, Revision D.01,
 Gaussian 09:  ES64L-G09RevD.01 24-Apr-2013

 -----------------------------
 # b3lyp 6-31G(2df,p) opt Freq
 -----------------------------

 -----
 titel
 -----
 Symbolic Z-matrix:
 Charge =  0 Multiplicity = 1

 SCF Done:  E(RB3LYP) =  -423.158607638     A.U. after   14 cycles
 Optimization completed.
    -- Stationary point found.
 Normal termination of Gaussian 09 at Mon Jan 27 14:07:34 2020.

 ----------------------------------------------------------------------
 #N Geom=AllCheck Guess=TCheck SCRF=Check GenChk RB3LYP/6-31G(2df,p) Fr
 eq
 ----------------------------------------------------------------------

 Structure from the checkpoint file:  "/scratch/puck/g09_88507514-9e79-43c7-99c2-467a3919221e/Gau-4536.chk"
 -----
 titel
 -----
 Charge =  0 Multiplicity = 1

                         Standard orientation:
 ---------------------------------------------------------------------
 Center     Atomic      Atomic             Coordinates (Angstroms)
 Number     Number       Type             X           Y           Z
 ---------------------------------------------------------------------
      1          6           0       -4.183106    0.497276   -0.199250
      2          6           0       -2.852690   -0.041465    0.043948
      3          6           0       -1.752367   -0.483014    0.251163
      4          6           0       -0.413776   -1.012363    0.478376
      5          6           0        0.660149   -0.373363   -0.417327
      6          6           0        2.063140   -0.995418   -0.220854
      7          8           0        2.936259    0.121430   -0.219981
      8          6           0        2.180520    1.150669    0.364714
      9          8           0        0.856994    1.006474   -0.103654
     10          1           0       -4.833729   -0.242427   -0.678997
     11          1           0       -4.665024    0.804789    0.735490
     12          1           0       -4.141558    1.375342   -0.853241
     13          1           0       -0.119119   -0.870364    1.526426
     14          1           0       -0.405789   -2.097250    0.298995
     15          1           0        0.339472   -0.434036   -1.463461
     16          1           0        2.118495   -1.539132    0.736427
     17          1           0        2.360064   -1.668337   -1.027640
     18          1           0        2.209760    1.077744    1.468167
     19          1           0        2.580180    2.116508    0.042298
 ---------------------------------------------------------------------

 SCF Done:  E(RB3LYP) =  -423.158607638     A.U. after    1 cycles

 The electronic state is 1-A.
 Alpha  occ. eigenvalues --  -19.15118 -19.14308 -10.27387 -10.24211 -10.23751
 Alpha  occ. eigenvalues --  -10.20788 -10.19965 -10.16879 -10.16455  -1.09007
 Alpha  occ. eigenvalues --   -0.99541  -0.80598  -0.76665  -0.72894  -0.66968
 Alpha  occ. eigenvalues --   -0.63760  -0.60421  -0.52735  -0.50381  -0.48302
 Alpha  occ. eigenvalues --   -0.46635  -0.44360  -0.43769  -0.42539  -0.42100
 Alpha  occ. eigenvalues --   -0.41693  -0.40566  -0.38309  -0.34307  -0.33579
 Alpha  occ. eigenvalues --   -0.27302  -0.26288  -0.24510  -0.24085
 Alpha virt. eigenvalues --    0.05728   0.06203   0.09409   0.11190   0.11380
 Alpha virt. eigenvalues --    0.11609   0.13622   0.14282   0.15267   0.16528
 Alpha virt. eigenvalues --    0.17626   0.18087   0.19194   0.20457   0.21876

 Mulliken charges:
               1
     1  C   -0.497212
     2  C    0.105804
     3  C    0.039727
     4  C   -0.374899
     5  C    0.118493
     6  C   -0.132883
     7  O   -0.231719
     8  C    0.024294
     9  O   -0.257567
    10  H    0.144795
    11  H    0.146899
    12  H    0.149386
    13  H    0.127024
    14  H    0.124640
    15  H    0.095193
    16  H    0.094638
    17  H    0.121647
    18  H    0.081092
    19  H    0.120647
 Sum of Mulliken charges =   0.00000

 Dipole moment (field-independent basis, Debye):
    X=             -0.6502    Y=             -0.9928    Z=              0.3155  Tot=              1.2280
 Quadrupole moment (field-independent basis, Debye-Ang):
   XX=            -51.3897   YY=            -50.6527   ZZ=            -52.1541
   XY=             -1.8591   XZ=              2.3935   YZ=              0.9727

  Exact polarizability: 107.826  -6.941  71.725   5.000   0.363  61.502
 Approx polarizability: 141.160 -15.573 104.611   8.801  -1.221  91.836

                      1                      2                      3
                      A                      A                      A
 Frequencies --     21.1197                42.9027                55.8301
 Red. masses --      1.0263                 5.0768                 3.6135
 Frc consts  --      0.0003                 0.0055                 0.0066
 IR Inten    --      0.0181                 0.5571                 0.9535

                      4                      5                      6
                      A                      A                      A
 Frequencies --     88.9894               209.4650               238.0153
 Red. masses --      3.1865                 3.4367                 2.7625
 Frc consts  --      0.0149                 0.0888                 0.0922
 IR Inten    --      0.4594                 6.1507                12.0431

                      7                      8                      9
                      A                      A                      A
 Frequencies --    277.4546               323.6757               384.9613
 Red. masses --      2.5448                 3.4429                 3.6158
 Frc consts  --      0.1154                 0.2125                 0.3157
 IR Inten    --      1.5283                 1.7298                 0.0741

                     10                     11                     12
                      A                      A                      A
 Frequencies --    395.5974               493.2361               688.3095
 Red. masses --      3.7684                 3.5907                 3.5395
 Frc consts  --      0.3475                 0.5147                 0.9880
 IR Inten    --      3.8539                 4.8322                 4.3963

                     13                     14                     15
                      A                      A                      A
 Frequencies --    741.2937               772.1453               836.7180
 Red. masses --      7.9071                 3.8164                 2.9908
 Frc consts  --      2.5601                 1.3406                 1.2337
 IR Inten    --      0.6875                 0.5810                16.4202

                     16                     17                     18
                      A                      A                      A
 Frequencies --    909.5702               970.3383              1013.8145
 Red. masses --      1.7277                 3.5112                 3.7677
 Frc consts  --      0.8422                 1.9479                 2.2816
 IR Inten    --      4.2522                93.7558                12.1835

                     19                     20                     21
                      A                      A                      A
 Frequencies --   1042.7185              1052.1646              1055.9050
 Red. masses --      3.1764                 1.4077                 1.4839
 Frc consts  --      2.0348                 0.9182                 0.9748
 IR Inten    --      6.0266                 0.7435                 0.8271

                     22                     23                     24
                      A                      A                      A
 Frequencies --   1085.6059              1105.3720              1118.3987
 Red. masses --      4.5810                 2.3284                 3.2689
 Frc consts  --      3.1809                 1.6762                 2.4091
 IR Inten    --     55.7467                61.5017                87.4315

                     25                     26                     27
                      A                      A                      A
 Frequencies --   1171.9657              1181.2777              1212.4622
 Red. masses --      3.0354                 1.8388                 1.1137
 Frc consts  --      2.4564                 1.5118                 0.9647
 IR Inten    --      1.5554                79.0704                 0.5794

                     28                     29                     30
                      A                      A                      A
 Frequencies --   1242.3578              1270.6566              1293.6222
 Red. masses --      1.2609                 1.2282                 1.2961
 Frc consts  --      1.1466                 1.1683                 1.2779
 IR Inten    --      9.8708                 4.8154                20.6343

                     31                     32                     33
                      A                      A                      A
 Frequencies --   1352.6836              1370.1256              1393.3394
 Red. masses --      1.3590                 1.2221                 1.3887
 Frc consts  --      1.4650                 1.3517                 1.5885
 IR Inten    --      4.6116                 3.9780                 4.6854

                     34                     35                     36
                      A                      A                      A
 Frequencies --   1415.1997              1435.3135              1457.7567
 Red. masses --      1.2527                 1.2876                 1.1012
 Frc consts  --      1.4783                 1.5629                 1.3787
 IR Inten    --      6.0946                 7.0151                 3.3990

                     37                     38                     39
                      A                      A                      A
 Frequencies --   1478.8470              1479.2098              1512.9028
 Red. masses --      1.0397                 1.0398                 1.0886
 Frc consts  --      1.3398                 1.3405                 1.4680
 IR Inten    --      5.1497                 5.0409                 2.6791

                     40                     41                     42
                      A                      A                      A
 Frequencies --   1545.3298              2377.8068              2925.2975
 Red. masses --      1.1066                11.8183                 1.0710
 Frc consts  --      1.5570                39.3694                 5.3997
 IR Inten    --      4.5367                 1.2163               102.5512

                     43                     44                     45
                      A                      A                      A
 Frequencies --   2974.0452              3004.8880              3026.1749
 Red. masses --      1.0711                 1.0607                 1.0348
 Frc consts  --      5.5820                 5.6426                 5.5834
 IR Inten    --     46.0042                35.2205                34.4555

                     46                     47                     48
                      A                      A                      A
 Frequencies --   3033.6619              3051.6988              3085.7399
 Red. masses --      1.0908                 1.0935                 1.0934
 Frc consts  --      5.9144                 6.0003                 6.1338
 IR Inten    --      3.5147                41.4955                42.6893

                     49                     50                     51
                      A                      A                      A
 Frequencies --   3085.8715              3087.1676              3109.9680
 Red. masses --      1.1001                 1.1001                 1.0937
 Frc consts  --      6.1720                 6.1772                 6.2326
 IR Inten    --     15.4111                11.0988                25.9346

 - Thermochemistry -
 -------------------
 Temperature   298.150 Kelvin.  Pressure   1.00000 Atm.
 Atom     1 has atomic number  6 and mass  12.00000

 Molecular mass:   126.06808 amu.
 Principal axes and moments of inertia in atomic units:
                           1         2         3
     Eigenvalues --   364.504022548.430782775.08934
           X            0.99991  -0.01104   0.00734
           Y            0.01099   0.99991   0.00712
           Z           -0.00742  -0.00704   0.99995
 This molecule is an asymmetric top.
 Rotational symmetry number  1.
 Rotational temperatures (Kelvin)      0.23762     0.03399     0.03121
 Rotational constants (GHZ):           4.95122     0.70818     0.65034
 Zero-point vibrational energy     415696.2 (Joules/Mol)
                                   99.35377 (Kcal/Mol)
 Warning -- explicit consideration of  11 degrees of freedom as
           vibrations may cause significant error
 Vibrational temperatures:     30.39    61.73    80.33   128.04   301.37
          (Kelvin)            342.45   399.19   465.70   553.87   569.18
                              709.66   990.32  1066.55  1110.94  1203.85
                             1308.67  1396.10  1458.65  1500.24  1513.83
                             1519.21  1561.94  1590.38  1609.12  1686.20
                             1699.59  1744.46  1787.47  1828.19  1861.23
                             1946.21  1971.30  2004.70  2036.15  2065.09
                             2097.38  2127.73  2128.25  2176.73  2223.38
                             3421.13  4208.85  4278.98  4323.36  4353.99
                             4364.76  4390.71  4439.69  4439.88  4441.74
                             4474.54

 Zero-point correction=                           0.158330 (Hartree/Particle)
 Thermal correction to Energy=                    0.168063
 Thermal correction to Enthalpy=                  0.169008
 Thermal correction to Gibbs Free Energy=         0.120941
 Sum of electronic and zero-point Energies=           -423.000277
 Sum of electronic and thermal Energies=              -422.990544
 Sum of electronic and thermal Enthalpies=            -422.989600
 Sum of electronic and thermal Free Energies=         -423.037666

                     E (Thermal)             CV                S
                      KCal/Mol        Cal/Mol-Kelvin    Cal/Mol-Kelvin
 Total                  105.461             33.084            101.164
 Electronic               0.000              0.000              0.000
 Translational            0.889              2.981             40.409
 Rotational               0.889              2.981             29.334
 Vibrational            103.684             27.123             31.421
 Vibration     1          0.593              1.985              6.526
 Vibration     2          0.595              1.980              5.120
 Vibration     3          0.596              1.975              4.599
 Vibration     4          0.602              1.957              3.682
 Vibration     5          0.642              1.826              2.048
 Vibration     6          0.656              1.782              1.818
 Vibration     7          0.678              1.715              1.549
 Vibration     8          0.708              1.628              1.291
 Vibration     9          0.754              1.502              1.020
 Vibration    10          0.762              1.480              0.979
 Vibration    11          0.849              1.265              0.675

 Optimization completed on the basis of negligible forces.
    -- Stationary point found.
 Normal termination of Gaussian 09 at Mon Jan 27 15:40:52 2020.
