 Gaussian 09, Revision D.01,
 Gaussian 09:  ES64L-G09RevD.01 24-Apr-2013

 -----------------------------
 # b3lyp 6-31G(2df,p) opt Freq
 -----------------------------

 -----
 titel
 -----
 Symbolic Z-matrix:
 Charge =  0 Multiplicity = 1

 SCF Done:  E(RB3LYP) =  -423.169948600     A.U. after   14 cycles
 Optimization completed.
    -- Stationary point found.
 Normal termination of Gaussian 09 at Mon Jan 27 22:04:17 2020.

 ----------------------------------------------------------------------
 #N Geom=AllCheck Guess=TCheck SCRF=Check GenChk RB3LYP/6-31G(2df,p) Fr
 eq
 ----------------------------------------------------------------------

 Structure from the checkpoint file:  "/scratch/puck/g09_85d9e22d-9a7a-4464-826e-e16143db3fa0/Gau-14954.chk"
 -----
 titel
 -----
 Charge =  0 Multiplicity = 1

                         Standard orientation:
 ---------------------------------------------------------------------
 Center     Atomic      Atomic             Coordinates (Angstroms)
 Number     Number       Type             X           Y           Z
 ---------------------------------------------------------------------
      1          8           0       -0.916258    1.913081    0.079078
      2          6           0       -0.992752    0.657576    0.677332
      3          6           0        0.246628   -0.330045    0.718986
      4          6           0       -0.738129   -1.520580    0.447487
      5          6           0       -1.713339   -0.459650   -0.075201
      6          8           0       -2.501631   -0.411366   -0.979117
      7          6           0        1.247576   -0.102461   -0.383415
      8          6           0        2.446773    0.776876   -0.150494
      9          6           0        2.625078   -0.714329   -0.297175
     10          1           0       -1.328414    1.839777   -0.790743
     11          1           0       -1.392751    0.756625    1.696002
     12          1           0        0.746283   -0.362057    1.689754
     13          1           0       -0.429916   -2.285569   -0.267367
     14          1           0       -1.094076   -1.999730    1.363817
     15          1           0        0.814455   -0.055325   -1.380376
     16          1           0        2.777258    1.420177   -0.957905
     17          1           0        2.571016    1.208688    0.836949
     18          1           0        3.077877   -1.093669   -1.206460
     19          1           0        2.870371   -1.286947    0.591514
 ---------------------------------------------------------------------

 SCF Done:  E(RB3LYP) =  -423.169948600     A.U. after    1 cycles

 The electronic state is 1-A.
 Alpha  occ. eigenvalues --  -19.14836 -19.14692 -10.27414 -10.24063 -10.20567
 Alpha  occ. eigenvalues --  -10.19823 -10.19712 -10.18808 -10.18642  -1.05859
 Alpha  occ. eigenvalues --   -1.02915  -0.87130  -0.83379  -0.67229  -0.65947
 Alpha  occ. eigenvalues --   -0.60135  -0.58004  -0.55927  -0.50181  -0.49627
 Alpha  occ. eigenvalues --   -0.46600  -0.46052  -0.44379  -0.42661  -0.40032
 Alpha  occ. eigenvalues --   -0.38268  -0.37578  -0.36602  -0.34950  -0.34371
 Alpha  occ. eigenvalues --   -0.30224  -0.28880  -0.26467  -0.24834
 Alpha virt. eigenvalues --   -0.02672   0.08022   0.09257   0.09946   0.10596
 Alpha virt. eigenvalues --    0.12714   0.13788   0.15060   0.16015   0.16807
 Alpha virt. eigenvalues --    0.17389   0.18735   0.19083   0.22287   0.22916

 Mulliken charges:
               1
     1  O   -0.425569
     2  C    0.057627
     3  C   -0.099913
     4  C   -0.350092
     5  C    0.338458
     6  O   -0.310633
     7  C    0.057784
     8  C   -0.263360
     9  C   -0.285051
    10  H    0.297043
    11  H    0.106249
    12  H    0.076627
    13  H    0.133243
    14  H    0.128568
    15  H    0.084082
    16  H    0.115595
    17  H    0.114455
    18  H    0.114167
    19  H    0.110721
 Sum of Mulliken charges =   0.00000

 Dipole moment (field-independent basis, Debye):
    X=              1.5472    Y=             -1.0649    Z=              1.0682  Tot=              2.1608
 Quadrupole moment (field-independent basis, Debye-Ang):
   XX=            -58.7365   YY=            -55.0939   ZZ=            -50.2900
   XY=             -0.7498   XZ=             -3.9658   YZ=             -3.1616

  Exact polarizability:  84.346   0.083  74.696   2.451  -1.456  68.687
 Approx polarizability: 112.913  -0.365 109.393  10.939  -1.688 109.917

                      1                      2                      3
                      A                      A                      A
 Frequencies --     65.4850                74.6704               133.9407
 Red. masses --      2.9446                 5.4423                 3.5575
 Frc consts  --      0.0074                 0.0179                 0.0376
 IR Inten    --      0.5390                 0.8812                24.6024

                      4                      5                      6
                      A                      A                      A
 Frequencies --    160.4414               224.4623               270.7380
 Red. masses --      2.0297                 2.4201                 1.8856
 Frc consts  --      0.0308                 0.0718                 0.0814
 IR Inten    --     17.8814                30.4523                15.0093

                      7                      8                      9
                      A                      A                      A
 Frequencies --    295.2201               385.3417               418.4151
 Red. masses --      2.8784                 3.3700                 2.8197
 Frc consts  --      0.1478                 0.2948                 0.2908
 IR Inten    --      1.1719                 0.8752                 8.9509

                     10                     11                     12
                      A                      A                      A
 Frequencies --    562.5015               607.4864               728.5460
 Red. masses --      3.4691                 3.1809                 2.1871
 Frc consts  --      0.6467                 0.6916                 0.6840
 IR Inten    --      2.1418                 1.1869                 6.6011

                     13                     14                     15
                      A                      A                      A
 Frequencies --    744.0755               761.9743               803.1605
 Red. masses --      2.1371                 2.3476                 1.3397
 Frc consts  --      0.6971                 0.8031                 0.5092
 IR Inten    --      1.0074                 1.9972                 0.1668

                     16                     17                     18
                      A                      A                      A
 Frequencies --    830.5538               875.3877               921.1806
 Red. masses --      1.4523                 3.0456                 3.2049
 Frc consts  --      0.5903                 1.3751                 1.6023
 IR Inten    --     15.1992                 7.9757                10.1506

                     19                     20                     21
                      A                      A                      A
 Frequencies --    943.9751               962.7114              1017.7105
 Red. masses --      2.6929                 2.4680                 1.8266
 Frc consts  --      1.4138                 1.3477                 1.1147
 IR Inten    --      3.5341                 1.8680                15.6430

                     22                     23                     24
                      A                      A                      A
 Frequencies --   1048.7837              1061.8808              1066.6331
 Red. masses --      1.4295                 1.4144                 2.1010
 Frc consts  --      0.9264                 0.9397                 1.4084
 IR Inten    --      4.8266                19.1874                52.7483

                     25                     26                     27
                      A                      A                      A
 Frequencies --   1081.8803              1132.0539              1135.0412
 Red. masses --      1.3806                 1.6169                 1.2447
 Frc consts  --      0.9521                 1.2208                 0.9448
 IR Inten    --      8.4681                 0.6349                 6.0734

                     28                     29                     30
                      A                      A                      A
 Frequencies --   1169.5919              1196.6168              1200.7089
 Red. masses --      1.7503                 1.3897                 1.8525
 Frc consts  --      1.4107                 1.1724                 1.5736
 IR Inten    --     82.4805                 0.1588                 6.2324

                     31                     32                     33
                      A                      A                      A
 Frequencies --   1228.5262              1241.1976              1263.1485
 Red. masses --      1.9564                 1.5253                 1.7385
 Frc consts  --      1.7397                 1.3845                 1.6343
 IR Inten    --      3.8614                 2.6433                 2.9700

                     34                     35                     36
                      A                      A                      A
 Frequencies --   1302.3005              1335.3699              1406.8081
 Red. masses --      1.3673                 1.5486                 1.2755
 Frc consts  --      1.3663                 1.6270                 1.4872
 IR Inten    --      8.6038                 8.0330                36.6544

                     37                     38                     39
                      A                      A                      A
 Frequencies --   1436.4494              1448.5126              1471.2860
 Red. masses --      1.6038                 1.1137                 1.0862
 Frc consts  --      1.9497                 1.3768                 1.3853
 IR Inten    --      1.0813                16.5912                 1.1723

                     40                     41                     42
                      A                      A                      A
 Frequencies --   1508.2686              1870.2784              3014.5273
 Red. masses --      1.4196                12.5239                 1.0825
 Frc consts  --      1.9027                25.8109                 5.7957
 IR Inten    --      0.6303               251.9040                21.6576

                     43                     44                     45
                      A                      A                      A
 Frequencies --   3067.8787              3083.0731              3127.2078
 Red. masses --      1.0620                 1.0846                 1.0858
 Frc consts  --      5.8894                 6.0743                 6.2565
 IR Inten    --      8.6040                15.2339                15.1890

                     46                     47                     48
                      A                      A                      A
 Frequencies --   3130.4026              3133.7257              3137.6326
 Red. masses --      1.0541                 1.1027                 1.0602
 Frc consts  --      6.0858                 6.3800                 6.1493
 IR Inten    --     14.9446                11.2687                 7.8810

                     49                     50                     51
                      A                      A                      A
 Frequencies --   3209.1875              3224.8848              3777.3952
 Red. masses --      1.1176                 1.1154                 1.0661
 Frc consts  --      6.7813                 6.8343                 8.9628
 IR Inten    --      0.9210                18.2289                33.5194

 - Thermochemistry -
 -------------------
 Temperature   298.150 Kelvin.  Pressure   1.00000 Atm.
 Atom     1 has atomic number  8 and mass  15.99491

 Molecular mass:   126.06808 amu.
 Principal axes and moments of inertia in atomic units:
                           1         2         3
     Eigenvalues --   634.308991519.345641823.25043
           X            0.99989  -0.00373  -0.01470
           Y            0.00328   0.99953  -0.03058
           Z            0.01480   0.03053   0.99942
 This molecule is an asymmetric top.
 Rotational symmetry number  1.
 Warning -- assumption of classical behavior for rotation
           may cause significant error
 Rotational temperatures (Kelvin)      0.13655     0.05701     0.04751
 Rotational constants (GHZ):           2.84521     1.18784     0.98985
 Zero-point vibrational energy     414501.4 (Joules/Mol)
                                   99.06822 (Kcal/Mol)
 Warning -- explicit consideration of  11 degrees of freedom as
           vibrations may cause significant error
 Vibrational temperatures:     94.22   107.43   192.71   230.84   322.95
          (Kelvin)            389.53   424.76   554.42   602.01   809.31
                              874.04  1048.21  1070.56  1096.31  1155.57
                             1194.98  1259.49  1325.37  1358.17  1385.13
                             1464.26  1508.96  1527.81  1534.65  1556.58
                             1628.77  1633.07  1682.78  1721.66  1727.55
                             1767.57  1785.80  1817.39  1873.72  1921.30
                             2024.08  2066.73  2084.08  2116.85  2170.06
                             2690.91  4337.23  4413.99  4435.85  4499.35
                             4503.95  4508.73  4514.35  4617.30  4639.88
                             5434.82

 Zero-point correction=                           0.157875 (Hartree/Particle)
 Thermal correction to Energy=                    0.166925
 Thermal correction to Enthalpy=                  0.167869
 Thermal correction to Gibbs Free Energy=         0.123469
 Sum of electronic and zero-point Energies=           -423.012073
 Sum of electronic and thermal Energies=              -423.003023
 Sum of electronic and thermal Enthalpies=            -423.002079
 Sum of electronic and thermal Free Energies=         -423.046479

                     E (Thermal)             CV                S
                      KCal/Mol        Cal/Mol-Kelvin    Cal/Mol-Kelvin
 Total                  104.747             33.358             93.448
 Electronic               0.000              0.000              0.000
 Translational            0.889              2.981             40.409
 Rotational               0.889              2.981             28.954
 Vibrational            102.970             27.396             24.086
 Vibration     1          0.597              1.971              4.285
 Vibration     2          0.599              1.966              4.026
 Vibration     3          0.613              1.919              2.889
 Vibration     4          0.622              1.891              2.545
 Vibration     5          0.649              1.804              1.923
 Vibration     6          0.674              1.727              1.591
 Vibration     7          0.689              1.683              1.444
 Vibration     8          0.754              1.501              1.018
 Vibration     9          0.781              1.430              0.897
 Vibration    10          0.918              1.112              0.519
 Vibration    11          0.966              1.016              0.437

 Normal termination of Gaussian 09 at Mon Jan 27 22:50:45 2020.
