 Gaussian 09, Revision D.01,
 Gaussian 09:  ES64L-G09RevD.01 24-Apr-2013

 -----------------------------
 # b3lyp 6-31G(2df,p) opt Freq
 -----------------------------

 -----
 titel
 -----
 Symbolic Z-matrix:
 Charge =  0 Multiplicity = 1

 SCF Done:  E(RB3LYP) =  -423.173683426     A.U. after   13 cycles
 Optimization completed.
    -- Stationary point found.
 Normal termination of Gaussian 09 at Mon Jan 27 23:53:21 2020.

 ----------------------------------------------------------------------
 #N Geom=AllCheck Guess=TCheck SCRF=Check GenChk RB3LYP/6-31G(2df,p) Fr
 eq
 ----------------------------------------------------------------------

 Structure from the checkpoint file:  "/scratch/puck/g09_6ff9dd9a-7f35-4b14-9986-7a654aa8d686/Gau-194138.chk"
 -----
 titel
 -----
 Charge =  0 Multiplicity = 1

                         Standard orientation:
 ---------------------------------------------------------------------
 Center     Atomic      Atomic             Coordinates (Angstroms)
 Number     Number       Type             X           Y           Z
 ---------------------------------------------------------------------
      1          8           0        2.548927   -0.537720    0.213862
      2          6           0        1.474793    0.378043    0.286058
      3          6           0        0.565976    0.454990   -0.976869
      4          6           0       -0.493534    1.458552   -0.490323
      5          6           0       -0.938163    0.690369    0.799791
      6          6           0       -2.070789   -0.248411    0.372976
      7          8           0       -1.455705   -1.076001   -0.628865
      8          6           0       -0.059833   -0.905849   -0.476837
      9          6           0        0.250108   -0.306855    0.919185
     10          1           0        3.203177   -0.178726   -0.393843
     11          1           0        1.796993    1.338765    0.711733
     12          1           0        0.985169    0.585596   -1.975739
     13          1           0       -0.059411    2.439906   -0.275542
     14          1           0       -1.320235    1.595251   -1.192191
     15          1           0       -1.160164    1.308791    1.669874
     16          1           0       -2.440507   -0.871429    1.201244
     17          1           0       -2.920123    0.281954   -0.071826
     18          1           0        0.469242   -1.804922   -0.780140
     19          1           0        0.328740   -0.910452    1.822569
 ---------------------------------------------------------------------

 SCF Done:  E(RB3LYP) =  -423.173683426     A.U. after    1 cycles

 The electronic state is 1-A.
 Alpha  occ. eigenvalues --  -19.13961 -19.13101 -10.23263 -10.22488 -10.22248
 Alpha  occ. eigenvalues --  -10.19316 -10.18471 -10.18460 -10.18369  -1.03517
 Alpha  occ. eigenvalues --   -1.02142  -0.87057  -0.75364  -0.70347  -0.65474
 Alpha  occ. eigenvalues --   -0.61838  -0.55161  -0.54947  -0.51664  -0.49708
 Alpha  occ. eigenvalues --   -0.48181  -0.45543  -0.42890  -0.39754  -0.38657
 Alpha  occ. eigenvalues --   -0.37137  -0.36377  -0.34325  -0.33419  -0.32657
 Alpha  occ. eigenvalues --   -0.30823  -0.29577  -0.26014  -0.23277
 Alpha virt. eigenvalues --    0.07516   0.09911   0.11794   0.12128   0.12760
 Alpha virt. eigenvalues --    0.13663   0.15550   0.15893   0.16850   0.17509
 Alpha virt. eigenvalues --    0.17958   0.18800   0.20070   0.20562   0.23137

 Mulliken charges:
               1
     1  O   -0.448682
     2  C    0.120418
     3  C   -0.124760
     4  C   -0.226913
     5  C   -0.069574
     6  C   -0.079404
     7  O   -0.283624
     8  C    0.151437
     9  C   -0.065179
    10  H    0.283276
    11  H    0.060087
    12  H    0.056104
    13  H    0.093582
    14  H    0.104496
    15  H    0.068528
    16  H    0.090418
    17  H    0.102360
    18  H    0.094917
    19  H    0.072512
 Sum of Mulliken charges =   0.00000

 Dipole moment (field-independent basis, Debye):
    X=              0.6931    Y=              1.9835    Z=              0.1471  Tot=              2.1063
 Quadrupole moment (field-independent basis, Debye-Ang):
   XX=            -50.7436   YY=            -54.4579   ZZ=            -52.7029
   XY=              0.2527   XZ=             -5.5173   YZ=             -0.7026

  Exact polarizability:  83.473  -1.028  69.236  -3.955  -1.715  67.257
 Approx polarizability: 113.890  -1.450 105.117  -3.239  -0.705 104.573

                      1                      2                      3
                      A                      A                      A
 Frequencies --    215.4806               249.2547               288.3323
 Red. masses --      4.1346                 2.7163                 1.4467
 Frc consts  --      0.1131                 0.0994                 0.0709
 IR Inten    --      1.1644                 4.0620                64.0309

                      4                      5                      6
                      A                      A                      A
 Frequencies --    333.2358               403.1971               426.0232
 Red. masses --      2.2726                 3.0362                 1.9501
 Frc consts  --      0.1487                 0.2908                 0.2085
 IR Inten    --     40.7077                 2.8964                 1.4265

                      7                      8                      9
                      A                      A                      A
 Frequencies --    493.2813               601.9982               703.4719
 Red. masses --      5.6015                 4.1376                 4.7158
 Frc consts  --      0.8031                 0.8835                 1.3750
 IR Inten    --      5.9314                 2.5040                 7.7382

                     10                     11                     12
                      A                      A                      A
 Frequencies --    777.5699               808.1088               837.1089
 Red. masses --      3.7960                 3.0997                 2.9452
 Frc consts  --      1.3523                 1.1926                 1.2160
 IR Inten    --      1.7219                 2.6881                 7.2422

                     13                     14                     15
                      A                      A                      A
 Frequencies --    873.0977               893.7877               907.3484
 Red. masses --      2.0842                 2.7107                 2.7734
 Frc consts  --      0.9361                 1.2759                 1.3453
 IR Inten    --      8.4209                20.3993                14.2077

                     16                     17                     18
                      A                      A                      A
 Frequencies --    942.8603               956.1906               964.5131
 Red. masses --      2.0415                 1.8044                 2.2579
 Frc consts  --      1.0693                 0.9720                 1.2376
 IR Inten    --      7.5659                 6.6757                10.8095

                     19                     20                     21
                      A                      A                      A
 Frequencies --    984.0945              1018.2100              1019.6731
 Red. masses --      1.9028                 2.3754                 1.7105
 Frc consts  --      1.0857                 1.4510                 1.0478
 IR Inten    --      0.5399                 1.9692                13.2195

                     22                     23                     24
                      A                      A                      A
 Frequencies --   1059.6943              1076.9399              1108.1662
 Red. masses --      1.5710                 2.4742                 2.7998
 Frc consts  --      1.0394                 1.6907                 2.0258
 IR Inten    --     12.9200                44.4508                36.6834

                     25                     26                     27
                      A                      A                      A
 Frequencies --   1116.7474              1151.4841              1189.3687
 Red. masses --      2.6516                 1.2266                 1.5786
 Frc consts  --      1.9483                 0.9582                 1.3157
 IR Inten    --     73.8456                11.7028                 7.2443

                     28                     29                     30
                      A                      A                      A
 Frequencies --   1190.9201              1210.2885              1221.7934
 Red. masses --      1.4998                 1.5677                 1.3773
 Frc consts  --      1.2533                 1.3529                 1.2114
 IR Inten    --      2.3851                 8.2801                22.8103

                     31                     32                     33
                      A                      A                      A
 Frequencies --   1235.5277              1257.1843              1286.4479
 Red. masses --      1.5243                 1.5645                 1.4239
 Frc consts  --      1.3710                 1.4569                 1.3884
 IR Inten    --      2.8393                32.6047                 1.4321

                     34                     35                     36
                      A                      A                      A
 Frequencies --   1301.1622              1317.7945              1324.1463
 Red. masses --      1.4824                 1.6274                 1.3876
 Frc consts  --      1.4787                 1.6651                 1.4334
 IR Inten    --      9.0292                 3.4697                18.3123

                     37                     38                     39
                      A                      A                      A
 Frequencies --   1340.2405              1389.6373              1424.9150
 Red. masses --      1.4658                 1.4288                 1.4528
 Frc consts  --      1.5513                 1.6256                 1.7379
 IR Inten    --     19.1510                 8.7041                 4.6927

                     40                     41                     42
                      A                      A                      A
 Frequencies --   1500.0940              1524.1916              2989.8083
 Red. masses --      1.0978                 1.0947                 1.0673
 Frc consts  --      1.4555                 1.4984                 5.6209
 IR Inten    --      2.4388                 0.3947                82.8421

                     43                     44                     45
                      A                      A                      A
 Frequencies --   2997.5381              3049.7273              3061.7984
 Red. masses --      1.0851                 1.0602                 1.0970
 Frc consts  --      5.7444                 5.8097                 6.0593
 IR Inten    --     64.1457                33.8206                39.7243

                     46                     47                     48
                      A                      A                      A
 Frequencies --   3096.6333              3103.9003              3110.8216
 Red. masses --      1.1034                 1.0907                 1.0888
 Frc consts  --      6.2339                 6.1910                 6.2081
 IR Inten    --     28.9563                46.7949                27.8953

                     49                     50                     51
                      A                      A                      A
 Frequencies --   3127.3450              3164.0844              3815.6037
 Red. masses --      1.0900                 1.0907                 1.0662
 Frc consts  --      6.2812                 6.4336                 9.1456
 IR Inten    --     32.1081                17.9361                23.1765

 - Thermochemistry -
 -------------------
 Temperature   298.150 Kelvin.  Pressure   1.00000 Atm.
 Atom     1 has atomic number  8 and mass  15.99491

 Molecular mass:   126.06808 amu.
 Principal axes and moments of inertia in atomic units:
                           1         2         3
     Eigenvalues --   522.958201160.334821263.99157
           X            0.99971  -0.00847  -0.02238
           Y            0.00709   0.99810  -0.06123
           Z            0.02286   0.06105   0.99787
 This molecule is an asymmetric top.
 Rotational symmetry number  1.
 Warning -- assumption of classical behavior for rotation
           may cause significant error
 Rotational temperatures (Kelvin)      0.16562     0.07465     0.06852
 Rotational constants (GHZ):           3.45102     1.55536     1.42781
 Zero-point vibrational energy     427311.1 (Joules/Mol)
                                  102.12981 (Kcal/Mol)
 Warning -- explicit consideration of   8 degrees of freedom as
           vibrations may cause significant error
 Vibrational temperatures:    310.03   358.62   414.85   479.45   580.11
          (Kelvin)            612.95   709.72   866.14  1012.14  1118.75
                             1162.69  1204.41  1256.19  1285.96  1305.47
                             1356.56  1375.74  1387.72  1415.89  1464.98
                             1467.08  1524.66  1549.47  1594.40  1606.75
                             1656.73  1711.23  1713.47  1741.33  1757.89
                             1777.65  1808.81  1850.91  1872.08  1896.01
                             1905.15  1928.30  1999.38  2050.13  2158.30
                             2192.97  4301.66  4312.78  4387.87  4405.24
                             4455.36  4465.81  4475.77  4499.55  4552.41
                             5489.80

 Zero-point correction=                           0.162754 (Hartree/Particle)
 Thermal correction to Energy=                    0.169449
 Thermal correction to Enthalpy=                  0.170393
 Thermal correction to Gibbs Free Energy=         0.132085
 Sum of electronic and zero-point Energies=           -423.010929
 Sum of electronic and thermal Energies=              -423.004235
 Sum of electronic and thermal Enthalpies=            -423.003291
 Sum of electronic and thermal Free Energies=         -423.041598

                     E (Thermal)             CV                S
                      KCal/Mol        Cal/Mol-Kelvin    Cal/Mol-Kelvin
 Total                  106.331             28.311             80.625
 Electronic               0.000              0.000              0.000
 Translational            0.889              2.981             40.409
 Rotational               0.889              2.981             28.130
 Vibrational            104.553             22.350             12.087
 Vibration     1          0.645              1.817              1.997
 Vibration     2          0.662              1.764              1.736
 Vibration     3          0.685              1.695              1.484
 Vibration     4          0.715              1.609              1.244
 Vibration     5          0.769              1.463              0.951
 Vibration     6          0.788              1.414              0.872
 Vibration     7          0.849              1.265              0.675
 Vibration     8          0.960              1.028              0.446

 Optimization completed.
    -- Stationary point found.
 Normal termination of Gaussian 09 at Tue Jan 28 00:41:01 2020.
