 Gaussian 09, Revision D.01,
 Gaussian 09:  ES64L-G09RevD.01 24-Apr-2013

 -----------------------------
 # b3lyp 6-31G(2df,p) opt Freq
 -----------------------------

 -----
 titel
 -----
 Symbolic Z-matrix:
 Charge =  0 Multiplicity = 1

 SCF Done:  E(RB3LYP) =  -423.220753740     A.U. after   14 cycles
 Optimization completed.
    -- Stationary point found.
 Normal termination of Gaussian 09 at Mon Jan 27 22:00:24 2020.

 ----------------------------------------------------------------------
 #N Geom=AllCheck Guess=TCheck SCRF=Check GenChk RB3LYP/6-31G(2df,p) Fr
 eq
 ----------------------------------------------------------------------

 Structure from the checkpoint file:  "/scratch/puck/g09_49bf3cb1-9cfa-4d57-95e7-029e2c9ad514/Gau-26426.chk"
 -----
 titel
 -----
 Charge =  0 Multiplicity = 1

                         Standard orientation:
 ---------------------------------------------------------------------
 Center     Atomic      Atomic             Coordinates (Angstroms)
 Number     Number       Type             X           Y           Z
 ---------------------------------------------------------------------
      1          6           0        2.583320    0.015117    0.098066
      2          6           0        1.099275   -0.204336    0.036146
      3          6           0        0.189659    0.788835   -0.042379
      4          6           0        0.525454    2.257609   -0.136028
      5          6           0       -1.248611    0.438897    0.041323
      6          8           0       -2.134405    1.271878    0.072299
      7          6           0       -1.584129   -1.043978    0.171655
      8          8           0       -0.620943   -1.883485   -0.426964
      9          6           0        0.671930   -1.651784    0.076261
     10          1           0        3.055466   -0.277239   -0.849322
     11          1           0        2.845591    1.053815    0.301943
     12          1           0        3.034924   -0.613574    0.875469
     13          1           0       -0.394323    2.824905   -0.285481
     14          1           0        0.998832    2.625819    0.781463
     15          1           0        1.207503    2.467135   -0.965461
     16          1           0       -1.703958   -1.274167    1.246869
     17          1           0       -2.540285   -1.234684   -0.319706
     18          1           0        0.764608   -2.025575    1.115809
     19          1           0        1.353039   -2.255740   -0.534527
 ---------------------------------------------------------------------

 SCF Done:  E(RB3LYP) =  -423.220753740     A.U. after    1 cycles

 The electronic state is 1-A.
 Alpha  occ. eigenvalues --  -19.15185 -19.12234 -10.26058 -10.24568 -10.23414
 Alpha  occ. eigenvalues --  -10.21574 -10.19958 -10.19622 -10.17909  -1.05272
 Alpha  occ. eigenvalues --   -1.02913  -0.83404  -0.76337  -0.72635  -0.70006
 Alpha  occ. eigenvalues --   -0.63572  -0.58724  -0.51296  -0.50820  -0.49434
 Alpha  occ. eigenvalues --   -0.45383  -0.44600  -0.43154  -0.41481  -0.40641
 Alpha  occ. eigenvalues --   -0.40312  -0.39772  -0.38909  -0.36726  -0.36072
 Alpha  occ. eigenvalues --   -0.32571  -0.28488  -0.25395  -0.23095
 Alpha virt. eigenvalues --   -0.04834   0.05424   0.08260   0.09661   0.12855
 Alpha virt. eigenvalues --    0.13763   0.14837   0.14987   0.15558   0.16020
 Alpha virt. eigenvalues --    0.17669   0.18167   0.19330   0.20775   0.23368

 Mulliken charges:
               1
     1  C   -0.485302
     2  C    0.185371
     3  C    0.116832
     4  C   -0.508766
     5  C    0.311045
     6  O   -0.326305
     7  C   -0.193965
     8  O   -0.235887
     9  C   -0.158393
    10  H    0.143075
    11  H    0.137649
    12  H    0.135140
    13  H    0.155685
    14  H    0.128818
    15  H    0.125639
    16  H    0.107946
    17  H    0.137831
    18  H    0.101962
    19  H    0.121626
 Sum of Mulliken charges =   0.00000

 Dipole moment (field-independent basis, Debye):
    X=              3.3357    Y=             -1.0210    Z=              0.7510  Tot=              3.5684
 Quadrupole moment (field-independent basis, Debye-Ang):
   XX=            -53.9732   YY=            -56.2127   ZZ=            -52.7728
   XY=              3.1636   XZ=             -0.3941   YZ=             -1.8882

  Exact polarizability:  99.594  -9.126  87.474  -0.505  -2.425  55.170
 Approx polarizability: 152.063 -30.592 129.149   0.473  -1.887  87.581

                      1                      2                      3
                      A                      A                      A
 Frequencies --     72.5403                90.6206               112.9744
 Red. masses --      1.0760                 2.5294                 1.1572
 Frc consts  --      0.0033                 0.0122                 0.0087
 IR Inten    --      0.3713                 1.5767                 1.0688

                      4                      5                      6
                      A                      A                      A
 Frequencies --    137.1658               228.7043               294.7492
 Red. masses --      2.3914                 3.8753                 2.3645
 Frc consts  --      0.0265                 0.1194                 0.1210
 IR Inten    --      0.3352                 3.4380                 0.5941

                      7                      8                      9
                      A                      A                      A
 Frequencies --    311.2647               330.7154               433.2639
 Red. masses --      2.1416                 3.4782                 5.2707
 Frc consts  --      0.1222                 0.2241                 0.5829
 IR Inten    --      3.1142                10.6175                 4.2529

                     10                     11                     12
                      A                      A                      A
 Frequencies --    443.8121               498.3665               546.2354
 Red. masses --      3.6531                 3.6830                 4.2130
 Frc consts  --      0.4240                 0.5389                 0.7406
 IR Inten    --      3.1634                 5.4020                 5.9076

                     13                     14                     15
                      A                      A                      A
 Frequencies --    586.3419               645.9205               742.8324
 Red. masses --      3.5353                 3.7871                 4.1252
 Frc consts  --      0.7161                 0.9309                 1.3412
 IR Inten    --      1.5523                 4.2629                20.6676

                     16                     17                     18
                      A                      A                      A
 Frequencies --    870.9463               940.1207               964.3561
 Red. masses --      2.2795                 1.4516                 2.2091
 Frc consts  --      1.0188                 0.7559                 1.2105
 IR Inten    --      2.8912                 4.7094                 8.2469

                     19                     20                     21
                      A                      A                      A
 Frequencies --    997.6574              1016.5335              1050.8274
 Red. masses --      2.3532                 2.1035                 1.5225
 Frc consts  --      1.3800                 1.2807                 0.9905
 IR Inten    --      8.6603                18.7629                 0.4261

                     22                     23                     24
                      A                      A                      A
 Frequencies --   1079.5337              1104.2833              1143.8954
 Red. masses --      1.9160                 2.2488                 3.7253
 Frc consts  --      1.3156                 1.6157                 2.8720
 IR Inten    --      4.3030                12.5749                18.0268

                     25                     26                     27
                      A                      A                      A
 Frequencies --   1159.8849              1213.6234              1251.8883
 Red. masses --      4.1979                 2.1555                 1.5383
 Frc consts  --      3.3274                 1.8706                 1.4205
 IR Inten    --     22.0989                43.4436                27.4145

                     28                     29                     30
                      A                      A                      A
 Frequencies --   1303.6209              1329.3343              1356.3002
 Red. masses --      1.1836                 3.6573                 1.3119
 Frc consts  --      1.1851                 3.8078                 1.4219
 IR Inten    --      5.2042                75.4216                 1.9304

                     31                     32                     33
                      A                      A                      A
 Frequencies --   1398.4245              1408.2117              1414.2311
 Red. masses --      1.2687                 1.2732                 1.4901
 Frc consts  --      1.4618                 1.4875                 1.7559
 IR Inten    --      1.4497                10.0722                13.3963

                     34                     35                     36
                      A                      A                      A
 Frequencies --   1466.0885              1473.2095              1480.7706
 Red. masses --      1.0759                 1.0699                 1.0714
 Frc consts  --      1.3625                 1.3681                 1.3841
 IR Inten    --      2.8219                 1.3867                17.7345

                     37                     38                     39
                      A                      A                      A
 Frequencies --   1482.8222              1493.3316              1505.1909
 Red. masses --      1.0881                 1.0541                 1.0456
 Frc consts  --      1.4096                 1.3849                 1.3957
 IR Inten    --      0.9339                16.6037                 4.6901

                     40                     41                     42
                      A                      A                      A
 Frequencies --   1695.9673              1768.7529              2908.4991
 Red. masses --      7.8069                12.1774                 1.0721
 Frc consts  --     13.2302                22.4461                 5.3437
 IR Inten    --     47.4187               206.8831                50.9515

                     43                     44                     45
                      A                      A                      A
 Frequencies --   2939.0893              3020.8906              3035.8758
 Red. masses --      1.0708                 1.0418                 1.0408
 Frc consts  --      5.4499                 5.6017                 5.6517
 IR Inten    --     42.3651                14.4514                20.7629

                     46                     47                     48
                      A                      A                      A
 Frequencies --   3055.9749              3067.7675              3091.5652
 Red. masses --      1.0862                 1.0968                 1.0977
 Frc consts  --      5.9764                 6.0819                 6.1817
 IR Inten    --     28.0914                14.0894                15.6360

                     49                     50                     51
                      A                      A                      A
 Frequencies --   3115.2859              3139.8945              3143.6729
 Red. masses --      1.0900                 1.0967                 1.0977
 Frc consts  --      6.2328                 6.3703                 6.3916
 IR Inten    --     11.2913                12.7061                 1.2292

 - Thermochemistry -
 -------------------
 Temperature   298.150 Kelvin.  Pressure   1.00000 Atm.
 Atom     1 has atomic number  6 and mass  12.00000

 Molecular mass:   126.06808 amu.
 Principal axes and moments of inertia in atomic units:
                           1         2         3
     Eigenvalues --   872.950431011.915461812.05772
           X            0.98970   0.14314  -0.00198
           Y           -0.14315   0.98959  -0.01483
           Z           -0.00016   0.01496   0.99989
 This molecule is an asymmetric top.
 Rotational symmetry number  1.
 Warning -- assumption of classical behavior for rotation
           may cause significant error
 Rotational temperatures (Kelvin)      0.09922     0.08559     0.04780
 Rotational constants (GHZ):           2.06740     1.78349     0.99596
 Zero-point vibrational energy     414887.8 (Joules/Mol)
                                   99.16057 (Kcal/Mol)
 Warning -- explicit consideration of  13 degrees of freedom as
           vibrations may cause significant error
 Vibrational temperatures:    104.37   130.38   162.54   197.35   329.05
          (Kelvin)            424.08   447.84   475.83   623.37   638.55
                              717.04   785.91   843.61   929.33  1068.77
                             1253.10  1352.62  1387.49  1435.40  1462.56
                             1511.90  1553.21  1588.82  1645.81  1668.81
                             1746.13  1801.19  1875.62  1912.61  1951.41
                             2012.02  2026.10  2034.76  2109.37  2119.62
                             2130.50  2133.45  2148.57  2165.63  2440.12
                             2544.84  4184.68  4228.69  4346.38  4367.94
                             4396.86  4413.83  4448.07  4482.20  4517.60
                             4523.04

 Zero-point correction=                           0.158022 (Hartree/Particle)
 Thermal correction to Energy=                    0.167330
 Thermal correction to Enthalpy=                  0.168275
 Thermal correction to Gibbs Free Energy=         0.123542
 Sum of electronic and zero-point Energies=           -423.062731
 Sum of electronic and thermal Energies=              -423.053423
 Sum of electronic and thermal Enthalpies=            -423.052479
 Sum of electronic and thermal Free Energies=         -423.097212

                     E (Thermal)             CV                S
                      KCal/Mol        Cal/Mol-Kelvin    Cal/Mol-Kelvin
 Total                  105.001             33.555             94.148
 Electronic               0.000              0.000              0.000
 Translational            0.889              2.981             40.409
 Rotational               0.889              2.981             28.861
 Vibrational            103.224             27.594             24.879
 Vibration     1          0.599              1.967              4.083
 Vibration     2          0.602              1.956              3.647
 Vibration     3          0.607              1.939              3.217
 Vibration     4          0.614              1.916              2.843
 Vibration     5          0.651              1.797              1.889
 Vibration     6          0.689              1.684              1.447
 Vibration     7          0.700              1.652              1.356
 Vibration     8          0.713              1.614              1.257
 Vibration     9          0.794              1.398              0.848
 Vibration    10          0.803              1.375              0.815
 Vibration    11          0.854              1.254              0.662
 Vibration    12          0.901              1.148              0.552
 Vibration    13          0.943              1.061              0.474

 Normal termination of Gaussian 09 at Mon Jan 27 22:44:49 2020.
