 Gaussian 09, Revision D.01,
 Gaussian 09:  ES64L-G09RevD.01 24-Apr-2013

 -----------------------------
 # b3lyp 6-31G(2df,p) opt Freq
 -----------------------------

 -----
 titel
 -----
 Symbolic Z-matrix:
 Charge =  0 Multiplicity = 1

 SCF Done:  E(RB3LYP) =  -423.154319791     A.U. after   14 cycles
 Optimization completed.
    -- Stationary point found.
 Normal termination of Gaussian 09 at Tue Jan 28 02:23:53 2020.

 ----------------------------------------------------------------------
 #N Geom=AllCheck Guess=TCheck SCRF=Check GenChk RB3LYP/6-31G(2df,p) Fr
 eq
 ----------------------------------------------------------------------

 Structure from the checkpoint file:  "/scratch/puck/g09_3a9f89d4-eba4-44b7-b7c1-a9c689b7fd6b/Gau-76273.chk"
 -----
 titel
 -----
 Charge =  0 Multiplicity = 1

                         Standard orientation:
 ---------------------------------------------------------------------
 Center     Atomic      Atomic             Coordinates (Angstroms)
 Number     Number       Type             X           Y           Z
 ---------------------------------------------------------------------
      1          6           0        2.538451   -0.775273   -0.091897
      2          6           0        1.106642   -0.302596   -0.049373
      3          6           0       -0.037009   -1.303427   -0.187484
      4          6           0       -1.273988   -0.619156    0.479691
      5          8           0       -2.467986   -0.704658   -0.265766
      6          6           0       -0.806663    0.829712    0.641233
      7          8           0       -0.589235    1.320278   -0.730960
      8          6           0        0.815052    1.101615   -0.549726
      9          6           0        0.704384    0.807299    0.916626
     10          1           0        2.740424   -1.498732    0.706369
     11          1           0        2.766206   -1.260806   -1.047439
     12          1           0        3.238718    0.058193    0.031495
     13          1           0       -0.266404   -1.539203   -1.231754
     14          1           0        0.216470   -2.245567    0.308918
     15          1           0       -1.488907   -1.065632    1.456702
     16          1           0       -2.315194   -0.167589   -1.055192
     17          1           0       -1.466926    1.493152    1.200909
     18          1           0        1.501154    1.709036   -1.129546
     19          1           0        1.251009    1.163140    1.778924
 ---------------------------------------------------------------------

 SCF Done:  E(RB3LYP) =  -423.154319791     A.U. after    1 cycles

 The electronic state is 1-A.
 Alpha  occ. eigenvalues --  -19.14320 -19.12827 -10.24108 -10.23709 -10.22972
 Alpha  occ. eigenvalues --  -10.20280 -10.19315 -10.18666 -10.18029  -1.05963
 Alpha  occ. eigenvalues --   -1.01022  -0.85803  -0.75478  -0.72813  -0.68487
 Alpha  occ. eigenvalues --   -0.61264  -0.55979  -0.54065  -0.51713  -0.49452
 Alpha  occ. eigenvalues --   -0.48141  -0.44908  -0.42075  -0.40876  -0.39300
 Alpha  occ. eigenvalues --   -0.38543  -0.38224  -0.36713  -0.34282  -0.34169
 Alpha  occ. eigenvalues --   -0.31239  -0.26978  -0.25507  -0.23236
 Alpha virt. eigenvalues --    0.06818   0.09489   0.09777   0.11580   0.12427
 Alpha virt. eigenvalues --    0.12980   0.15233   0.15535   0.16120   0.16256
 Alpha virt. eigenvalues --    0.17229   0.17809   0.19667   0.20781   0.22550

 Mulliken charges:
               1
     1  C   -0.491006
     2  C    0.296896
     3  C   -0.323665
     4  C    0.164712
     5  O   -0.446108
     6  C    0.043276
     7  O   -0.328441
     8  C    0.063500
     9  C   -0.203195
    10  H    0.121049
    11  H    0.124259
    12  H    0.117061
    13  H    0.104221
    14  H    0.100529
    15  H    0.085764
    16  H    0.285492
    17  H    0.085572
    18  H    0.102981
    19  H    0.097104
 Sum of Mulliken charges =   0.00000

 Dipole moment (field-independent basis, Debye):
    X=              2.3869    Y=              0.1193    Z=              0.7791  Tot=              2.5136
 Quadrupole moment (field-independent basis, Debye-Ang):
   XX=            -56.4453   YY=            -54.4270   ZZ=            -50.5591
   XY=             -1.2369   XZ=             -0.5912   YZ=              0.9524

  Exact polarizability:  82.317  -1.368  71.654  -1.875   0.364  66.799
 Approx polarizability: 110.520  -1.874 105.444  -0.886  -2.697 108.848

                      1                      2                      3
                      A                      A                      A
 Frequencies --    113.3639               218.1608               236.4861
 Red. masses --      3.1872                 1.0647                 3.0790
 Frc consts  --      0.0241                 0.0299                 0.1015
 IR Inten    --      2.7411                 0.0248                 1.6583

                      4                      5                      6
                      A                      A                      A
 Frequencies --    275.7461               317.6569               410.1349
 Red. masses --      2.7495                 3.5730                 2.3343
 Frc consts  --      0.1232                 0.2124                 0.2313
 IR Inten    --      1.5165                 2.5731                 0.2142

                      7                      8                      9
                      A                      A                      A
 Frequencies --    467.7368               502.8902               507.1669
 Red. masses --      2.1362                 2.8622                 1.7725
 Frc consts  --      0.2754                 0.4265                 0.2686
 IR Inten    --      8.0631                21.5880                58.7259

                     10                     11                     12
                      A                      A                      A
 Frequencies --    577.4742               662.4516               762.6454
 Red. masses --      4.0256                 3.4747                 3.4705
 Frc consts  --      0.7909                 0.8984                 1.1893
 IR Inten    --      4.7402                 7.8243                 5.6073

                     13                     14                     15
                      A                      A                      A
 Frequencies --    766.1957               829.9208               865.5731
 Red. masses --      3.1537                 1.6475                 2.9303
 Frc consts  --      1.0908                 0.6686                 1.2935
 IR Inten    --     13.8351                 6.9488                 3.6310

                     16                     17                     18
                      A                      A                      A
 Frequencies --    883.5392               892.5925               919.6573
 Red. masses --      2.1281                 2.5919                 1.7119
 Frc consts  --      0.9788                 1.2167                 0.8530
 IR Inten    --      4.9186                18.5774                 7.9701

                     19                     20                     21
                      A                      A                      A
 Frequencies --    962.3541               989.8239              1015.7877
 Red. masses --      1.6724                 2.1845                 3.1115
 Frc consts  --      0.9126                 1.2610                 1.8916
 IR Inten    --      1.7289                14.8350                87.8920

                     22                     23                     24
                      A                      A                      A
 Frequencies --   1040.9332              1056.4415              1076.5024
 Red. masses --      1.8448                 1.8388                 2.3048
 Frc consts  --      1.1777                 1.2091                 1.5736
 IR Inten    --      0.5351                 6.9320                26.1767

                     25                     26                     27
                      A                      A                      A
 Frequencies --   1102.3496              1115.2227              1168.2703
 Red. masses --      3.0269                 2.2340                 1.8595
 Frc consts  --      2.1671                 1.6370                 1.4954
 IR Inten    --      8.5918                79.3639                 2.9787

                     28                     29                     30
                      A                      A                      A
 Frequencies --   1195.5793              1215.7333              1237.9036
 Red. masses --      1.3329                 1.3831                 1.4044
 Frc consts  --      1.1225                 1.2044                 1.2680
 IR Inten    --     15.3871                 0.6478                 0.9873

                     31                     32                     33
                      A                      A                      A
 Frequencies --   1257.6681              1290.2054              1306.6873
 Red. masses --      1.8609                 1.9955                 1.5064
 Frc consts  --      1.7342                 1.9572                 1.5155
 IR Inten    --      1.4747                 0.6727                 7.1098

                     34                     35                     36
                      A                      A                      A
 Frequencies --   1323.8918              1344.5740              1403.3953
 Red. masses --      1.9052                 1.6651                 2.6420
 Frc consts  --      1.9674                 1.7736                 3.0658
 IR Inten    --      4.8680                 1.3867                16.6970

                     37                     38                     39
                      A                      A                      A
 Frequencies --   1419.4388              1440.8996              1487.7818
 Red. masses --      1.2741                 1.3052                 1.0647
 Frc consts  --      1.5124                 1.5966                 1.3886
 IR Inten    --      1.6186                74.5382                 3.0351

                     40                     41                     42
                      A                      A                      A
 Frequencies --   1492.8531              1502.8346              3022.7371
 Red. masses --      1.0715                 1.0856                 1.0352
 Frc consts  --      1.4069                 1.4446                 5.5731
 IR Inten    --      1.9904                 3.9433                33.4900

                     43                     44                     45
                      A                      A                      A
 Frequencies --   3044.5077              3054.3494              3085.2229
 Red. masses --      1.0627                 1.0831                 1.1015
 Frc consts  --      5.8038                 5.9534                 6.1775
 IR Inten    --     29.6508                23.4643                11.1345

                     46                     47                     48
                      A                      A                      A
 Frequencies --   3087.9050              3092.3568              3113.4731
 Red. masses --      1.1037                 1.1008                 1.0906
 Frc consts  --      6.2004                 6.2022                 6.2291
 IR Inten    --     37.3062                23.3051                37.6060

                     49                     50                     51
                      A                      A                      A
 Frequencies --   3174.3835              3207.5922              3757.2462
 Red. masses --      1.0917                 1.0980                 1.0649
 Frc consts  --      6.4814                 6.6562                 8.8572
 IR Inten    --     21.5976                 9.0515                22.2629

 - Thermochemistry -
 -------------------
 Temperature   298.150 Kelvin.  Pressure   1.00000 Atm.
 Atom     1 has atomic number  6 and mass  12.00000

 Molecular mass:   126.06808 amu.
 Principal axes and moments of inertia in atomic units:
                           1         2         3
     Eigenvalues --   580.990071141.455031408.28240
           X            0.99969  -0.02401  -0.00630
           Y            0.02417   0.99935   0.02674
           Z            0.00565  -0.02689   0.99962
 This molecule is an asymmetric top.
 Rotational symmetry number  1.
 Warning -- assumption of classical behavior for rotation
           may cause significant error
 Rotational temperatures (Kelvin)      0.14908     0.07588     0.06150
 Rotational constants (GHZ):           3.10632     1.58109     1.28152
 Zero-point vibrational energy     420465.2 (Joules/Mol)
                                  100.49360 (Kcal/Mol)
 Warning -- explicit consideration of  10 degrees of freedom as
           vibrations may cause significant error
 Vibrational temperatures:    163.11   313.88   340.25   396.74   457.04
          (Kelvin)            590.09   672.97   723.55   729.70   830.86
                              953.12  1097.28  1102.38  1194.07  1245.37
                             1271.21  1284.24  1323.18  1384.61  1424.13
                             1461.49  1497.67  1519.98  1548.84  1586.03
                             1604.55  1680.88  1720.17  1749.17  1781.06
                             1809.50  1856.32  1880.03  1904.78  1934.54
                             2019.17  2042.25  2073.13  2140.58  2147.88
                             2162.24  4349.04  4380.36  4394.52  4438.94
                             4442.80  4449.21  4479.59  4567.22  4615.00
                             5405.83

 Zero-point correction=                           0.160147 (Hartree/Particle)
 Thermal correction to Energy=                    0.167751
 Thermal correction to Enthalpy=                  0.168695
 Thermal correction to Gibbs Free Energy=         0.128452
 Sum of electronic and zero-point Energies=           -422.994173
 Sum of electronic and thermal Energies=              -422.986569
 Sum of electronic and thermal Enthalpies=            -422.985625
 Sum of electronic and thermal Free Energies=         -423.025868

                     E (Thermal)             CV                S
                      KCal/Mol        Cal/Mol-Kelvin    Cal/Mol-Kelvin
 Total                  105.265             30.905             84.699
 Electronic               0.000              0.000              0.000
 Translational            0.889              2.981             40.409
 Rotational               0.889              2.981             28.326
 Vibrational            103.488             24.943             15.965
 Vibration     1          0.607              1.938              3.210
 Vibration     2          0.646              1.813              1.974
 Vibration     3          0.655              1.785              1.829
 Vibration     4          0.677              1.718              1.560
 Vibration     5          0.704              1.640              1.322
 Vibration     6          0.774              1.448              0.926
 Vibration     7          0.825              1.322              0.744
 Vibration     8          0.858              1.244              0.651
 Vibration     9          0.862              1.234              0.640
 Vibration    10          0.934              1.080              0.490

 Normal termination of Gaussian 09 at Tue Jan 28 03:09:56 2020.
 Normal termination of Gaussian 09 at Tue Jan 28 02:17:16 2020.
