 Gaussian 09, Revision D.01,
 Gaussian 09:  ES64L-G09RevD.01 24-Apr-2013

 -----------------------------
 # b3lyp 6-31G(2df,p) opt Freq
 -----------------------------

 -----
 titel
 -----
 Symbolic Z-matrix:
 Charge =  0 Multiplicity = 1

 SCF Done:  E(RB3LYP) =  -423.155679907     A.U. after   14 cycles
 Optimization completed.
    -- Stationary point found.
 Normal termination of Gaussian 09 at Tue Jan 28 03:33:16 2020.

 ----------------------------------------------------------------------
 #N Geom=AllCheck Guess=TCheck SCRF=Check GenChk RB3LYP/6-31G(2df,p) Fr
 eq
 ----------------------------------------------------------------------

 Structure from the checkpoint file:  "/scratch/puck/g09_17e4aa9f-52df-48a2-a995-5d090a6c646d/Gau-2019.chk"
 -----
 titel
 -----
 Charge =  0 Multiplicity = 1

                         Standard orientation:
 ---------------------------------------------------------------------
 Center     Atomic      Atomic             Coordinates (Angstroms)
 Number     Number       Type             X           Y           Z
 ---------------------------------------------------------------------
      1          6           0        2.376869   -0.125982   -0.228241
      2          6           0        0.872084   -0.139902   -0.148592
      3          6           0        0.211966   -1.066230    0.857276
      4          8           0       -1.160962   -0.705537    1.054370
      5          6           0       -1.354750   -0.761572   -0.410961
      6          6           0       -1.296137    0.663154   -0.936982
      7          6           0        0.079018    1.157001   -0.400542
      8          8           0       -0.031637    1.958075    0.764142
      9          6           0        0.061946   -1.345908   -0.602929
     10          1           0        2.786010    0.625739    0.454964
     11          1           0        2.805125   -1.096597    0.044624
     12          1           0        2.721870    0.114838   -1.240350
     13          1           0        0.724451   -1.579598    1.663036
     14          1           0       -2.225651   -1.366192   -0.667249
     15          1           0       -1.321797    0.656741   -2.032962
     16          1           0       -2.109155    1.296960   -0.572895
     17          1           0        0.593396    1.784012   -1.134987
     18          1           0       -0.526452    1.422031    1.397672
     19          1           0        0.387011   -2.161612   -1.234128
 ---------------------------------------------------------------------

 SCF Done:  E(RB3LYP) =  -423.155679907     A.U. after    1 cycles

 The electronic state is 1-A.
 Alpha  occ. eigenvalues --  -19.14395 -19.12152 -10.24404 -10.24116 -10.22957
 Alpha  occ. eigenvalues --  -10.19734 -10.19465 -10.18370 -10.18206  -1.05880
 Alpha  occ. eigenvalues --   -1.00420  -0.85441  -0.77067  -0.72222  -0.67326
 Alpha  occ. eigenvalues --   -0.61479  -0.56775  -0.54248  -0.51465  -0.50001
 Alpha  occ. eigenvalues --   -0.46153  -0.44208  -0.42706  -0.41180  -0.40609
 Alpha  occ. eigenvalues --   -0.38739  -0.37431  -0.36626  -0.34702  -0.32369
 Alpha  occ. eigenvalues --   -0.31646  -0.27728  -0.25045  -0.23222
 Alpha virt. eigenvalues --    0.07724   0.09503   0.10106   0.11869   0.12238
 Alpha virt. eigenvalues --    0.13487   0.14474   0.15375   0.16019   0.16352
 Alpha virt. eigenvalues --    0.16847   0.18001   0.18620   0.21405   0.21543

 Mulliken charges:
               1
     1  C   -0.507116
     2  C    0.295958
     3  C    0.047898
     4  O   -0.328230
     5  C    0.077235
     6  C   -0.250495
     7  C    0.071245
     8  O   -0.445844
     9  C   -0.197889
    10  H    0.136911
    11  H    0.115215
    12  H    0.119466
    13  H    0.104253
    14  H    0.084755
    15  H    0.101312
    16  H    0.112366
    17  H    0.079666
    18  H    0.285959
    19  H    0.097335
 Sum of Mulliken charges =   0.00000

 Dipole moment (field-independent basis, Debye):
    X=              0.4654    Y=             -1.7750    Z=             -1.5564  Tot=              2.4062
 Quadrupole moment (field-independent basis, Debye-Ang):
   XX=            -51.6097   YY=            -56.7353   ZZ=            -51.8427
   XY=             -1.6973   XZ=              1.9929   YZ=             -0.7843

  Exact polarizability:  79.305   0.308  71.874   2.326  -0.918  68.462
 Approx polarizability: 108.908   2.788 105.279   0.105   0.497 110.866

                      1                      2                      3
                      A                      A                      A
 Frequencies --    138.4554               214.8948               236.4772
 Red. masses --      3.8133                 1.1651                 2.5877
 Frc consts  --      0.0431                 0.0317                 0.0853
 IR Inten    --      4.1049                 0.2805                 1.1607

                      4                      5                      6
                      A                      A                      A
 Frequencies --    270.1879               325.1371               411.4254
 Red. masses --      2.7564                 3.0084                 2.3878
 Frc consts  --      0.1186                 0.1874                 0.2381
 IR Inten    --      0.2886                 0.1513                 3.2772

                      7                      8                      9
                      A                      A                      A
 Frequencies --    459.2461               522.8888               559.3732
 Red. masses --      4.2853                 1.2355                 3.1496
 Frc consts  --      0.5325                 0.1990                 0.5807
 IR Inten    --      7.1234                56.7924                13.3692

                     10                     11                     12
                      A                      A                      A
 Frequencies --    575.3294               690.1388               750.1693
 Red. masses --      2.9680                 5.0866                 3.8039
 Frc consts  --      0.5788                 1.4274                 1.2612
 IR Inten    --      5.6051                 8.8445                21.8109

                     13                     14                     15
                      A                      A                      A
 Frequencies --    810.8234               837.5270               839.8414
 Red. masses --      2.1950                 1.9728                 3.0446
 Frc consts  --      0.8502                 0.8153                 1.2652
 IR Inten    --      7.6286                 1.0789                15.8268

                     16                     17                     18
                      A                      A                      A
 Frequencies --    894.2223               895.4841               904.6685
 Red. masses --      2.6435                 2.1429                 1.9127
 Frc consts  --      1.2454                 1.0124                 0.9223
 IR Inten    --      7.6748                 6.5300                12.9646

                     19                     20                     21
                      A                      A                      A
 Frequencies --    954.7775               982.7108              1008.9791
 Red. masses --      1.9154                 1.6333                 2.8332
 Frc consts  --      1.0288                 0.9293                 1.6994
 IR Inten    --      6.5181                12.1282                14.0192

                     22                     23                     24
                      A                      A                      A
 Frequencies --   1021.3207              1044.6188              1066.7477
 Red. masses --      2.8195                 1.6972                 2.1239
 Frc consts  --      1.7328                 1.0912                 1.4240
 IR Inten    --     45.5618                 0.9579                74.0777

                     25                     26                     27
                      A                      A                      A
 Frequencies --   1091.6790              1113.5690              1158.6852
 Red. masses --      2.3812                 2.1084                 1.5609
 Frc consts  --      1.6720                 1.5404                 1.2347
 IR Inten    --     21.2443                 1.5454                33.7312

                     28                     29                     30
                      A                      A                      A
 Frequencies --   1172.5572              1219.3348              1237.8137
 Red. masses --      1.5424                 1.4376                 1.3260
 Frc consts  --      1.2494                 1.2594                 1.1970
 IR Inten    --     11.6306                 2.4602                 6.9008

                     31                     32                     33
                      A                      A                      A
 Frequencies --   1269.9444              1273.0435              1314.8963
 Red. masses --      2.1591                 2.1828                 1.5205
 Frc consts  --      2.0516                 2.0843                 1.5489
 IR Inten    --      7.9694                 4.0098                 4.9099

                     34                     35                     36
                      A                      A                      A
 Frequencies --   1329.9420              1337.6346              1415.0378
 Red. masses --      1.5473                 1.8211                 1.3064
 Frc consts  --      1.6124                 1.9198                 1.5412
 IR Inten    --      7.1241                 1.2445                 1.8246

                     37                     38                     39
                      A                      A                      A
 Frequencies --   1416.0237              1448.5026              1469.9951
 Red. masses --      2.7097                 1.1964                 1.1109
 Frc consts  --      3.2012                 1.4790                 1.4143
 IR Inten    --      2.2860                69.5811                 7.4990

                     40                     41                     42
                      A                      A                      A
 Frequencies --   1490.2952              1501.9428              3024.7224
 Red. masses --      1.0455                 1.0728                 1.0354
 Frc consts  --      1.3681                 1.4259                 5.5812
 IR Inten    --      5.8190                 5.6762                32.3215

                     43                     44                     45
                      A                      A                      A
 Frequencies --   3040.3544              3066.5071              3087.2466
 Red. masses --      1.0648                 1.0851                 1.1006
 Frc consts  --      5.7991                 6.0116                 6.1806
 IR Inten    --     16.4680                39.7025                24.5035

                     46                     47                     48
                      A                      A                      A
 Frequencies --   3098.1580              3104.2485              3108.7090
 Red. masses --      1.1011                 1.0985                 1.0932
 Frc consts  --      6.2271                 6.2367                 6.2248
 IR Inten    --     15.7434                22.9502                37.7281

                     49                     50                     51
                      A                      A                      A
 Frequencies --   3176.7489              3205.9604              3768.0918
 Red. masses --      1.0914                 1.0986                 1.0652
 Frc consts  --      6.4893                 6.6527                 8.9109
 IR Inten    --     19.2538                 9.8670                29.5304

 - Thermochemistry -
 -------------------
 Temperature   298.150 Kelvin.  Pressure   1.00000 Atm.
 Atom     1 has atomic number  6 and mass  12.00000

 Molecular mass:   126.06808 amu.
 Principal axes and moments of inertia in atomic units:
                           1         2         3
     Eigenvalues --   788.93165 882.997301173.32894
           X            0.99219  -0.12231   0.02456
           Y            0.12267   0.99235  -0.01382
           Z           -0.02268   0.01672   0.99960
 This molecule is an asymmetric top.
 Rotational symmetry number  1.
 Warning -- assumption of classical behavior for rotation
           may cause significant error
 Rotational temperatures (Kelvin)      0.10979     0.09809     0.07382
 Rotational constants (GHZ):           2.28758     2.04388     1.53814
 Zero-point vibrational energy     420828.8 (Joules/Mol)
                                  100.58051 (Kcal/Mol)
 Warning -- explicit consideration of  10 degrees of freedom as
           vibrations may cause significant error
 Vibrational temperatures:    199.21   309.19   340.24   388.74   467.80
          (Kelvin)            591.95   660.75   752.32   804.81   827.77
                              992.95  1079.32  1166.59  1205.01  1208.34
                             1286.58  1288.40  1301.61  1373.71  1413.90
                             1451.69  1469.45  1502.97  1534.81  1570.68
                             1602.18  1667.09  1687.05  1754.35  1780.94
                             1827.16  1831.62  1891.84  1913.49  1924.56
                             2035.92  2037.34  2084.07  2114.99  2144.20
                             2160.96  4351.90  4374.39  4412.01  4441.85
                             4457.55  4466.32  4472.73  4570.63  4612.66
                             5421.44

 Zero-point correction=                           0.160285 (Hartree/Particle)
 Thermal correction to Energy=                    0.167799
 Thermal correction to Enthalpy=                  0.168743
 Thermal correction to Gibbs Free Energy=         0.128810
 Sum of electronic and zero-point Energies=           -422.995395
 Sum of electronic and thermal Energies=              -422.987881
 Sum of electronic and thermal Enthalpies=            -422.986937
 Sum of electronic and thermal Free Energies=         -423.026870

                     E (Thermal)             CV                S
                      KCal/Mol        Cal/Mol-Kelvin    Cal/Mol-Kelvin
 Total                  105.296             30.758             84.047
 Electronic               0.000              0.000              0.000
 Translational            0.889              2.981             40.409
 Rotational               0.889              2.981             28.193
 Vibrational            103.518             24.797             15.445
 Vibration     1          0.614              1.915              2.825
 Vibration     2          0.645              1.818              2.002
 Vibration     3          0.655              1.785              1.829
 Vibration     4          0.674              1.728              1.595
 Vibration     5          0.709              1.625              1.284
 Vibration     6          0.775              1.445              0.922
 Vibration     7          0.817              1.340              0.768
 Vibration     8          0.878              1.199              0.603
 Vibration     9          0.915              1.119              0.525
 Vibration    10          0.932              1.085              0.494

 Normal termination of Gaussian 09 at Tue Jan 28 04:19:41 2020.
