 Gaussian 09, Revision D.01,
 Gaussian 09:  ES64L-G09RevD.01 24-Apr-2013

 -----------------------------
 # b3lyp 6-31G(2df,p) opt Freq
 -----------------------------

 -----
 titel
 -----
 Symbolic Z-matrix:
 Charge =  0 Multiplicity = 1

 SCF Done:  E(RB3LYP) =  -423.257967275     A.U. after   14 cycles
 Optimization completed.
    -- Stationary point found.
 Normal termination of Gaussian 09 at Mon Jan 27 13:08:27 2020.

 ----------------------------------------------------------------------
 #N Geom=AllCheck Guess=TCheck SCRF=Check GenChk RB3LYP/6-31G(2df,p) Fr
 eq
 ----------------------------------------------------------------------

 Structure from the checkpoint file:  "/scratch/puck/g09_528ea1f0-df17-4959-a140-f28f28b530ac/Gau-28450.chk"
 -----
 titel
 -----
 Charge =  0 Multiplicity = 1

                         Standard orientation:
 ---------------------------------------------------------------------
 Center     Atomic      Atomic             Coordinates (Angstroms)
 Number     Number       Type             X           Y           Z
 ---------------------------------------------------------------------
      1          8           0       -2.101750   -1.271634   -0.224295
      2          6           0       -1.339033   -0.379120    0.013145
      3          8           0       -1.507913    0.869825   -0.490710
      4          6           0       -0.483769    1.770832   -0.045584
      5          6           0        0.608804    0.934194    0.659420
      6          6           0        1.879521    0.651257   -0.186514
      7          6           0        1.660253   -0.742852   -0.804147
      8          6           0        0.907088   -1.504091    0.298271
      9          6           0       -0.066693   -0.445838    0.857419
     10          1           0       -0.109211    2.305512   -0.923392
     11          1           0       -0.945737    2.498613    0.629924
     12          1           0        0.875232    1.411857    1.603810
     13          1           0        2.068076    1.430043   -0.931838
     14          1           0        2.752748    0.624745    0.474652
     15          1           0        1.032542   -0.669102   -1.700646
     16          1           0        2.593599   -1.227553   -1.101663
     17          1           0        0.374026   -2.389561   -0.055558
     18          1           0        1.601847   -1.817871    1.084972
     19          1           0       -0.362833   -0.658494    1.887730
 ---------------------------------------------------------------------

 SCF Done:  E(RB3LYP) =  -423.257967275     A.U. after    1 cycles

 The electronic state is 1-A.
 Alpha  occ. eigenvalues --  -19.17849 -19.11714 -10.29709 -10.24669 -10.20480
 Alpha  occ. eigenvalues --  -10.20317 -10.19269 -10.19052 -10.18895  -1.09608
 Alpha  occ. eigenvalues --   -1.01585  -0.85443  -0.75460  -0.73789  -0.68982
 Alpha  occ. eigenvalues --   -0.60070  -0.58233  -0.54624  -0.52187  -0.48435
 Alpha  occ. eigenvalues --   -0.47267  -0.45814  -0.45064  -0.42502  -0.40303
 Alpha  occ. eigenvalues --   -0.36854  -0.36557  -0.35161  -0.34747  -0.34451
 Alpha  occ. eigenvalues --   -0.33550  -0.32628  -0.28920  -0.26075
 Alpha virt. eigenvalues --    0.01412   0.06735   0.09274   0.10907   0.11725
 Alpha virt. eigenvalues --    0.13287   0.14049   0.14956   0.15930   0.16529
 Alpha virt. eigenvalues --    0.17666   0.19316   0.20364   0.20548   0.21475

 Mulliken charges:
               1
     1  O   -0.347819
     2  C    0.433136
     3  O   -0.215760
     4  C   -0.096572
     5  C   -0.039839
     6  C   -0.216987
     7  C   -0.211658
     8  C   -0.210550
     9  C   -0.166182
    10  H    0.119473
    11  H    0.116401
    12  H    0.084360
    13  H    0.099419
    14  H    0.103670
    15  H    0.115616
    16  H    0.101449
    17  H    0.127610
    18  H    0.098849
    19  H    0.105384
 Sum of Mulliken charges =   0.00000

 Dipole moment (field-independent basis, Debye):
    X=              3.5433    Y=              2.0092    Z=              1.3911  Tot=              4.3043
 Quadrupole moment (field-independent basis, Debye-Ang):
   XX=            -60.2899   YY=            -52.7096   ZZ=            -51.4668
   XY=             -3.8173   XZ=             -2.3899   YZ=             -0.0710

  Exact polarizability:  76.410   2.155  80.330  -0.054  -0.318  63.582
 Approx polarizability: 107.314   7.859 118.384   3.163  -0.869  97.927

                      1                      2                      3
                      A                      A                      A
 Frequencies --     38.7130               128.9663               174.9472
 Red. masses --      2.9298                 5.0981                 2.7026
 Frc consts  --      0.0026                 0.0500                 0.0487
 IR Inten    --      2.4809                 0.4401                 1.3733

                      4                      5                      6
                      A                      A                      A
 Frequencies --    290.9291               374.7454               487.4137
 Red. masses --      2.3272                 1.9602                 5.2093
 Frc consts  --      0.1161                 0.1622                 0.7292
 IR Inten    --      3.8571                 0.2375                 2.6027

                      7                      8                      9
                      A                      A                      A
 Frequencies --    543.6829               562.9694               667.9293
 Red. masses --      3.4452                 2.3131                 5.1119
 Frc consts  --      0.6000                 0.4319                 1.3437
 IR Inten    --      2.8627                 1.6448                 5.1245

                     10                     11                     12
                      A                      A                      A
 Frequencies --    714.6494               745.4964               787.7022
 Red. masses --      5.4886                 4.4727                 2.1673
 Frc consts  --      1.6516                 1.4646                 0.7923
 IR Inten    --      2.0411                 0.3381                 0.5078

                     13                     14                     15
                      A                      A                      A
 Frequencies --    851.3814               875.5612               895.7315
 Red. masses --      4.3923                 2.1084                 1.8327
 Frc consts  --      1.8758                 0.9523                 0.8664
 IR Inten    --      2.2948                 1.3794                 1.4673

                     16                     17                     18
                      A                      A                      A
 Frequencies --    911.8507               942.6249               978.4858
 Red. masses --      2.0755                 2.3747                 2.1190
 Frc consts  --      1.0168                 1.2432                 1.1954
 IR Inten    --      1.1114                10.8781                 5.9313

                     19                     20                     21
                      A                      A                      A
 Frequencies --    997.7471              1033.1217              1054.6983
 Red. masses --      1.5341                 1.7002                 3.3722
 Frc consts  --      0.8998                 1.0692                 2.2101
 IR Inten    --      0.5408                 4.1632                56.5571

                     22                     23                     24
                      A                      A                      A
 Frequencies --   1087.1947              1116.9346              1154.5987
 Red. masses --      2.1727                 1.7252                 1.8516
 Frc consts  --      1.5131                 1.2681                 1.4543
 IR Inten    --     18.8660                37.3096                48.4621

                     25                     26                     27
                      A                      A                      A
 Frequencies --   1178.4221              1196.2135              1198.9993
 Red. masses --      1.6315                 2.1038                 1.7180
 Frc consts  --      1.3349                 1.7736                 1.4551
 IR Inten    --     17.4200                98.2564                 2.4027

                     28                     29                     30
                      A                      A                      A
 Frequencies --   1244.7760              1268.9835              1283.3758
 Red. masses --      1.1307                 1.4121                 1.3782
 Frc consts  --      1.0322                 1.3398                 1.3375
 IR Inten    --      3.9225                 9.5271                 6.0695

                     31                     32                     33
                      A                      A                      A
 Frequencies --   1305.0345              1328.0396              1332.9428
 Red. masses --      1.4210                 1.4725                 1.3728
 Frc consts  --      1.4259                 1.5301                 1.4371
 IR Inten    --      2.4182                 2.9797                 1.4408

                     34                     35                     36
                      A                      A                      A
 Frequencies --   1352.5030              1361.5474              1409.1220
 Red. masses --      1.3954                 1.3701                 1.4700
 Frc consts  --      1.5039                 1.4964                 1.7198
 IR Inten    --      0.5730                 3.4429                20.8096

                     37                     38                     39
                      A                      A                      A
 Frequencies --   1485.4409              1491.2327              1505.1807
 Red. masses --      1.0894                 1.0808                 1.1054
 Frc consts  --      1.4163                 1.4160                 1.4756
 IR Inten    --      3.9023                 4.4827                 3.0946

                     40                     41                     42
                      A                      A                      A
 Frequencies --   1525.7210              1870.3564              3035.9817
 Red. masses --      1.0865                12.7640                 1.0696
 Frc consts  --      1.4901                26.3078                 5.8085
 IR Inten    --      2.3753               326.0582                11.3777

                     43                     44                     45
                      A                      A                      A
 Frequencies --   3040.8718              3041.9096              3047.4509
 Red. masses --      1.0625                 1.0598                 1.0635
 Frc consts  --      5.7885                 5.7781                 5.8193
 IR Inten    --     28.7469                40.5009                27.4526

                     46                     47                     48
                      A                      A                      A
 Frequencies --   3077.4384              3083.3086              3087.0632
 Red. masses --      1.0854                 1.1031                 1.0936
 Frc consts  --      6.0562                 6.1789                 6.1403
 IR Inten    --     28.4535                 4.7866                 7.1741

                     49                     50                     51
                      A                      A                      A
 Frequencies --   3095.6904              3101.9673              3113.1122
 Red. masses --      1.0963                 1.0978                 1.1012
 Frc consts  --      6.1903                 6.2239                 6.2877
 IR Inten    --     55.4202                33.5439                16.8681

 - Thermochemistry -
 -------------------
 Temperature   298.150 Kelvin.  Pressure   1.00000 Atm.
 Atom     1 has atomic number  8 and mass  15.99491

 Molecular mass:   126.06808 amu.
 Principal axes and moments of inertia in atomic units:
                           1         2         3
     Eigenvalues --   707.886451024.153381433.61869
           X            0.99886  -0.04503  -0.01572
           Y            0.04505   0.99898   0.00134
           Z            0.01565  -0.00204   0.99988
 This molecule is an asymmetric top.
 Rotational symmetry number  1.
 Warning -- assumption of classical behavior for rotation
           may cause significant error
 Rotational temperatures (Kelvin)      0.12236     0.08457     0.06042
 Rotational constants (GHZ):           2.54948     1.76218     1.25887
 Zero-point vibrational energy     427549.9 (Joules/Mol)
                                  102.18688 (Kcal/Mol)
 Warning -- explicit consideration of   8 degrees of freedom as
           vibrations may cause significant error
 Vibrational temperatures:     55.70   185.55   251.71   418.58   539.17
          (Kelvin)            701.28   782.24   809.99   961.00  1028.22
                             1072.60  1133.33  1224.95  1259.74  1288.76
                             1311.95  1356.23  1407.82  1435.53  1486.43
                             1517.47  1564.23  1607.02  1661.21  1695.48
                             1721.08  1725.09  1790.95  1825.78  1846.49
                             1877.65  1910.75  1917.81  1945.95  1958.96
                             2027.41  2137.22  2145.55  2165.62  2195.17
                             2691.02  4368.10  4375.13  4376.62  4384.60
                             4427.74  4436.19  4441.59  4454.00  4463.03
                             4479.07

 Zero-point correction=                           0.162845 (Hartree/Particle)
 Thermal correction to Energy=                    0.170257
 Thermal correction to Enthalpy=                  0.171201
 Thermal correction to Gibbs Free Energy=         0.130072
 Sum of electronic and zero-point Energies=           -423.095122
 Sum of electronic and thermal Energies=              -423.087711
 Sum of electronic and thermal Enthalpies=            -423.086766
 Sum of electronic and thermal Free Energies=         -423.127895

                     E (Thermal)             CV                S
                      KCal/Mol        Cal/Mol-Kelvin    Cal/Mol-Kelvin
 Total                  106.838             28.593             86.563
 Electronic               0.000              0.000              0.000
 Translational            0.889              2.981             40.409
 Rotational               0.889              2.981             28.432
 Vibrational            105.060             22.632             17.722
 Vibration     1          0.594              1.981              5.324
 Vibration     2          0.611              1.924              2.961
 Vibration     3          0.627              1.873              2.382
 Vibration     4          0.687              1.691              1.469
 Vibration     5          0.746              1.524              1.060
 Vibration     6          0.843              1.278              0.690
 Vibration     7          0.899              1.154              0.557
 Vibration     8          0.919              1.111              0.518

 Optimization completed.
    -- Stationary point found.
 Normal termination of Gaussian 09 at Mon Jan 27 13:57:54 2020.
