 Gaussian 09, Revision D.01,
 Gaussian 09:  ES64L-G09RevD.01 24-Apr-2013

 -----------------------------
 # b3lyp 6-31G(2df,p) opt Freq
 -----------------------------

 -----
 titel
 -----
 Symbolic Z-matrix:
 Charge =  0 Multiplicity = 1

 SCF Done:  E(RB3LYP) =  -423.145475146     A.U. after   14 cycles
 Optimization completed.
    -- Stationary point found.
 Normal termination of Gaussian 09 at Mon Jan 27 18:53:33 2020.

 ----------------------------------------------------------------------
 #N Geom=AllCheck Guess=TCheck SCRF=Check GenChk RB3LYP/6-31G(2df,p) Fr
 eq
 ----------------------------------------------------------------------

 Structure from the checkpoint file:  "/scratch/puck/g09_298e3d55-904f-4039-8607-813e732c6c1f/Gau-20103.chk"
 -----
 titel
 -----
 Charge =  0 Multiplicity = 1

                         Standard orientation:
 ---------------------------------------------------------------------
 Center     Atomic      Atomic             Coordinates (Angstroms)
 Number     Number       Type             X           Y           Z
 ---------------------------------------------------------------------
      1          6           0        1.522349    1.621482    0.155815
      2          6           0        0.649565    0.426324   -0.137474
      3          8           0        1.361006   -0.645125   -0.819540
      4          6           0        1.062691   -1.581747    0.241537
      5          6           0        0.176887   -0.556268    0.971753
      6          6           0       -1.332537   -0.488800    0.660062
      7          6           0       -1.451761   -0.593151   -0.878517
      8          6           0       -0.751380    0.766208   -0.724242
      9          8           0       -1.500367    0.967398    0.522933
     10          1           0        0.945855    2.381614    0.691397
     11          1           0        2.386189    1.340508    0.765183
     12          1           0        1.894296    2.057151   -0.778131
     13          1           0        0.573757   -2.491006   -0.128653
     14          1           0        1.970231   -1.863769    0.788611
     15          1           0        0.407386   -0.334990    2.013308
     16          1           0       -2.039397   -0.953005    1.347358
     17          1           0       -0.950638   -1.392338   -1.424005
     18          1           0       -2.486613   -0.472545   -1.198495
     19          1           0       -0.841068    1.585903   -1.437319
 ---------------------------------------------------------------------

 SCF Done:  E(RB3LYP) =  -423.145475146     A.U. after    1 cycles

 The electronic state is 1-A.
 Alpha  occ. eigenvalues --  -19.13716 -19.13220 -10.24271 -10.23725 -10.23552
 Alpha  occ. eigenvalues --  -10.23199 -10.19105 -10.18776 -10.17632  -1.05718
 Alpha  occ. eigenvalues --   -1.02672  -0.78211  -0.75313  -0.72906  -0.66675
 Alpha  occ. eigenvalues --   -0.65259  -0.55628  -0.53000  -0.50858  -0.49205
 Alpha  occ. eigenvalues --   -0.47219  -0.45504  -0.42324  -0.41078  -0.40687
 Alpha  occ. eigenvalues --   -0.39060  -0.37140  -0.36369  -0.32947  -0.32557
 Alpha  occ. eigenvalues --   -0.31026  -0.29270  -0.26400  -0.24072
 Alpha virt. eigenvalues --    0.07580   0.08900   0.09748   0.11629   0.12112
 Alpha virt. eigenvalues --    0.13653   0.14799   0.15610   0.16262   0.17060
 Alpha virt. eigenvalues --    0.17376   0.17785   0.18338   0.19017   0.20793

 Mulliken charges:
               1
     1  C   -0.477678
     2  C    0.470603
     3  O   -0.342229
     4  C   -0.118801
     5  C   -0.114560
     6  C    0.056505
     7  C   -0.249580
     8  C    0.022260
     9  O   -0.303529
    10  H    0.134983
    11  H    0.118881
    12  H    0.124869
    13  H    0.100203
    14  H    0.104979
    15  H    0.085115
    16  H    0.082137
    17  H    0.117605
    18  H    0.111526
    19  H    0.076711
 Sum of Mulliken charges =   0.00000

 Dipole moment (field-independent basis, Debye):
    X=             -0.1081    Y=             -0.9258    Z=              0.5661  Tot=              1.0905
 Quadrupole moment (field-independent basis, Debye-Ang):
   XX=            -55.3197   YY=            -51.6347   ZZ=            -52.9090
   XY=              3.3020   XZ=              3.7266   YZ=             -3.3081

  Exact polarizability:  76.390   1.338  76.469   2.571  -2.930  66.607
 Approx polarizability: 106.212  -2.503 112.255  -2.282  -2.986 105.180

                      1                      2                      3
                      A                      A                      A
 Frequencies --    185.3865               225.5965               251.4446
 Red. masses --      3.0597                 1.0789                 2.3285
 Frc consts  --      0.0620                 0.0324                 0.0867
 IR Inten    --      4.5405                 0.4914                 1.2771

                      4                      5                      6
                      A                      A                      A
 Frequencies --    291.0483               346.0649               424.2680
 Red. masses --      2.8595                 3.5926                 2.8234
 Frc consts  --      0.1427                 0.2535                 0.2994
 IR Inten    --      1.3997                 4.4286                 3.6769

                      7                      8                      9
                      A                      A                      A
 Frequencies --    510.8982               552.4712               599.6664
 Red. masses --      2.2893                 6.8460                 3.3180
 Frc consts  --      0.3521                 1.2311                 0.7030
 IR Inten    --      2.9060                 7.7485                 2.4256

                     10                     11                     12
                      A                      A                      A
 Frequencies --    677.8189               786.9375               836.9691
 Red. masses --      4.0020                 2.5313                 3.0867
 Frc consts  --      1.0833                 0.9236                 1.2740
 IR Inten    --      0.6842                 2.8045                17.5315

                     13                     14                     15
                      A                      A                      A
 Frequencies --    857.4106               868.6984               885.8118
 Red. masses --      2.6469                 2.9563                 2.2402
 Frc consts  --      1.1465                 1.3144                 1.0357
 IR Inten    --     11.0082                 5.2448                 2.7714

                     16                     17                     18
                      A                      A                      A
 Frequencies --    898.5067               928.8098               951.6817
 Red. masses --      3.2898                 2.9883                 1.8254
 Frc consts  --      1.5648                 1.5189                 0.9741
 IR Inten    --     33.1674                27.7535                 2.5039

                     19                     20                     21
                      A                      A                      A
 Frequencies --    999.3110              1013.2450              1023.3997
 Red. masses --      5.9323                 1.8964                 1.5760
 Frc consts  --      3.4904                 1.1471                 0.9725
 IR Inten    --     67.7288                15.7377                 8.8269

                     22                     23                     24
                      A                      A                      A
 Frequencies --   1047.6592              1061.6015              1092.7674
 Red. masses --      1.4356                 2.5412                 1.9081
 Frc consts  --      0.9284                 1.6874                 1.3425
 IR Inten    --      3.2999                 1.5174                 1.5099

                     25                     26                     27
                      A                      A                      A
 Frequencies --   1129.4627              1163.2818              1168.2548
 Red. masses --      2.1223                 1.7095                 1.1970
 Frc consts  --      1.5952                 1.3629                 0.9625
 IR Inten    --     24.3507                 6.8747                 2.2456

                     28                     29                     30
                      A                      A                      A
 Frequencies --   1188.7043              1210.1610              1221.3106
 Red. masses --      1.5914                 1.9895                 1.5755
 Frc consts  --      1.3249                 1.7167                 1.3845
 IR Inten    --     11.2657                 2.9746                11.9707

                     31                     32                     33
                      A                      A                      A
 Frequencies --   1243.4507              1283.7281              1300.8644
 Red. masses --      1.8196                 1.4239                 1.8108
 Frc consts  --      1.6576                 1.3826                 1.8054
 IR Inten    --      5.3967                 4.9795                 7.2903

                     34                     35                     36
                      A                      A                      A
 Frequencies --   1318.3658              1337.8513              1365.9414
 Red. masses --      1.8223                 1.4491                 1.7765
 Frc consts  --      1.8662                 1.5282                 1.9529
 IR Inten    --      1.9903                 1.0286                 5.0205

                     37                     38                     39
                      A                      A                      A
 Frequencies --   1403.2279              1483.8134              1488.7932
 Red. masses --      1.3852                 1.0613                 1.1204
 Frc consts  --      1.6070                 1.3767                 1.4631
 IR Inten    --     11.0881                 4.1732                 1.3352

                     40                     41                     42
                      A                      A                      A
 Frequencies --   1490.0898              1523.1578              3017.5549
 Red. masses --      1.0644                 1.0969                 1.0550
 Frc consts  --      1.3925                 1.4994                 5.6602
 IR Inten    --      4.6324                 0.6020                73.2320

                     43                     44                     45
                      A                      A                      A
 Frequencies --   3034.6027              3058.8814              3092.8641
 Red. masses --      1.0353                 1.1106                 1.0569
 Frc consts  --      5.6171                 6.1227                 5.9569
 IR Inten    --     15.6857                32.8321                21.1562

                     46                     47                     48
                      A                      A                      A
 Frequencies --   3103.7415              3116.6079              3118.7195
 Red. masses --      1.1006                 1.0886                 1.1012
 Frc consts  --      6.2464                 6.2301                 6.3103
 IR Inten    --     12.5508                23.5013                11.5256

                     49                     50                     51
                      A                      A                      A
 Frequencies --   3122.2799              3128.8945              3160.0352
 Red. masses --      1.0896                 1.0935                 1.1105
 Frc consts  --      6.2586                 6.3076                 6.5335
 IR Inten    --     62.8900                24.4460                16.3127

 - Thermochemistry -
 -------------------
 Temperature   298.150 Kelvin.  Pressure   1.00000 Atm.
 Atom     1 has atomic number  6 and mass  12.00000

 Molecular mass:   126.06808 amu.
 Principal axes and moments of inertia in atomic units:
                           1         2         3
     Eigenvalues --   684.46566 912.605621154.60883
           X            0.99238   0.11459   0.04517
           Y           -0.11375   0.99329  -0.02076
           Z           -0.04725   0.01546   0.99876
 This molecule is an asymmetric top.
 Rotational symmetry number  1.
 Warning -- assumption of classical behavior for rotation
           may cause significant error
 Rotational temperatures (Kelvin)      0.12654     0.09491     0.07502
 Rotational constants (GHZ):           2.63672     1.97757     1.56308
 Zero-point vibrational energy     422234.6 (Joules/Mol)
                                  100.91649 (Kcal/Mol)
 Warning -- explicit consideration of   9 degrees of freedom as
           vibrations may cause significant error
 Vibrational temperatures:    266.73   324.58   361.77   418.75   497.91
          (Kelvin)            610.43   735.07   794.88   862.79   975.23
                             1132.23  1204.21  1233.62  1249.86  1274.48
                             1292.75  1336.35  1369.26  1437.78  1457.83
                             1472.44  1507.35  1527.41  1572.25  1625.04
                             1673.70  1680.86  1710.28  1741.15  1757.19
                             1789.05  1847.00  1871.65  1896.83  1924.87
                             1965.28  2018.93  2134.87  2142.04  2143.90
                             2191.48  4341.58  4366.11  4401.04  4449.94
                             4465.59  4484.10  4487.14  4492.26  4501.78
                             4546.58

 Zero-point correction=                           0.160821 (Hartree/Particle)
 Thermal correction to Energy=                    0.167886
 Thermal correction to Enthalpy=                  0.168830
 Thermal correction to Gibbs Free Energy=         0.129824
 Sum of electronic and zero-point Energies=           -422.984654
 Sum of electronic and thermal Energies=              -422.977590
 Sum of electronic and thermal Enthalpies=            -422.976645
 Sum of electronic and thermal Free Energies=         -423.015651

                     E (Thermal)             CV                S
                      KCal/Mol        Cal/Mol-Kelvin    Cal/Mol-Kelvin
 Total                  105.350             29.243             82.095
 Electronic               0.000              0.000              0.000
 Translational            0.889              2.981             40.409
 Rotational               0.889              2.981             28.069
 Vibrational            103.572             23.281             13.618
 Vibration     1          0.631              1.860              2.273
 Vibration     2          0.650              1.802              1.914
 Vibration     3          0.663              1.760              1.720
 Vibration     4          0.687              1.690              1.468
 Vibration     5          0.724              1.583              1.184
 Vibration     6          0.786              1.417              0.878
 Vibration     7          0.866              1.226              0.631
 Vibration     8          0.908              1.134              0.539
 Vibration     9          0.958              1.033              0.450

 Optimization completed.
    -- Stationary point found.
 Normal termination of Gaussian 09 at Mon Jan 27 20:36:55 2020.
