 Gaussian 09, Revision D.01,
 Gaussian 09:  ES64L-G09RevD.01 24-Apr-2013

 -----------------------------
 # b3lyp 6-31G(2df,p) opt Freq
 -----------------------------

 -----
 titel
 -----
 Symbolic Z-matrix:
 Charge =  0 Multiplicity = 1

 SCF Done:  E(RB3LYP) =  -423.209427887     A.U. after   13 cycles
 Optimization completed.
    -- Stationary point found.
 Normal termination of Gaussian 09 at Mon Jan 27 22:03:37 2020.

 ----------------------------------------------------------------------
 #N Geom=AllCheck Guess=TCheck SCRF=Check GenChk RB3LYP/6-31G(2df,p) Fr
 eq
 ----------------------------------------------------------------------

 Structure from the checkpoint file:  "/scratch/puck/g09_cd7c1918-b7c7-4f0f-814e-c6e201be0607/Gau-180871.chk"
 -----
 titel
 -----
 Charge =  0 Multiplicity = 1

                         Standard orientation:
 ---------------------------------------------------------------------
 Center     Atomic      Atomic             Coordinates (Angstroms)
 Number     Number       Type             X           Y           Z
 ---------------------------------------------------------------------
      1          6           0       -2.506658   -0.820671   -0.124174
      2          6           0       -1.314000    0.066352    0.037303
      3          6           0       -1.126348    1.298826   -0.439619
      4          6           0        0.212172    1.889889   -0.074437
      5          6           0        0.954686    0.725451    0.623266
      6          8           0        1.964597    0.127065   -0.188758
      7          6           0        1.423188   -1.061671   -0.722635
      8          8           0        0.523207   -1.565053    0.233783
      9          6           0       -0.097705   -0.409345    0.805692
     10          1           0       -2.967114   -1.046305    0.846504
     11          1           0       -3.267512   -0.366313   -0.764233
     12          1           0       -2.211466   -1.782163   -0.559443
     13          1           0       -1.861016    1.847836   -1.021381
     14          1           0        0.781766    2.239948   -0.942475
     15          1           0        0.104250    2.751899    0.597037
     16          1           0        1.432956    1.036266    1.555185
     17          1           0        0.910119   -0.859065   -1.678850
     18          1           0        2.226796   -1.788666   -0.871772
     19          1           0       -0.323212   -0.662516    1.846846
 ---------------------------------------------------------------------

 SCF Done:  E(RB3LYP) =  -423.209427887     A.U. after    1 cycles

 The electronic state is 1-A.
 Alpha  occ. eigenvalues --  -19.14482 -19.14081 -10.26828 -10.23378 -10.23350
 Alpha  occ. eigenvalues --  -10.18671 -10.18502 -10.18358 -10.18241  -1.08339
 Alpha  occ. eigenvalues --   -0.98989  -0.84272  -0.74959  -0.72254  -0.66659
 Alpha  occ. eigenvalues --   -0.62521  -0.58921  -0.53449  -0.51821  -0.48826
 Alpha  occ. eigenvalues --   -0.45627  -0.45234  -0.43089  -0.42203  -0.40141
 Alpha  occ. eigenvalues --   -0.39437  -0.37541  -0.37363  -0.35562  -0.32934
 Alpha  occ. eigenvalues --   -0.31982  -0.27069  -0.25033  -0.24527
 Alpha virt. eigenvalues --    0.01728   0.09295   0.10857   0.11751   0.13131
 Alpha virt. eigenvalues --    0.13354   0.14759   0.15373   0.16807   0.17747
 Alpha virt. eigenvalues --    0.18053   0.18834   0.19565   0.20466   0.21396

 Mulliken charges:
               1
     1  C   -0.497661
     2  C    0.309393
     3  C   -0.170184
     4  C   -0.281243
     5  C    0.080162
     6  O   -0.260317
     7  C    0.013581
     8  O   -0.249831
     9  C   -0.022772
    10  H    0.125342
    11  H    0.121865
    12  H    0.140395
    13  H    0.091260
    14  H    0.119482
    15  H    0.107214
    16  H    0.086095
    17  H    0.084220
    18  H    0.117192
    19  H    0.085807
 Sum of Mulliken charges =   0.00000

 Dipole moment (field-independent basis, Debye):
    X=             -1.3403    Y=              0.8475    Z=              0.0004  Tot=              1.5857
 Quadrupole moment (field-independent basis, Debye-Ang):
   XX=            -54.5242   YY=            -53.3739   ZZ=            -50.9127
   XY=             -0.7351   XZ=             -0.1653   YZ=              1.3708

  Exact polarizability:  79.524   2.087  84.113   0.347  -2.050  64.837
 Approx polarizability: 106.265   4.134 129.993  -1.598  -8.382 100.075

                      1                      2                      3
                      A                      A                      A
 Frequencies --     69.8057               168.8049               187.0451
 Red. masses --      4.1981                 1.2061                 2.2534
 Frc consts  --      0.0121                 0.0202                 0.0464
 IR Inten    --      0.4587                 0.1642                 1.5820

                      4                      5                      6
                      A                      A                      A
 Frequencies --    223.0037               264.5955               347.5353
 Red. masses --      2.2138                 2.5549                 2.8711
 Frc consts  --      0.0649                 0.1054                 0.2043
 IR Inten    --      1.6955                 3.8417                 6.6062

                      7                      8                      9
                      A                      A                      A
 Frequencies --    418.4707               523.9648               576.9127
 Red. masses --      2.5993                 4.5599                 3.9427
 Frc consts  --      0.2682                 0.7376                 0.7731
 IR Inten    --      1.9172                 2.6133                 4.2872

                     10                     11                     12
                      A                      A                      A
 Frequencies --    683.6759               739.3774               779.7102
 Red. masses --      5.1936                 5.9575                 2.9952
 Frc consts  --      1.4303                 1.9189                 1.0729
 IR Inten    --      1.9511                 0.4003                 0.5145

                     13                     14                     15
                      A                      A                      A
 Frequencies --    838.2232               864.3624               884.1434
 Red. masses --      1.9038                 2.2254                 2.3585
 Frc consts  --      0.7881                 0.9796                 1.0863
 IR Inten    --      7.1475                19.7184                 4.6466

                     16                     17                     18
                      A                      A                      A
 Frequencies --    934.7472               968.3550               979.7740
 Red. masses --      2.4508                 2.1505                 3.1712
 Frc consts  --      1.2617                 1.1881                 1.7936
 IR Inten    --      6.5605                10.8652                53.4068

                     19                     20                     21
                      A                      A                      A
 Frequencies --   1007.9083              1032.6884              1038.1212
 Red. masses --      3.3047                 1.8597                 1.8950
 Frc consts  --      1.9780                 1.1685                 1.2033
 IR Inten    --     37.8658                 6.5525                 8.4566

                     22                     23                     24
                      A                      A                      A
 Frequencies --   1059.1680              1077.2820              1106.1963
 Red. masses --      2.2090                 2.2319                 4.1091
 Frc consts  --      1.4601                 1.5261                 2.9625
 IR Inten    --     13.7371                 7.0562               127.4865

                     25                     26                     27
                      A                      A                      A
 Frequencies --   1174.0002              1187.6918              1196.7863
 Red. masses --      1.6951                 1.8661                 1.3888
 Frc consts  --      1.3765                 1.5509                 1.1720
 IR Inten    --     26.7456                 9.2714                41.6485

                     28                     29                     30
                      A                      A                      A
 Frequencies --   1231.0340              1269.2326              1280.3899
 Red. masses --      1.0975                 1.7031                 1.7196
 Frc consts  --      0.9799                 1.6165                 1.6610
 IR Inten    --      0.0937                 5.5566                 4.5792

                     31                     32                     33
                      A                      A                      A
 Frequencies --   1325.1102              1336.6877              1353.7144
 Red. masses --      1.5217                 1.4234                 1.4540
 Frc consts  --      1.5743                 1.4985                 1.5699
 IR Inten    --      3.6579                 0.0983                13.0058

                     34                     35                     36
                      A                      A                      A
 Frequencies --   1372.5918              1410.7117              1428.7763
 Red. masses --      1.4027                 1.2849                 1.2608
 Frc consts  --      1.5570                 1.5066                 1.5164
 IR Inten    --      1.0637                 1.8573                 7.6168

                     37                     38                     39
                      A                      A                      A
 Frequencies --   1476.4213              1478.3770              1492.1614
 Red. masses --      1.0457                 1.0919                 1.0571
 Frc consts  --      1.3430                 1.4061                 1.3868
 IR Inten    --      6.0455                 1.5134                 8.0621

                     40                     41                     42
                      A                      A                      A
 Frequencies --   1542.0471              1724.7573              2949.3760
 Red. masses --      1.0987                 7.0642                 1.0699
 Frc consts  --      1.5393                12.3814                 5.4834
 IR Inten    --      2.7011                 0.7576                84.4705

                     43                     44                     45
                      A                      A                      A
 Frequencies --   3021.0322              3021.3229              3053.9837
 Red. masses --      1.0573                 1.0482                 1.0859
 Frc consts  --      5.6855                 5.6375                 5.9672
 IR Inten    --     11.7083                45.7410                26.2606

                     46                     47                     48
                      A                      A                      A
 Frequencies --   3065.0240              3074.0159              3079.7229
 Red. masses --      1.0948                 1.0951                 1.0883
 Frc consts  --      6.0598                 6.0971                 6.0817
 IR Inten    --      8.7102                14.0665                60.3192

                     49                     50                     51
                      A                      A                      A
 Frequencies --   3086.9071              3114.8850              3175.3351
 Red. masses --      1.0954                 1.1008                 1.0932
 Frc consts  --      6.1501                 6.2925                 6.4944
 IR Inten    --     47.1108                17.1960                18.3182

 - Thermochemistry -
 -------------------
 Temperature   298.150 Kelvin.  Pressure   1.00000 Atm.
 Atom     1 has atomic number  6 and mass  12.00000

 Molecular mass:   126.06808 amu.
 Principal axes and moments of inertia in atomic units:
                           1         2         3
     Eigenvalues --   694.853111021.749211458.50865
           X            0.99918   0.04024   0.00322
           Y           -0.04028   0.99912   0.01154
           Z           -0.00275  -0.01166   0.99993
 This molecule is an asymmetric top.
 Rotational symmetry number  1.
 Warning -- assumption of classical behavior for rotation
           may cause significant error
 Rotational temperatures (Kelvin)      0.12465     0.08477     0.05939
 Rotational constants (GHZ):           2.59730     1.76633     1.23739
 Zero-point vibrational energy     422855.8 (Joules/Mol)
                                  101.06496 (Kcal/Mol)
 Warning -- explicit consideration of   9 degrees of freedom as
           vibrations may cause significant error
 Vibrational temperatures:    100.43   242.87   269.12   320.85   380.69
          (Kelvin)            500.03   602.09   753.87   830.05   983.66
                             1063.80  1121.83  1206.01  1243.62  1272.08
                             1344.89  1393.25  1409.67  1450.15  1485.81
                             1493.62  1523.90  1549.97  1591.57  1689.12
                             1708.82  1721.91  1771.18  1826.14  1842.19
                             1906.54  1923.19  1947.69  1974.85  2029.70
                             2055.69  2124.24  2127.05  2146.88  2218.66
                             2481.54  4243.49  4346.59  4347.00  4394.00
                             4409.88  4422.82  4431.03  4441.37  4481.62
                             4568.59

 Zero-point correction=                           0.161057 (Hartree/Particle)
 Thermal correction to Energy=                    0.168868
 Thermal correction to Enthalpy=                  0.169812
 Thermal correction to Gibbs Free Energy=         0.128512
 Sum of electronic and zero-point Energies=           -423.048371
 Sum of electronic and thermal Energies=              -423.040560
 Sum of electronic and thermal Enthalpies=            -423.039616
 Sum of electronic and thermal Free Energies=         -423.080916

                     E (Thermal)             CV                S
                      KCal/Mol        Cal/Mol-Kelvin    Cal/Mol-Kelvin
 Total                  105.966             29.866             86.924
 Electronic               0.000              0.000              0.000
 Translational            0.889              2.981             40.409
 Rotational               0.889              2.981             28.428
 Vibrational            104.189             23.904             18.087
 Vibration     1          0.598              1.969              4.159
 Vibration     2          0.625              1.881              2.449
 Vibration     3          0.632              1.858              2.257
 Vibration     4          0.649              1.806              1.935
 Vibration     5          0.671              1.738              1.631
 Vibration     6          0.725              1.580              1.177
 Vibration     7          0.781              1.430              0.897
 Vibration     8          0.879              1.197              0.601
 Vibration     9          0.933              1.081              0.491

 Optimization completed.
    -- Stationary point found.
 Normal termination of Gaussian 09 at Mon Jan 27 22:49:39 2020.
