 Gaussian 09, Revision D.01,
 Gaussian 09:  ES64L-G09RevD.01 24-Apr-2013

 -----------------------------
 # b3lyp 6-31G(2df,p) opt Freq
 -----------------------------

 -----
 titel
 -----
 Symbolic Z-matrix:
 Charge =  0 Multiplicity = 1

 SCF Done:  E(RB3LYP) =  -423.195729324     A.U. after   14 cycles
 Optimization completed.
    -- Stationary point found.
 Normal termination of Gaussian 09 at Tue Jan 28 02:25:41 2020.

 ----------------------------------------------------------------------
 #N Geom=AllCheck Guess=TCheck SCRF=Check GenChk RB3LYP/6-31G(2df,p) Fr
 eq
 ----------------------------------------------------------------------

 Structure from the checkpoint file:  "/scratch/puck/g09_2a61b0dc-d715-4c07-949f-58fc6effbb7e/Gau-76365.chk"
 -----
 titel
 -----
 Charge =  0 Multiplicity = 1

                         Standard orientation:
 ---------------------------------------------------------------------
 Center     Atomic      Atomic             Coordinates (Angstroms)
 Number     Number       Type             X           Y           Z
 ---------------------------------------------------------------------
      1          6           0        2.517276    0.139858   -0.603731
      2          6           0        1.421969   -0.498174    0.247420
      3          6           0        0.307079   -1.237602   -0.580719
      4          6           0       -0.938559   -0.473019   -0.103109
      5          8           0       -2.139314   -0.836353   -0.675348
      6          6           0       -0.665040   -0.374072    1.457418
      7          6           0        0.540724    0.520002    1.019896
      8          6           0       -0.434414    0.975848   -0.075786
      9          8           0       -0.852212    2.007308   -0.520769
     10          1           0        2.095789    0.840293   -1.333597
     11          1           0        3.228798    0.694281    0.017436
     12          1           0        3.077027   -0.621848   -1.156274
     13          1           0        1.878243   -1.188731    0.964341
     14          1           0        0.448390   -1.134419   -1.660540
     15          1           0        0.234402   -2.303177   -0.347574
     16          1           0       -2.691492   -0.046519   -0.730538
     17          1           0       -1.443574    0.167530    1.997519
     18          1           0       -0.415298   -1.313497    1.955429
     19          1           0        1.025715    1.221402    1.694398
 ---------------------------------------------------------------------

 SCF Done:  E(RB3LYP) =  -423.195729324     A.U. after    1 cycles

 The electronic state is 1-A.
 Alpha  occ. eigenvalues --  -19.15366 -19.14135 -10.26830 -10.24823 -10.20511
 Alpha  occ. eigenvalues --  -10.20235 -10.20072 -10.19173 -10.18182  -1.05630
 Alpha  occ. eigenvalues --   -1.03573  -0.89565  -0.76550  -0.71477  -0.65392
 Alpha  occ. eigenvalues --   -0.63717  -0.56522  -0.55980  -0.49807  -0.47096
 Alpha  occ. eigenvalues --   -0.46310  -0.45886  -0.42170  -0.41350  -0.39377
 Alpha  occ. eigenvalues --   -0.38332  -0.37917  -0.36566  -0.36164  -0.34731
 Alpha  occ. eigenvalues --   -0.33358  -0.32709  -0.27446  -0.23365
 Alpha virt. eigenvalues --   -0.00851   0.07807   0.09057   0.11272   0.12198
 Alpha virt. eigenvalues --    0.13305   0.14630   0.15238   0.16098   0.16823
 Alpha virt. eigenvalues --    0.18064   0.18272   0.19225   0.20012   0.20800

 Mulliken charges:
               1
     1  C   -0.415798
     2  C    0.029003
     3  C   -0.274784
     4  C    0.315193
     5  O   -0.482258
     6  C   -0.313302
     7  C   -0.154205
     8  C    0.366716
     9  O   -0.344151
    10  H    0.129058
    11  H    0.117647
    12  H    0.119604
    13  H    0.079214
    14  H    0.112318
    15  H    0.110187
    16  H    0.294131
    17  H    0.114248
    18  H    0.110883
    19  H    0.086297
 Sum of Mulliken charges =   0.00000

 Dipole moment (field-independent basis, Debye):
    X=              1.1881    Y=             -1.2175    Z=              1.3661  Tot=              2.1818
 Quadrupole moment (field-independent basis, Debye-Ang):
   XX=            -51.0380   YY=            -59.4463   ZZ=            -52.5153
   XY=             -1.4219   XZ=             -1.2326   YZ=              0.8627

  Exact polarizability:  80.978  -1.784  73.881   0.699  -1.198  69.646
 Approx polarizability: 110.029  -4.667 118.255   5.469  -6.403 106.552

                      1                      2                      3
                      A                      A                      A
 Frequencies --    119.4946               145.2357               179.4122
 Red. masses --      4.4302                 2.5539                 2.8213
 Frc consts  --      0.0373                 0.0317                 0.0535
 IR Inten    --      4.6559                10.2495                27.5128

                      4                      5                      6
                      A                      A                      A
 Frequencies --    243.1279               293.6141               312.5510
 Red. masses --      1.0504                 2.8534                 1.6720
 Frc consts  --      0.0366                 0.1449                 0.0962
 IR Inten    --      0.0365                 0.6771                56.4579

                      7                      8                      9
                      A                      A                      A
 Frequencies --    383.4356               408.4475               453.1418
 Red. masses --      2.4893                 2.4271                 2.8939
 Frc consts  --      0.2156                 0.2386                 0.3501
 IR Inten    --      1.3966                 0.7838                 1.3945

                     10                     11                     12
                      A                      A                      A
 Frequencies --    508.0350               567.2398               681.1233
 Red. masses --      3.2687                 3.6957                 4.6753
 Frc consts  --      0.4971                 0.7006                 1.2780
 IR Inten    --      0.6254                 1.4554                 1.4293

                     13                     14                     15
                      A                      A                      A
 Frequencies --    715.1121               792.3850               810.0796
 Red. masses --      4.1886                 3.1907                 2.9108
 Frc consts  --      1.2620                 1.1804                 1.1254
 IR Inten    --      2.5725                19.5249                16.9551

                     16                     17                     18
                      A                      A                      A
 Frequencies --    815.1855               880.1723               927.5430
 Red. masses --      4.5712                 2.3639                 2.0149
 Frc consts  --      1.7898                 1.0790                 1.0213
 IR Inten    --     17.1862                 2.0962                 0.5841

                     19                     20                     21
                      A                      A                      A
 Frequencies --    936.8207               981.3119              1002.5325
 Red. masses --      1.5880                 1.4758                 2.0788
 Frc consts  --      0.8211                 0.8373                 1.2310
 IR Inten    --      1.0930                 2.0474                 6.1196

                     22                     23                     24
                      A                      A                      A
 Frequencies --   1029.0604              1034.0037              1099.3939
 Red. masses --      1.4955                 1.4958                 2.1615
 Frc consts  --      0.9331                 0.9422                 1.5393
 IR Inten    --      1.5082                 3.5442                33.9811

                     25                     26                     27
                      A                      A                      A
 Frequencies --   1113.2601              1140.6442              1166.7510
 Red. masses --      1.7407                 1.6862                 1.7395
 Frc consts  --      1.2711                 1.2926                 1.3952
 IR Inten    --      3.0397                 5.1100                58.7206

                     28                     29                     30
                      A                      A                      A
 Frequencies --   1174.1273              1214.5449              1222.7650
 Red. masses --      1.8254                 1.5186                 1.4331
 Frc consts  --      1.4826                 1.3199                 1.2625
 IR Inten    --      1.3097                 9.2460                 1.6286

                     31                     32                     33
                      A                      A                      A
 Frequencies --   1261.1885              1318.8970              1355.8118
 Red. masses --      1.9461                 1.4877                 1.9737
 Frc consts  --      1.8238                 1.5247                 2.1376
 IR Inten    --     20.3919                 0.7388                93.0375

                     34                     35                     36
                      A                      A                      A
 Frequencies --   1368.3717              1396.7560              1415.7338
 Red. masses --      1.5435                 1.9878                 1.2503
 Frc consts  --      1.7028                 2.2849                 1.4765
 IR Inten    --     33.6862                 1.3597                 3.5474

                     37                     38                     39
                      A                      A                      A
 Frequencies --   1484.9209              1495.2014              1498.7215
 Red. masses --      1.0958                 1.0504                 1.0449
 Frc consts  --      1.4235                 1.3836                 1.3828
 IR Inten    --      2.5909                 1.8589                 4.9513

                     40                     41                     42
                      A                      A                      A
 Frequencies --   1509.1152              1884.9004              3028.2013
 Red. masses --      1.1195                12.4422                 1.0355
 Frc consts  --      1.5022                26.0449                 5.5944
 IR Inten    --      0.6742               274.1825                19.6030

                     43                     44                     45
                      A                      A                      A
 Frequencies --   3042.2135              3057.3018              3068.0594
 Red. masses --      1.0838                 1.0600                 1.0556
 Frc consts  --      5.9100                 5.8375                 5.8542
 IR Inten    --     16.0571                26.8636                17.0545

                     46                     47                     48
                      A                      A                      A
 Frequencies --   3096.6408              3100.9822              3104.6843
 Red. masses --      1.1024                 1.1015                 1.1058
 Frc consts  --      6.2281                 6.2406                 6.2800
 IR Inten    --     21.1394                25.6346                26.4079

                     49                     50                     51
                      A                      A                      A
 Frequencies --   3139.2939              3153.5917              3778.9141
 Red. masses --      1.1114                 1.0912                 1.0659
 Frc consts  --      6.4532                 6.3938                 8.9681
 IR Inten    --     15.7423                17.3697                31.1901

 - Thermochemistry -
 -------------------
 Temperature   298.150 Kelvin.  Pressure   1.00000 Atm.
 Atom     1 has atomic number  6 and mass  12.00000

 Molecular mass:   126.06808 amu.
 Principal axes and moments of inertia in atomic units:
                           1         2         3
     Eigenvalues --   736.186521155.628451341.51763
           X            0.99953   0.00314  -0.03048
           Y           -0.00258   0.99983   0.01842
           Z            0.03054  -0.01834   0.99937
 This molecule is an asymmetric top.
 Rotational symmetry number  1.
 Warning -- assumption of classical behavior for rotation
           may cause significant error
 Rotational temperatures (Kelvin)      0.11765     0.07495     0.06456
 Rotational constants (GHZ):           2.45147     1.56170     1.34530
 Zero-point vibrational energy     418155.0 (Joules/Mol)
                                   99.94144 (Kcal/Mol)
 Warning -- explicit consideration of  11 degrees of freedom as
           vibrations may cause significant error
 Vibrational temperatures:    171.93   208.96   258.13   349.81   422.44
          (Kelvin)            449.69   551.68   587.66   651.97   730.95
                              816.13   979.98  1028.89  1140.06  1165.52
                             1172.87  1266.37  1334.53  1347.87  1411.89
                             1442.42  1480.59  1487.70  1581.78  1601.73
                             1641.13  1678.69  1689.31  1747.46  1759.28
                             1814.57  1897.60  1950.71  1968.78  2009.62
                             2036.92  2136.47  2151.26  2156.32  2171.28
                             2711.95  4356.90  4377.06  4398.77  4414.25
                             4455.37  4461.62  4466.94  4516.74  4537.31
                             5437.01

 Zero-point correction=                           0.159267 (Hartree/Particle)
 Thermal correction to Energy=                    0.167625
 Thermal correction to Enthalpy=                  0.168569
 Thermal correction to Gibbs Free Energy=         0.126713
 Sum of electronic and zero-point Energies=           -423.036463
 Sum of electronic and thermal Energies=              -423.028105
 Sum of electronic and thermal Enthalpies=            -423.027160
 Sum of electronic and thermal Free Energies=         -423.069017

                     E (Thermal)             CV                S
                      KCal/Mol        Cal/Mol-Kelvin    Cal/Mol-Kelvin
 Total                  105.186             32.629             88.094
 Electronic               0.000              0.000              0.000
 Translational            0.889              2.981             40.409
 Rotational               0.889              2.981             28.525
 Vibrational            103.409             26.667             19.160
 Vibration     1          0.609              1.933              3.109
 Vibration     2          0.617              1.908              2.734
 Vibration     3          0.629              1.868              2.335
 Vibration     4          0.659              1.774              1.780
 Vibration     5          0.688              1.686              1.453
 Vibration     6          0.701              1.650              1.349
 Vibration     7          0.753              1.506              1.026
 Vibration     8          0.773              1.452              0.932
 Vibration     9          0.812              1.354              0.786
 Vibration    10          0.863              1.232              0.638
 Vibration    11          0.923              1.102              0.510

 Normal termination of Gaussian 09 at Tue Jan 28 03:10:46 2020.
