 Gaussian 09, Revision D.01,
 Gaussian 09:  ES64L-G09RevD.01 24-Apr-2013

 -----------------------------
 # b3lyp 6-31G(2df,p) opt Freq
 -----------------------------

 -----
 titel
 -----
 Symbolic Z-matrix:
 Charge =  0 Multiplicity = 1

 SCF Done:  E(RB3LYP) =  -423.235207415     A.U. after   14 cycles
 Optimization completed.
    -- Stationary point found.
 Normal termination of Gaussian 09 at Tue Jan 28 00:46:29 2020.

 ----------------------------------------------------------------------
 #N Geom=AllCheck Guess=TCheck SCRF=Check GenChk RB3LYP/6-31G(2df,p) Fr
 eq
 ----------------------------------------------------------------------

 Structure from the checkpoint file:  "/scratch/puck/g09_962a1532-c1b0-48a0-af07-4f03ed2ca7c6/Gau-37670.chk"
 -----
 titel
 -----
 Charge =  0 Multiplicity = 1

                         Standard orientation:
 ---------------------------------------------------------------------
 Center     Atomic      Atomic             Coordinates (Angstroms)
 Number     Number       Type             X           Y           Z
 ---------------------------------------------------------------------
      1          6           0        2.724705   -0.114441    0.088721
      2          6           0        1.369304    0.028921   -0.584045
      3          8           0        0.706817    1.211943   -0.078282
      4          6           0       -0.632551    1.004084    0.095468
      5          8           0       -1.400784    1.902533    0.289137
      6          6           0       -0.935865   -0.464373    0.002684
      7          6           0       -2.311060   -0.871180   -0.458785
      8          6           0       -0.151746   -1.270428    1.027171
      9          6           0        0.380044   -1.107900   -0.365879
     10          1           0        2.616098   -0.280612    1.163733
     11          1           0        3.264526   -0.964230   -0.340705
     12          1           0        3.323271    0.787290   -0.064296
     13          1           0        1.512298    0.181047   -1.662225
     14          1           0       -3.071141   -0.434599    0.195566
     15          1           0       -2.509926   -0.521183   -1.476745
     16          1           0       -2.423781   -1.958936   -0.442949
     17          1           0        0.329296   -0.753496    1.850962
     18          1           0       -0.573553   -2.235453    1.286448
     19          1           0        0.427670   -1.963730   -1.028646
 ---------------------------------------------------------------------

 SCF Done:  E(RB3LYP) =  -423.235207415     A.U. after    1 cycles

 The electronic state is 1-A.
 Alpha  occ. eigenvalues --  -19.17379 -19.11750 -10.29753 -10.25569 -10.21584
 Alpha  occ. eigenvalues --  -10.21097 -10.20623 -10.18866 -10.18834  -1.09341
 Alpha  occ. eigenvalues --   -1.01562  -0.88735  -0.77971  -0.72649  -0.66136
 Alpha  occ. eigenvalues --   -0.64255  -0.59470  -0.55008  -0.51709  -0.48019
 Alpha  occ. eigenvalues --   -0.46038  -0.43636  -0.42816  -0.42066  -0.41386
 Alpha  occ. eigenvalues --   -0.40638  -0.39950  -0.37984  -0.37090  -0.34121
 Alpha  occ. eigenvalues --   -0.31467  -0.29308  -0.28953  -0.25893
 Alpha virt. eigenvalues --    0.01473   0.08074   0.09606   0.10647   0.11973
 Alpha virt. eigenvalues --    0.12812   0.13365   0.15131   0.15740   0.16110
 Alpha virt. eigenvalues --    0.17296   0.18171   0.19543   0.19777   0.21233

 Mulliken charges:
               1
     1  C   -0.397655
     2  C    0.109643
     3  O   -0.245580
     4  C    0.406341
     5  O   -0.350764
     6  C    0.177059
     7  C   -0.482272
     8  C   -0.327016
     9  C   -0.113903
    10  H    0.127416
    11  H    0.121927
    12  H    0.135552
    13  H    0.094190
    14  H    0.146316
    15  H    0.129018
    16  H    0.115449
    17  H    0.131140
    18  H    0.122658
    19  H    0.100480
 Sum of Mulliken charges =   0.00000

 Dipole moment (field-independent basis, Debye):
    X=              1.6362    Y=             -3.9573    Z=             -0.8158  Tot=              4.3593
 Quadrupole moment (field-independent basis, Debye-Ang):
   XX=            -52.4544   YY=            -58.8319   ZZ=            -51.0405
   XY=              3.9393   XZ=              0.0972   YZ=             -0.8431

  Exact polarizability:  89.040  -3.006  73.707  -1.554  -0.639  63.708
 Approx polarizability: 119.727 -11.361 112.743  -4.995   0.426  98.694

                      1                      2                      3
                      A                      A                      A
 Frequencies --    130.4461               144.1956               176.0213
 Red. masses --      4.6385                 2.2451                 1.1863
 Frc consts  --      0.0465                 0.0275                 0.0217
 IR Inten    --      0.0634                 0.9104                 0.4418

                      4                      5                      6
                      A                      A                      A
 Frequencies --    224.9080               226.8471               287.6451
 Red. masses --      1.2685                 1.9286                 3.2267
 Frc consts  --      0.0378                 0.0585                 0.1573
 IR Inten    --      0.2462                 1.2831                 2.6653

                      7                      8                      9
                      A                      A                      A
 Frequencies --    293.0312               384.4851               499.1769
 Red. masses --      3.1993                 2.6790                 3.5587
 Frc consts  --      0.1619                 0.2333                 0.5225
 IR Inten    --      0.7961                 1.4019                 3.5273

                     10                     11                     12
                      A                      A                      A
 Frequencies --    510.2187               575.6526               678.1434
 Red. masses --      2.7444                 5.4818                 3.9656
 Frc consts  --      0.4209                 1.0703                 1.0745
 IR Inten    --      3.2185                 5.0477                 0.9864

                     13                     14                     15
                      A                      A                      A
 Frequencies --    706.2357               780.7127               796.1540
 Red. masses --      3.9953                 5.1843                 2.5218
 Frc consts  --      1.1741                 1.8618                 0.9418
 IR Inten    --      0.8040                 6.4074                 3.4587

                     16                     17                     18
                      A                      A                      A
 Frequencies --    856.3950               892.4453               939.5067
 Red. masses --      2.3089                 2.2573                 2.5163
 Frc consts  --      0.9977                 1.0592                 1.3086
 IR Inten    --      2.7508                 1.2253                43.4289

                     19                     20                     21
                      A                      A                      A
 Frequencies --    976.6345               983.6677              1028.9846
 Red. masses --      1.3591                 1.6691                 1.8773
 Frc consts  --      0.7638                 0.9515                 1.1711
 IR Inten    --      6.7679                 6.4518                39.6205

                     22                     23                     24
                      A                      A                      A
 Frequencies --   1035.0790              1071.7064              1095.4971
 Red. masses --      1.4072                 1.4929                 2.2892
 Frc consts  --      0.8883                 1.0103                 1.6186
 IR Inten    --      2.5604                34.7956                45.5072

                     25                     26                     27
                      A                      A                      A
 Frequencies --   1116.9221              1122.7931              1147.3770
 Red. masses --      2.5511                 1.5829                 2.4267
 Frc consts  --      1.8751                 1.1757                 1.8823
 IR Inten    --     62.9420                 1.8401                40.8755

                     28                     29                     30
                      A                      A                      A
 Frequencies --   1166.4561              1281.8165              1318.8584
 Red. masses --      1.8753                 1.8790                 3.6433
 Frc consts  --      1.5033                 1.8190                 3.7337
 IR Inten    --     30.5226                 1.2982                46.4991

                     31                     32                     33
                      A                      A                      A
 Frequencies --   1359.5425              1382.0755              1403.8611
 Red. masses --      1.5755                 1.3404                 1.5636
 Frc consts  --      1.7157                 1.5086                 1.8156
 IR Inten    --     27.4561                14.3459                 3.4885

                     34                     35                     36
                      A                      A                      A
 Frequencies --   1413.4799              1423.6425              1484.2622
 Red. masses --      1.2787                 1.6475                 1.0482
 Frc consts  --      1.5053                 1.9673                 1.3606
 IR Inten    --     12.8847                 0.6264                 4.1646

                     37                     38                     39
                      A                      A                      A
 Frequencies --   1485.0259              1491.1971              1499.0879
 Red. masses --      1.0813                 1.1885                 1.0622
 Frc consts  --      1.4050                 1.5571                 1.4064
 IR Inten    --      1.0792                 2.1082                 7.4888

                     40                     41                     42
                      A                      A                      A
 Frequencies --   1500.0978              1872.6029              3016.0659
 Red. masses --      1.1416                12.8099                 1.0846
 Frc consts  --      1.5135                26.4658                 5.8132
 IR Inten    --      7.1739               377.2721                35.3965

                     43                     44                     45
                      A                      A                      A
 Frequencies --   3040.3807              3046.4742              3107.1006
 Red. masses --      1.0352                 1.0352                 1.1012
 Frc consts  --      5.6382                 5.6605                 6.2636
 IR Inten    --     25.0145                13.1022                15.3407

                     46                     47                     48
                      A                      A                      A
 Frequencies --   3117.9996              3119.2862              3128.4143
 Red. masses --      1.1017                 1.1007                 1.0951
 Frc consts  --      6.3105                 6.3101                 6.3148
 IR Inten    --     10.4839                17.3401                10.4221

                     49                     50                     51
                      A                      A                      A
 Frequencies --   3131.0806              3183.8272              3217.9925
 Red. masses --      1.0612                 1.0922                 1.1165
 Frc consts  --      6.1295                 6.5230                 6.8122
 IR Inten    --     19.3047                 7.0094                 5.6655

 - Thermochemistry -
 -------------------
 Temperature   298.150 Kelvin.  Pressure   1.00000 Atm.
 Atom     1 has atomic number  6 and mass  12.00000

 Molecular mass:   126.06808 amu.
 Principal axes and moments of inertia in atomic units:
                           1         2         3
     Eigenvalues --   676.748941148.102181572.18251
           X            0.99877   0.04832   0.01090
           Y           -0.04824   0.99880  -0.00785
           Z           -0.01127   0.00732   0.99991
 This molecule is an asymmetric top.
 Rotational symmetry number  1.
 Warning -- assumption of classical behavior for rotation
           may cause significant error
 Rotational temperatures (Kelvin)      0.12799     0.07544     0.05509
 Rotational constants (GHZ):           2.66678     1.57193     1.14792
 Zero-point vibrational energy     417924.4 (Joules/Mol)
                                   99.88634 (Kcal/Mol)
 Warning -- explicit consideration of  11 degrees of freedom as
           vibrations may cause significant error
 Vibrational temperatures:    187.68   207.47   253.26   323.59   326.38
          (Kelvin)            413.86   421.61   553.19   718.20   734.09
                              828.23   975.70  1016.11  1123.27  1145.49
                             1232.16  1284.03  1351.74  1405.16  1415.28
                             1480.48  1489.25  1541.94  1576.17  1607.00
                             1615.45  1650.82  1678.27  1844.25  1897.54
                             1956.08  1988.50  2019.84  2033.68  2048.30
                             2135.52  2136.62  2145.50  2156.85  2158.30
                             2694.25  4339.44  4374.42  4383.19  4470.42
                             4486.10  4487.95  4501.08  4504.92  4580.81
                             4629.97

 Zero-point correction=                           0.159179 (Hartree/Particle)
 Thermal correction to Energy=                    0.167721
 Thermal correction to Enthalpy=                  0.168666
 Thermal correction to Gibbs Free Energy=         0.126354
 Sum of electronic and zero-point Energies=           -423.076028
 Sum of electronic and thermal Energies=              -423.067486
 Sum of electronic and thermal Enthalpies=            -423.066542
 Sum of electronic and thermal Free Energies=         -423.108853

                     E (Thermal)             CV                S
                      KCal/Mol        Cal/Mol-Kelvin    Cal/Mol-Kelvin
 Total                  105.247             32.579             89.053
 Electronic               0.000              0.000              0.000
 Translational            0.889              2.981             40.409
 Rotational               0.889              2.981             28.592
 Vibrational            103.469             26.617             20.052
 Vibration     1          0.612              1.923              2.939
 Vibration     2          0.616              1.909              2.747
 Vibration     3          0.628              1.872              2.370
 Vibration     4          0.650              1.803              1.919
 Vibration     5          0.651              1.800              1.904
 Vibration     6          0.685              1.697              1.488
 Vibration     7          0.688              1.687              1.456
 Vibration     8          0.753              1.503              1.021
 Vibration     9          0.855              1.252              0.660
 Vibration    10          0.865              1.227              0.633
 Vibration    11          0.932              1.084              0.493

 Optimization completed.
    -- Stationary point found.
 Normal termination of Gaussian 09 at Tue Jan 28 02:55:16 2020.
