 Gaussian 09, Revision D.01,
 Gaussian 09:  ES64L-G09RevD.01 24-Apr-2013

 -----------------------------
 # b3lyp 6-31G(2df,p) opt Freq
 -----------------------------

 -----
 titel
 -----
 Symbolic Z-matrix:
 Charge =  0 Multiplicity = 1

 SCF Done:  E(RB3LYP) =  -423.168334973     A.U. after   14 cycles
 Optimization completed.
    -- Stationary point found.
 Normal termination of Gaussian 09 at Mon Jan 27 18:37:57 2020.

 ----------------------------------------------------------------------
 #N Geom=AllCheck Guess=TCheck SCRF=Check GenChk RB3LYP/6-31G(2df,p) Fr
 eq
 ----------------------------------------------------------------------

 Structure from the checkpoint file:  "/scratch/puck/g09_7b61fd31-b369-4b96-8309-6a417c9c8129/Gau-90538.chk"
 -----
 titel
 -----
 Charge =  0 Multiplicity = 1

                         Standard orientation:
 ---------------------------------------------------------------------
 Center     Atomic      Atomic             Coordinates (Angstroms)
 Number     Number       Type             X           Y           Z
 ---------------------------------------------------------------------
      1          6           0       -1.596792   -1.409998   -0.756291
      2          6           0       -0.723683   -0.447253    0.022133
      3          6           0        0.383307   -1.111322    0.874281
      4          6           0        1.615659   -0.252644    0.661475
      5          8           0        2.086943   -0.295138   -0.695062
      6          6           0        1.331951    0.845927   -0.275774
      7          6           0       -0.107070    0.781159   -0.723424
      8          6           0       -1.094518    1.612671    0.113151
      9          8           0       -1.527918    0.451796    0.846110
     10          1           0       -2.348791   -0.871579   -1.340400
     11          1           0       -0.987783   -2.012069   -1.438499
     12          1           0       -2.118847   -2.087394   -0.072040
     13          1           0        0.069266   -1.116472    1.922452
     14          1           0        0.581001   -2.144201    0.569639
     15          1           0        2.394697   -0.191718    1.417396
     16          1           0        1.871997    1.790814   -0.263653
     17          1           0       -0.219788    0.824779   -1.808344
     18          1           0       -0.653021    2.374619    0.768260
     19          1           0       -1.914059    2.068718   -0.456508
 ---------------------------------------------------------------------

 SCF Done:  E(RB3LYP) =  -423.168334973     A.U. after    1 cycles

 The electronic state is 1-A.
 Alpha  occ. eigenvalues --  -19.15009 -19.12992 -10.24152 -10.23739 -10.23702
 Alpha  occ. eigenvalues --  -10.23176 -10.19386 -10.18421 -10.17698  -1.07333
 Alpha  occ. eigenvalues --   -1.03511  -0.79576  -0.75459  -0.72207  -0.65298
 Alpha  occ. eigenvalues --   -0.63457  -0.58302  -0.53070  -0.52275  -0.48268
 Alpha  occ. eigenvalues --   -0.46199  -0.45362  -0.43017  -0.42736  -0.40604
 Alpha  occ. eigenvalues --   -0.39341  -0.37357  -0.36393  -0.35289  -0.32159
 Alpha  occ. eigenvalues --   -0.30517  -0.28667  -0.26804  -0.24650
 Alpha virt. eigenvalues --    0.07872   0.09446   0.09821   0.10658   0.12455
 Alpha virt. eigenvalues --    0.12963   0.13979   0.15335   0.15977   0.16192
 Alpha virt. eigenvalues --    0.17215   0.17568   0.17951   0.19467   0.21366

 Mulliken charges:
               1
     1  C   -0.457076
     2  C    0.447941
     3  C   -0.298399
     4  C    0.048489
     5  O   -0.264676
     6  C    0.029513
     7  C   -0.156711
     8  C   -0.097235
     9  O   -0.324808
    10  H    0.118047
    11  H    0.125386
    12  H    0.125946
    13  H    0.117676
    14  H    0.109059
    15  H    0.095594
    16  H    0.096849
    17  H    0.086279
    18  H    0.097829
    19  H    0.100300
 Sum of Mulliken charges =   0.00000

 Dipole moment (field-independent basis, Debye):
    X=             -0.0708    Y=              0.7035    Z=             -0.0081  Tot=              0.7071
 Quadrupole moment (field-independent basis, Debye-Ang):
   XX=            -57.9228   YY=            -49.2049   ZZ=            -53.6853
   XY=              1.8798   XZ=              5.8801   YZ=             -1.8524

  Exact polarizability:  75.583  -0.281  78.733   4.022  -2.846  66.301
 Approx polarizability: 103.934  -3.813 112.956  -1.039  -4.189 105.106

                      1                      2                      3
                      A                      A                      A
 Frequencies --     79.9709               202.8264               229.6957
 Red. masses --      3.1803                 2.5474                 1.1224
 Frc consts  --      0.0120                 0.0617                 0.0349
 IR Inten    --      4.7394                 0.5531                 0.7644

                      4                      5                      6
                      A                      A                      A
 Frequencies --    273.4164               335.6200               377.5050
 Red. masses --      2.7897                 2.9397                 3.1235
 Frc consts  --      0.1229                 0.1951                 0.2623
 IR Inten    --      2.9007                 0.8687                 4.1594

                      7                      8                      9
                      A                      A                      A
 Frequencies --    405.9223               451.8286               605.6246
 Red. masses --      2.4749                 3.2484                 3.6510
 Frc consts  --      0.2403                 0.3907                 0.7890
 IR Inten    --      0.6362                11.0831                 1.8840

                     10                     11                     12
                      A                      A                      A
 Frequencies --    652.8996               728.8389               816.7484
 Red. masses --      4.8306                 4.3088                 3.1385
 Frc consts  --      1.2132                 1.3485                 1.2335
 IR Inten    --      1.1846                 4.4969                 3.9354

                     13                     14                     15
                      A                      A                      A
 Frequencies --    835.6590               857.4648               879.8392
 Red. masses --      2.5303                 2.3156                 3.7496
 Frc consts  --      1.0411                 1.0031                 1.7102
 IR Inten    --      1.1606                45.1941                10.2740

                     16                     17                     18
                      A                      A                      A
 Frequencies --    895.0423               939.8692               945.6872
 Red. masses --      2.1878                 1.7570                 2.1657
 Frc consts  --      1.0326                 0.9145                 1.1412
 IR Inten    --      2.6280                12.2043                 4.4151

                     19                     20                     21
                      A                      A                      A
 Frequencies --    982.6931              1023.0888              1026.1826
 Red. masses --      2.0461                 2.9923                 1.8677
 Frc consts  --      1.1641                 1.8454                 1.1588
 IR Inten    --      0.5195                36.9614                43.5937

                     22                     23                     24
                      A                      A                      A
 Frequencies --   1053.4793              1072.7639              1134.4544
 Red. masses --      1.5525                 1.7649                 2.3438
 Frc consts  --      1.0152                 1.1967                 1.7772
 IR Inten    --      5.2360                 5.3689                19.9816

                     25                     26                     27
                      A                      A                      A
 Frequencies --   1144.6050              1159.1786              1171.6317
 Red. masses --      1.6730                 1.9882                 1.2055
 Frc consts  --      1.2914                 1.5741                 0.9750
 IR Inten    --      3.5265                 1.8327                 0.7031

                     28                     29                     30
                      A                      A                      A
 Frequencies --   1214.1900              1215.1739              1253.0025
 Red. masses --      1.7831                 2.0148                 1.4339
 Frc consts  --      1.5488                 1.7529                 1.3264
 IR Inten    --      8.9624                12.1660                 9.3009

                     31                     32                     33
                      A                      A                      A
 Frequencies --   1260.3014              1306.0632              1336.5699
 Red. masses --      1.5709                 1.4414                 1.6689
 Frc consts  --      1.4701                 1.4487                 1.7566
 IR Inten    --      1.4855                 5.3296                 7.2473

                     34                     35                     36
                      A                      A                      A
 Frequencies --   1356.1434              1362.4109              1405.8211
 Red. masses --      1.6054                 1.8396                 1.3466
 Frc consts  --      1.7396                 2.0118                 1.5681
 IR Inten    --      3.6573                15.0176                 9.7708

                     37                     38                     39
                      A                      A                      A
 Frequencies --   1434.0124              1465.0579              1484.7835
 Red. masses --      3.0449                 1.1023                 1.0559
 Frc consts  --      3.6891                 1.3940                 1.3716
 IR Inten    --     15.0027                 3.7882                 1.8456

                     40                     41                     42
                      A                      A                      A
 Frequencies --   1491.4522              1525.3876              3008.2862
 Red. masses --      1.0526                 1.1000                 1.0549
 Frc consts  --      1.3795                 1.5080                 5.6248
 IR Inten    --      2.7486                 0.5755                81.2171

                     43                     44                     45
                      A                      A                      A
 Frequencies --   3033.3359              3047.4366              3050.3109
 Red. masses --      1.0352                 1.1104                 1.0595
 Frc consts  --      5.6118                 6.0758                 5.8080
 IR Inten    --     12.4275                35.2503                21.1551

                     46                     47                     48
                      A                      A                      A
 Frequencies --   3095.7026              3098.4761              3105.3367
 Red. masses --      1.0876                 1.1037                 1.1009
 Frc consts  --      6.1410                 6.2433                 6.2548
 IR Inten    --     19.5010                 7.6685                20.7596

                     49                     50                     51
                      A                      A                      A
 Frequencies --   3113.1384              3129.5141              3148.5881
 Red. masses --      1.1021                 1.0880                 1.0941
 Frc consts  --      6.2929                 6.2781                 6.3907
 IR Inten    --     22.8809                24.4423                37.5267

 - Thermochemistry -
 -------------------
 Temperature   298.150 Kelvin.  Pressure   1.00000 Atm.
 Atom     1 has atomic number  6 and mass  12.00000

 Molecular mass:   126.06808 amu.
 Principal axes and moments of inertia in atomic units:
                           1         2         3
     Eigenvalues --   657.226851070.277471288.10938
           X            0.99805   0.03782   0.04976
           Y           -0.03764   0.99928  -0.00457
           Z           -0.04989   0.00269   0.99875
 This molecule is an asymmetric top.
 Rotational symmetry number  1.
 Warning -- assumption of classical behavior for rotation
           may cause significant error
 Rotational temperatures (Kelvin)      0.13179     0.08093     0.06724
 Rotational constants (GHZ):           2.74599     1.68624     1.40108
 Zero-point vibrational energy     420027.0 (Joules/Mol)
                                  100.38886 (Kcal/Mol)
 Warning -- explicit consideration of   9 degrees of freedom as
           vibrations may cause significant error
 Vibrational temperatures:    115.06   291.82   330.48   393.38   482.88
          (Kelvin)            543.14   584.03   650.08   871.36   939.38
                             1048.64  1175.12  1202.33  1233.70  1265.89
                             1287.76  1352.26  1360.63  1413.87  1471.99
                             1476.45  1515.72  1543.47  1632.22  1646.83
                             1667.80  1685.71  1746.95  1748.36  1802.79
                             1813.29  1879.13  1923.02  1951.19  1960.20
                             2022.66  2063.22  2107.89  2136.27  2145.86
                             2194.69  4328.25  4364.29  4384.58  4388.71
                             4454.02  4458.01  4467.88  4479.11  4502.67
                             4530.11

 Zero-point correction=                           0.159980 (Hartree/Particle)
 Thermal correction to Energy=                    0.167566
 Thermal correction to Enthalpy=                  0.168510
 Thermal correction to Gibbs Free Energy=         0.128002
 Sum of electronic and zero-point Energies=           -423.008355
 Sum of electronic and thermal Energies=              -423.000769
 Sum of electronic and thermal Enthalpies=            -422.999825
 Sum of electronic and thermal Free Energies=         -423.040333

                     E (Thermal)             CV                S
                      KCal/Mol        Cal/Mol-Kelvin    Cal/Mol-Kelvin
 Total                  105.149             30.071             85.256
 Electronic               0.000              0.000              0.000
 Translational            0.889              2.981             40.409
 Rotational               0.889              2.981             28.296
 Vibrational            103.372             24.110             16.552
 Vibration     1          0.600              1.963              3.892
 Vibration     2          0.639              1.836              2.107
 Vibration     3          0.652              1.796              1.881
 Vibration     4          0.676              1.722              1.575
 Vibration     5          0.717              1.604              1.233
 Vibration     6          0.748              1.518              1.049
 Vibration     7          0.771              1.457              0.941
 Vibration     8          0.810              1.357              0.790
 Vibration     9          0.964              1.020              0.440

 Normal termination of Gaussian 09 at Mon Jan 27 19:22:01 2020.
