 Gaussian 09, Revision D.01,
 Gaussian 09:  ES64L-G09RevD.01 24-Apr-2013

 -----------------------------
 # b3lyp 6-31G(2df,p) opt Freq
 -----------------------------

 -----
 titel
 -----
 Symbolic Z-matrix:
 Charge =  0 Multiplicity = 1

 SCF Done:  E(RB3LYP) =  -423.103481470     A.U. after   13 cycles
 Optimization completed.
    -- Stationary point found.
 Normal termination of Gaussian 09 at Tue Jan 28 09:18:38 2020.

 ----------------------------------------------------------------------
 #N Geom=AllCheck Guess=TCheck SCRF=Check GenChk RB3LYP/6-31G(2df,p) Fr
 eq
 ----------------------------------------------------------------------

 Structure from the checkpoint file:  "/scratch/puck/g09_41d1cd56-a3bc-494d-a4d4-42a130da2520/Gau-84012.chk"
 -----
 titel
 -----
 Charge =  0 Multiplicity = 1

                         Standard orientation:
 ---------------------------------------------------------------------
 Center     Atomic      Atomic             Coordinates (Angstroms)
 Number     Number       Type             X           Y           Z
 ---------------------------------------------------------------------
      1          8           0       -2.362791    0.557355    0.323211
      2          6           0       -1.758564   -0.328126   -0.608174
      3          6           0       -0.338135   -0.625212   -0.215226
      4          6           0        0.776413   -1.472714   -0.909845
      5          6           0        1.476165   -0.859028    0.348722
      6          6           0        0.179211   -1.217182    1.142303
      7          6           0        0.756686    0.436974   -0.033696
      8          6           0        1.088007    1.702478   -0.666257
      9          8           0        0.615834    1.631108    0.710743
     10          1           0       -1.713443    1.238574    0.538960
     11          1           0       -2.367007   -1.239551   -0.619015
     12          1           0       -1.776954    0.086635   -1.631205
     13          1           0        0.631786   -2.554942   -0.882200
     14          1           0        1.123136   -1.134532   -1.889904
     15          1           0        2.510264   -0.992751    0.662786
     16          1           0       -0.007998   -2.283158    1.295285
     17          1           0       -0.027378   -0.633313    2.040166
     18          1           0        2.127507    2.008316   -0.770190
     19          1           0        0.397035    2.173878   -1.363273
 ---------------------------------------------------------------------

 SCF Done:  E(RB3LYP) =  -423.103481470     A.U. after    1 cycles

 The electronic state is 1-A.
 Alpha  occ. eigenvalues --  -19.16003 -19.12713 -10.25042 -10.24062 -10.22724
 Alpha  occ. eigenvalues --  -10.21008 -10.20912 -10.20072 -10.19338  -1.07763
 Alpha  occ. eigenvalues --   -1.00921  -0.91791  -0.71190  -0.68897  -0.66265
 Alpha  occ. eigenvalues --   -0.63588  -0.61067  -0.53797  -0.51440  -0.48701
 Alpha  occ. eigenvalues --   -0.48295  -0.46463  -0.43932  -0.42913  -0.40110
 Alpha  occ. eigenvalues --   -0.37311  -0.35206  -0.34619  -0.33163  -0.32646
 Alpha  occ. eigenvalues --   -0.31285  -0.29664  -0.26439  -0.26110
 Alpha virt. eigenvalues --    0.07322   0.09333   0.10792   0.11615   0.11740
 Alpha virt. eigenvalues --    0.13278   0.14434   0.14815   0.14998   0.15815
 Alpha virt. eigenvalues --    0.16013   0.16755   0.18042   0.20133   0.20808

 Mulliken charges:
               1
     1  O   -0.426062
     2  C   -0.191432
     3  C    0.212516
     4  C   -0.284220
     5  C   -0.155858
     6  C   -0.257863
     7  C    0.502399
     8  C   -0.319829
     9  O   -0.310348
    10  H    0.294289
    11  H    0.109270
    12  H    0.083639
    13  H    0.101667
    14  H    0.097151
    15  H    0.084436
    16  H    0.093816
    17  H    0.117160
    18  H    0.126188
    19  H    0.123080
 Sum of Mulliken charges =   0.00000

 Dipole moment (field-independent basis, Debye):
    X=              1.9759    Y=             -0.8912    Z=             -1.7852  Tot=              2.8081
 Quadrupole moment (field-independent basis, Debye-Ang):
   XX=            -57.5507   YY=            -51.6586   ZZ=            -53.1396
   XY=              1.4162   XZ=              0.4752   YZ=             -2.8037

  Exact polarizability:  75.494   1.977  80.876  -0.969  -3.458  70.215
 Approx polarizability: 106.465   2.048 115.962  -3.463  -0.898 110.360

                      1                      2                      3
                      A                      A                      A
 Frequencies --     93.2052               142.9544               215.1615
 Red. masses --      4.8242                 4.5814                 3.0697
 Frc consts  --      0.0247                 0.0552                 0.0837
 IR Inten    --      4.3101                 0.9490                 1.6239

                      4                      5                      6
                      A                      A                      A
 Frequencies --    221.0883               309.9481               398.8386
 Red. masses --      2.3274                 3.4240                 2.4325
 Frc consts  --      0.0670                 0.1938                 0.2280
 IR Inten    --      1.0918                 4.4762                 4.0617

                      7                      8                      9
                      A                      A                      A
 Frequencies --    420.3505               438.9045               476.0710
 Red. masses --      3.1712                 1.2293                 2.5270
 Frc consts  --      0.3301                 0.1395                 0.3374
 IR Inten    --      7.6263                86.3077                 2.6833

                     10                     11                     12
                      A                      A                      A
 Frequencies --    617.1864               627.5169               691.2418
 Red. masses --      3.2553                 2.8690                 3.1910
 Frc consts  --      0.7306                 0.6656                 0.8983
 IR Inten    --     13.6128                 2.9912                 1.2453

                     13                     14                     15
                      A                      A                      A
 Frequencies --    762.4472               814.1045               877.8217
 Red. masses --      2.3233                 3.0166                 4.0816
 Frc consts  --      0.7957                 1.1780                 1.8531
 IR Inten    --      1.3926                 0.9886                25.2359

                     16                     17                     18
                      A                      A                      A
 Frequencies --    899.2182               927.7216               964.4689
 Red. masses --      2.4158                 2.1225                 2.1532
 Frc consts  --      1.1509                 1.0763                 1.1801
 IR Inten    --      2.0366                 3.6508                 5.7117

                     19                     20                     21
                      A                      A                      A
 Frequencies --    971.3585              1006.5484              1049.1024
 Red. masses --      2.0723                 1.1954                 1.7203
 Frc consts  --      1.1520                 0.7136                 1.1155
 IR Inten    --     29.0549                 7.5901                22.7344

                     22                     23                     24
                      A                      A                      A
 Frequencies --   1051.4748              1060.5334              1074.6666
 Red. masses --      1.6363                 4.0285                 1.8152
 Frc consts  --      1.0659                 2.6696                 1.2352
 IR Inten    --     19.7743                37.0771                18.3474

                     25                     26                     27
                      A                      A                      A
 Frequencies --   1109.8529              1116.5209              1142.6482
 Red. masses --      1.2557                 1.6406                 1.6328
 Frc consts  --      0.9113                 1.2050                 1.2560
 IR Inten    --      2.7480                 3.8631                 3.6384

                     28                     29                     30
                      A                      A                      A
 Frequencies --   1155.8886              1163.3549              1202.6758
 Red. masses --      1.4092                 1.4444                 1.5676
 Frc consts  --      1.1093                 1.1518                 1.3360
 IR Inten    --      1.2014                 2.2456                 9.5876

                     31                     32                     33
                      A                      A                      A
 Frequencies --   1208.0999              1224.9190              1258.3138
 Red. masses --      1.5540                 1.8486                 1.4436
 Frc consts  --      1.3363                 1.6342                 1.3467
 IR Inten    --      0.9204                 8.0151                 9.4390

                     34                     35                     36
                      A                      A                      A
 Frequencies --   1333.5947              1369.8794              1447.1151
 Red. masses --      2.4549                 1.5136                 1.3414
 Frc consts  --      2.5723                 1.6735                 1.6550
 IR Inten    --      6.5574                 7.2055                81.1579

                     37                     38                     39
                      A                      A                      A
 Frequencies --   1454.2342              1493.7199              1508.1208
 Red. masses --      1.6494                 1.0953                 1.0958
 Frc consts  --      2.0551                 1.4399                 1.4685
 IR Inten    --     15.7640                 0.4567                 0.6433

                     40                     41                     42
                      A                      A                      A
 Frequencies --   1525.5467              1565.6462              2951.5953
 Red. masses --      1.1965                 2.0893                 1.0719
 Frc consts  --      1.6407                 3.0174                 5.5022
 IR Inten    --      1.7194                23.2655                62.6249

                     43                     44                     45
                      A                      A                      A
 Frequencies --   3057.1722              3058.2347              3065.3320
 Red. masses --      1.0638                 1.0791                 1.0560
 Frc consts  --      5.8581                 5.9466                 5.8460
 IR Inten    --     27.9524                39.8694                38.1228

                     46                     47                     48
                      A                      A                      A
 Frequencies --   3089.4094              3126.3819              3129.4640
 Red. masses --      1.0514                 1.1106                 1.0935
 Frc consts  --      5.9125                 6.3958                 6.3097
 IR Inten    --     20.1806                27.3397                45.2377

                     49                     50                     51
                      A                      A                      A
 Frequencies --   3140.8896              3175.5086              3771.4969
 Red. masses --      1.1100                 1.1188                 1.0668
 Frc consts  --      6.4520                 6.6468                 8.9403
 IR Inten    --     21.9016                15.6266                44.1094

 - Thermochemistry -
 -------------------
 Temperature   298.150 Kelvin.  Pressure   1.00000 Atm.
 Atom     1 has atomic number  8 and mass  15.99491

 Molecular mass:   126.06808 amu.
 Principal axes and moments of inertia in atomic units:
                           1         2         3
     Eigenvalues --   832.89012 988.199801367.53721
           X            0.99995   0.00979   0.00095
           Y           -0.00975   0.99937  -0.03412
           Z           -0.00128   0.03410   0.99942
 This molecule is an asymmetric top.
 Rotational symmetry number  1.
 Warning -- assumption of classical behavior for rotation
           may cause significant error
 Rotational temperatures (Kelvin)      0.10399     0.08765     0.06334
 Rotational constants (GHZ):           2.16684     1.82629     1.31970
 Zero-point vibrational energy     418439.1 (Joules/Mol)
                                  100.00934 (Kcal/Mol)
 Warning -- explicit consideration of  10 degrees of freedom as
           vibrations may cause significant error
 Vibrational temperatures:    134.10   205.68   309.57   318.10   445.95
          (Kelvin)            573.84   604.79   631.48   684.96   887.99
                              902.86   994.54  1096.99  1171.31  1262.99
                             1293.77  1334.78  1387.65  1397.57  1448.20
                             1509.42  1512.84  1525.87  1546.20  1596.83
                             1606.42  1644.01  1663.06  1673.81  1730.38
                             1738.18  1762.38  1810.43  1918.74  1970.95
                             2082.07  2092.32  2149.13  2169.85  2194.92
                             2252.61  4246.68  4398.58  4400.11  4410.32
                             4444.97  4498.16  4502.60  4519.03  4568.84
                             5426.34

 Zero-point correction=                           0.159375 (Hartree/Particle)
 Thermal correction to Energy=                    0.167393
 Thermal correction to Enthalpy=                  0.168337
 Thermal correction to Gibbs Free Energy=         0.126941
 Sum of electronic and zero-point Energies=           -422.944106
 Sum of electronic and thermal Energies=              -422.936088
 Sum of electronic and thermal Enthalpies=            -422.935144
 Sum of electronic and thermal Free Energies=         -422.976541

                     E (Thermal)             CV                S
                      KCal/Mol        Cal/Mol-Kelvin    Cal/Mol-Kelvin
 Total                  105.041             31.531             87.126
 Electronic               0.000              0.000              0.000
 Translational            0.889              2.981             40.409
 Rotational               0.889              2.981             28.511
 Vibrational            103.263             25.569             18.207
 Vibration     1          0.602              1.954              3.592
 Vibration     2          0.616              1.910              2.764
 Vibration     3          0.645              1.818              1.999
 Vibration     4          0.648              1.809              1.950
 Vibration     5          0.699              1.655              1.363
 Vibration     6          0.765              1.473              0.967
 Vibration     7          0.783              1.426              0.891
 Vibration     8          0.799              1.385              0.830
 Vibration     9          0.833              1.303              0.721
 Vibration    10          0.977              0.996              0.421

 Optimization completed.
    -- Stationary point found.
 Normal termination of Gaussian 09 at Tue Jan 28 10:10:13 2020.
