 Gaussian 09, Revision D.01,
 Gaussian 09:  ES64L-G09RevD.01 24-Apr-2013

 -----------------------------
 # b3lyp 6-31G(2df,p) opt Freq
 -----------------------------

 -----
 titel
 -----
 Symbolic Z-matrix:
 Charge =  0 Multiplicity = 1

 SCF Done:  E(RB3LYP) =  -423.187234229     A.U. after   13 cycles
 Optimization completed.
    -- Stationary point found.
 Normal termination of Gaussian 09 at Mon Jan 27 16:18:33 2020.

 ----------------------------------------------------------------------
 #N Geom=AllCheck Guess=TCheck SCRF=Check GenChk RB3LYP/6-31G(2df,p) Fr
 eq
 ----------------------------------------------------------------------

 Structure from the checkpoint file:  "/scratch/puck/g09_7025a600-d6c4-4bb8-8137-a79b797d33f8/Gau-76157.chk"
 -----
 titel
 -----
 Charge =  0 Multiplicity = 1

                         Standard orientation:
 ---------------------------------------------------------------------
 Center     Atomic      Atomic             Coordinates (Angstroms)
 Number     Number       Type             X           Y           Z
 ---------------------------------------------------------------------
      1          6           0       -1.730538    1.313205    0.365400
      2          6           0       -0.954878    0.041671    0.068566
      3          8           0       -1.899905   -0.919926   -0.386135
      4          6           0       -0.108834   -0.531079    1.257971
      5          6           0        1.267161   -0.765361    0.558389
      6          8           0        0.856927   -1.076585   -0.787106
      7          6           0        0.169004    0.168068   -1.022869
      8          6           0        1.205738    1.194752   -0.595371
      9          6           0        1.901170    0.612118    0.380229
     10          1           0       -2.490208    1.120591    1.128560
     11          1           0       -1.066332    2.102008    0.727250
     12          1           0       -2.243665    1.665545   -0.534962
     13          1           0       -1.381411   -1.682327   -0.673173
     14          1           0       -0.035001    0.145994    2.111319
     15          1           0       -0.558542   -1.467802    1.594005
     16          1           0        1.888863   -1.562999    0.962548
     17          1           0       -0.216733    0.214425   -2.040684
     18          1           0        1.278246    2.205727   -0.971081
     19          1           0        2.675656    1.030695    1.008248
 ---------------------------------------------------------------------

 SCF Done:  E(RB3LYP) =  -423.187234229     A.U. after    1 cycles

 The electronic state is 1-A.
 Alpha  occ. eigenvalues --  -19.14351 -19.12638 -10.23991 -10.23758 -10.23190
 Alpha  occ. eigenvalues --  -10.18964 -10.18786 -10.18104 -10.17298  -1.05670
 Alpha  occ. eigenvalues --   -1.00684  -0.80698  -0.75701  -0.74308  -0.68162
 Alpha  occ. eigenvalues --   -0.58727  -0.56957  -0.55135  -0.53216  -0.50340
 Alpha  occ. eigenvalues --   -0.45431  -0.43345  -0.42393  -0.40631  -0.39078
 Alpha  occ. eigenvalues --   -0.38053  -0.37883  -0.36152  -0.35044  -0.33352
 Alpha  occ. eigenvalues --   -0.31346  -0.28659  -0.25708  -0.23823
 Alpha virt. eigenvalues --    0.00284   0.08907   0.11404   0.11687   0.13518
 Alpha virt. eigenvalues --    0.13798   0.14921   0.15541   0.15859   0.16656
 Alpha virt. eigenvalues --    0.17537   0.18092   0.19376   0.20900   0.22546

 Mulliken charges:
               1
     1  C   -0.446805
     2  C    0.463398
     3  O   -0.492873
     4  C   -0.296677
     5  C    0.023840
     6  O   -0.271061
     7  C   -0.050890
     8  C   -0.082283
     9  C   -0.082958
    10  H    0.127323
    11  H    0.115529
    12  H    0.120621
    13  H    0.278701
    14  H    0.102228
    15  H    0.107663
    16  H    0.083045
    17  H    0.082303
    18  H    0.110834
    19  H    0.108061
 Sum of Mulliken charges =   0.00000

 Dipole moment (field-independent basis, Debye):
    X=              1.1831    Y=              1.0966    Z=              1.0491  Tot=              1.9243
 Quadrupole moment (field-independent basis, Debye-Ang):
   XX=            -57.0680   YY=            -50.7895   ZZ=            -51.7765
   XY=              0.1229   XZ=              2.4148   YZ=             -1.9370

  Exact polarizability:  78.118   0.108  72.818   6.156  -4.954  69.915
 Approx polarizability: 111.988  -1.691 110.556  14.147  -8.565 112.872

                      1                      2                      3
                      A                      A                      A
 Frequencies --    146.7668               216.9380               245.1974
 Red. masses --      3.1720                 1.0869                 2.8504
 Frc consts  --      0.0403                 0.0301                 0.1010
 IR Inten    --      2.3050                 0.2536                 0.1631

                      4                      5                      6
                      A                      A                      A
 Frequencies --    340.7069               382.6073               414.2480
 Red. masses --      3.2776                 2.6020                 2.7944
 Frc consts  --      0.2242                 0.2244                 0.2825
 IR Inten    --      5.5141                 2.5710                 0.3458

                      7                      8                      9
                      A                      A                      A
 Frequencies --    430.5386               497.2939               535.9456
 Red. masses --      3.1098                 1.0982                 2.5973
 Frc consts  --      0.3396                 0.1600                 0.4395
 IR Inten    --      1.5621                73.3507                 7.9551

                     10                     11                     12
                      A                      A                      A
 Frequencies --    601.2376               630.4786               725.5257
 Red. masses --      4.8182                 3.6008                 1.6198
 Frc consts  --      1.0262                 0.8433                 0.5024
 IR Inten    --     11.2062                 7.0421                26.9612

                     13                     14                     15
                      A                      A                      A
 Frequencies --    770.1307               794.0634               850.5334
 Red. masses --      4.4166                 4.9412                 3.5726
 Frc consts  --      1.5434                 1.8356                 1.5227
 IR Inten    --      5.8001                 7.6130                 1.2676

                     16                     17                     18
                      A                      A                      A
 Frequencies --    864.9949               902.1710               928.4137
 Red. masses --      2.6312                 2.2891                 2.2497
 Frc consts  --      1.1599                 1.0977                 1.1425
 IR Inten    --      5.8676                26.0646                24.0996

                     19                     20                     21
                      A                      A                      A
 Frequencies --    933.2411               942.5648               951.2517
 Red. masses --      2.5821                 1.5921                 2.3540
 Frc consts  --      1.3250                 0.8334                 1.2550
 IR Inten    --      5.4892                 4.2602                33.7656

                     22                     23                     24
                      A                      A                      A
 Frequencies --    963.6757               994.4779              1031.8637
 Red. masses --      1.7222                 1.8030                 5.1940
 Frc consts  --      0.9423                 1.0506                 3.2583
 IR Inten    --      0.0421                 0.2346                34.8614

                     25                     26                     27
                      A                      A                      A
 Frequencies --   1087.0412              1102.4708              1124.7457
 Red. masses --      1.4877                 1.4617                 1.5063
 Frc consts  --      1.0358                 1.0468                 1.1227
 IR Inten    --     36.8666                18.6509                 1.5169

                     28                     29                     30
                      A                      A                      A
 Frequencies --   1157.6068              1205.7533              1235.6466
 Red. masses --      1.8780                 1.6718                 1.5135
 Frc consts  --      1.4828                 1.4321                 1.3615
 IR Inten    --      9.2833                50.3361                13.2070

                     31                     32                     33
                      A                      A                      A
 Frequencies --   1248.1307              1270.8116              1305.0594
 Red. masses --      1.6084                 1.2489                 1.6289
 Frc consts  --      1.4763                 1.1883                 1.6345
 IR Inten    --     20.7475                 0.6362                 2.3949

                     34                     35                     36
                      A                      A                      A
 Frequencies --   1335.7346              1340.6503              1385.4422
 Red. masses --      1.7555                 1.4841                 1.3224
 Frc consts  --      1.8455                 1.5716                 1.4955
 IR Inten    --      7.4844                 3.4563                54.5457

                     37                     38                     39
                      A                      A                      A
 Frequencies --   1424.8224              1483.8967              1489.4696
 Red. masses --      1.6982                 1.0518                 1.0880
 Frc consts  --      2.0312                 1.3646                 1.4221
 IR Inten    --     47.9688                 3.0530                 1.1561

                     40                     41                     42
                      A                      A                      A
 Frequencies --   1496.8931              1644.6577              3041.6639
 Red. masses --      1.0523                 6.1327                 1.0352
 Frc consts  --      1.3893                 9.7736                 5.6428
 IR Inten    --      0.6079                 0.5212                16.4554

                     43                     44                     45
                      A                      A                      A
 Frequencies --   3071.6353              3110.4808              3121.8138
 Red. masses --      1.0588                 1.1013                 1.1056
 Frc consts  --      5.8860                 6.2781                 6.3482
 IR Inten    --     19.2087                14.6044                 5.4829

                     46                     47                     48
                      A                      A                      A
 Frequencies --   3125.1322              3129.7853              3133.2791
 Red. masses --      1.1022                 1.0886                 1.0934
 Frc consts  --      6.3424                 6.2829                 6.3243
 IR Inten    --     25.4968                48.7819                14.5353

                     49                     50                     51
                      A                      A                      A
 Frequencies --   3219.0021              3244.5377              3775.1493
 Red. masses --      1.0863                 1.1088                 1.0651
 Frc consts  --      6.6317                 6.8772                 8.9436
 IR Inten    --      2.9414                 6.5432                21.5895

 - Thermochemistry -
 -------------------
 Temperature   298.150 Kelvin.  Pressure   1.00000 Atm.
 Atom     1 has atomic number  6 and mass  12.00000

 Molecular mass:   126.06808 amu.
 Principal axes and moments of inertia in atomic units:
                           1         2         3
     Eigenvalues --   638.763301056.839771183.18435
           X            0.99963  -0.02576   0.00919
           Y            0.02622   0.99814  -0.05509
           Z           -0.00775   0.05531   0.99844
 This molecule is an asymmetric top.
 Rotational symmetry number  1.
 Warning -- assumption of classical behavior for rotation
           may cause significant error
 Rotational temperatures (Kelvin)      0.13560     0.08196     0.07320
 Rotational constants (GHZ):           2.82537     1.70768     1.52533
 Zero-point vibrational energy     421122.5 (Joules/Mol)
                                  100.65069 (Kcal/Mol)
 Warning -- explicit consideration of  10 degrees of freedom as
           vibrations may cause significant error
 Vibrational temperatures:    211.16   312.12   352.78   490.20   550.49
          (Kelvin)            596.01   619.45   715.49   771.11   865.05
                              907.12  1043.87  1108.04  1142.48  1223.73
                             1244.53  1298.02  1335.78  1342.72  1356.14
                             1368.64  1386.51  1430.83  1484.62  1564.01
                             1586.21  1618.26  1665.54  1734.81  1777.82
                             1795.78  1828.41  1877.69  1921.82  1928.89
                             1993.34  2050.00  2134.99  2143.01  2153.69
                             2366.29  4376.27  4419.39  4475.28  4491.59
                             4496.36  4503.06  4508.08  4631.42  4668.16
                             5431.59

 Zero-point correction=                           0.160397 (Hartree/Particle)
 Thermal correction to Energy=                    0.167873
 Thermal correction to Enthalpy=                  0.168817
 Thermal correction to Gibbs Free Energy=         0.129088
 Sum of electronic and zero-point Energies=           -423.026837
 Sum of electronic and thermal Energies=              -423.019361
 Sum of electronic and thermal Enthalpies=            -423.018417
 Sum of electronic and thermal Free Energies=         -423.058146

                     E (Thermal)             CV                S
                      KCal/Mol        Cal/Mol-Kelvin    Cal/Mol-Kelvin
 Total                  105.342             31.203             83.617
 Electronic               0.000              0.000              0.000
 Translational            0.889              2.981             40.409
 Rotational               0.889              2.981             28.170
 Vibrational            103.564             25.242             15.038
 Vibration     1          0.617              1.906              2.714
 Vibration     2          0.646              1.815              1.985
 Vibration     3          0.660              1.771              1.765
 Vibration     4          0.720              1.594              1.209
 Vibration     5          0.752              1.507              1.029
 Vibration     6          0.778              1.439              0.912
 Vibration     7          0.792              1.404              0.857
 Vibration     8          0.853              1.256              0.665
 Vibration     9          0.891              1.171              0.574
 Vibration    10          0.959              1.029              0.448

 Normal termination of Gaussian 09 at Mon Jan 27 17:14:29 2020.
