 Gaussian 09, Revision D.01,
 Gaussian 09:  ES64L-G09RevD.01 24-Apr-2013

 -----------------------------
 # b3lyp 6-31G(2df,p) opt Freq
 -----------------------------

 -----
 titel
 -----
 Symbolic Z-matrix:
 Charge =  0 Multiplicity = 1

 SCF Done:  E(RB3LYP) =  -423.207525366     A.U. after   14 cycles
 Optimization completed.
    -- Stationary point found.
 Normal termination of Gaussian 09 at Mon Jan 27 14:03:57 2020.

 ----------------------------------------------------------------------
 #N Geom=AllCheck Guess=TCheck SCRF=Check GenChk RB3LYP/6-31G(2df,p) Fr
 eq
 ----------------------------------------------------------------------

 Structure from the checkpoint file:  "/scratch/puck/g09_9ad61a7a-eb59-4005-9587-3dc1c9dbd206/Gau-158530.chk"
 -----
 titel
 -----
 Charge =  0 Multiplicity = 1

                         Standard orientation:
 ---------------------------------------------------------------------
 Center     Atomic      Atomic             Coordinates (Angstroms)
 Number     Number       Type             X           Y           Z
 ---------------------------------------------------------------------
      1          6           0        2.609628    0.425727   -0.815997
      2          6           0        1.530365   -0.401027   -0.145979
      3          8           0        1.646546   -1.601112   -0.018564
      4          6           0        0.292434    0.314181    0.359226
      5          6           0        0.240578    1.828954    0.263902
      6          6           0       -0.397731   -0.381897    1.502500
      7          6           0       -0.985626   -0.533563    0.124148
      8          6           0       -2.277629    0.111601   -0.207528
      9          8           0       -3.048851   -0.313841   -1.031732
     10          1           0        2.202827    0.983348   -1.666361
     11          1           0        3.022558    1.164897   -0.120860
     12          1           0        3.404881   -0.237708   -1.155888
     13          1           0        0.243928    2.178481   -0.773323
     14          1           0       -0.656503    2.228495    0.741353
     15          1           0        1.099077    2.278829    0.772747
     16          1           0        0.087995   -1.257866    1.914656
     17          1           0       -0.929956    0.246369    2.209939
     18          1           0       -0.809865   -1.476454   -0.380501
     19          1           0       -2.518621    1.027377    0.378965
 ---------------------------------------------------------------------

 SCF Done:  E(RB3LYP) =  -423.207525366     A.U. after    1 cycles

 The electronic state is 1-A.
 Alpha  occ. eigenvalues --  -19.13751 -19.13518 -10.28041 -10.27357 -10.22909
 Alpha  occ. eigenvalues --  -10.21306 -10.21191 -10.20270 -10.19803  -1.04848
 Alpha  occ. eigenvalues --   -1.04495  -0.89145  -0.76869  -0.72819  -0.67636
 Alpha  occ. eigenvalues --   -0.63273  -0.57380  -0.53836  -0.49957  -0.48491
 Alpha  occ. eigenvalues --   -0.46115  -0.44263  -0.43571  -0.42743  -0.42284
 Alpha  occ. eigenvalues --   -0.41038  -0.40414  -0.39516  -0.38356  -0.36377
 Alpha  occ. eigenvalues --   -0.32120  -0.29932  -0.25727  -0.25249
 Alpha virt. eigenvalues --   -0.04271  -0.00397   0.07175   0.09020   0.11298
 Alpha virt. eigenvalues --    0.11698   0.13052   0.13466   0.14296   0.16178
 Alpha virt. eigenvalues --    0.17687   0.18041   0.19565   0.21501   0.23073

 Mulliken charges:
               1
     1  C   -0.492871
     2  C    0.340707
     3  O   -0.309177
     4  C    0.191597
     5  C   -0.490841
     6  C   -0.319430
     7  C   -0.110415
     8  C    0.154720
     9  O   -0.261980
    10  H    0.144693
    11  H    0.143703
    12  H    0.147550
    13  H    0.132754
    14  H    0.127266
    15  H    0.128502
    16  H    0.150069
    17  H    0.122650
    18  H    0.131805
    19  H    0.068699
 Sum of Mulliken charges =   0.00000

 Dipole moment (field-independent basis, Debye):
    X=              2.0399    Y=              3.1772    Z=              1.5658  Tot=              4.0875
 Quadrupole moment (field-independent basis, Debye-Ang):
   XX=            -61.2160   YY=            -55.6650   ZZ=            -52.6695
   XY=              2.3087   XZ=             -6.3568   YZ=             -0.6629

  Exact polarizability:  93.760   0.943  74.564   0.400   0.888  67.740
 Approx polarizability: 128.377   1.555 116.923   9.090   3.711 107.523

                      1                      2                      3
                      A                      A                      A
 Frequencies --     39.0475                95.6043               130.6431
 Red. masses --      3.7519                 4.7895                 5.2844
 Frc consts  --      0.0034                 0.0258                 0.0531
 IR Inten    --      2.7676                 5.2442                 3.6199

                      4                      5                      6
                      A                      A                      A
 Frequencies --    147.5756               220.0120               242.4441
 Red. masses --      1.0531                 1.5603                 1.7600
 Frc consts  --      0.0135                 0.0445                 0.0610
 IR Inten    --      0.2218                 0.6398                 2.3956

                      7                      8                      9
                      A                      A                      A
 Frequencies --    299.8689               323.0358               369.5169
 Red. masses --      2.3496                 2.6792                 2.7654
 Frc consts  --      0.1245                 0.1647                 0.2225
 IR Inten    --      3.6724                 0.1717                 3.1262

                     10                     11                     12
                      A                      A                      A
 Frequencies --    386.6255               411.4975               499.2731
 Red. masses --      2.6817                 2.8666                 4.8353
 Frc consts  --      0.2362                 0.2860                 0.7102
 IR Inten    --      8.6030                 2.3728                13.3774

                     13                     14                     15
                      A                      A                      A
 Frequencies --    561.2596               615.6943               651.4267
 Red. masses --      4.4424                 2.3687                 3.6221
 Frc consts  --      0.8245                 0.5290                 0.9056
 IR Inten    --      8.0909                 3.3778                 1.1127

                     16                     17                     18
                      A                      A                      A
 Frequencies --    791.5677               860.4770               897.6642
 Red. masses --      3.6485                 1.9723                 1.7363
 Frc consts  --      1.3469                 0.8604                 0.8243
 IR Inten    --     14.6459                 7.2238                41.7757

                     19                     20                     21
                      A                      A                      A
 Frequencies --    956.5801               966.5891              1007.6446
 Red. masses --      1.3615                 1.8261                 1.8272
 Frc consts  --      0.7340                 1.0052                 1.0931
 IR Inten    --     12.6733                27.1875                 4.4502

                     22                     23                     24
                      A                      A                      A
 Frequencies --   1045.1907              1065.1334              1085.3106
 Red. masses --      1.8188                 1.9336                 1.4548
 Frc consts  --      1.1706                 1.2925                 1.0096
 IR Inten    --      0.7367                 8.6192                 0.9768

                     25                     26                     27
                      A                      A                      A
 Frequencies --   1093.1400              1110.8502              1162.9267
 Red. masses --      1.5938                 1.4598                 2.0732
 Frc consts  --      1.1221                 1.0613                 1.6519
 IR Inten    --     16.5689                 9.5574                94.9106

                     28                     29                     30
                      A                      A                      A
 Frequencies --   1185.6598              1268.1724              1312.6342
 Red. masses --      1.6645                 1.9664                 3.1869
 Frc consts  --      1.3786                 1.8633                 3.2353
 IR Inten    --     20.9318                74.2110                 2.0974

                     31                     32                     33
                      A                      A                      A
 Frequencies --   1357.4171              1385.4721              1423.9691
 Red. masses --      1.9894                 1.3804                 1.2429
 Frc consts  --      2.1597                 1.5612                 1.4849
 IR Inten    --      7.5146                42.9364                 8.6896

                     34                     35                     36
                      A                      A                      A
 Frequencies --   1447.0194              1458.3450              1461.6092
 Red. masses --      1.2528                 1.0541                 1.2867
 Frc consts  --      1.5455                 1.3208                 1.6195
 IR Inten    --      1.7369                13.8953                 3.6674

                     37                     38                     39
                      A                      A                      A
 Frequencies --   1473.4520              1502.0261              1506.8464
 Red. masses --      1.0537                 1.0430                 1.0767
 Frc consts  --      1.3478                 1.3864                 1.4403
 IR Inten    --      5.3454                11.5322                11.2152

                     40                     41                     42
                      A                      A                      A
 Frequencies --   1787.8817              1815.4884              2867.4388
 Red. masses --     10.7966                10.3069                 1.0811
 Frc consts  --     20.3337                20.0155                 5.2375
 IR Inten    --    124.3782               248.2201                93.9042

                     43                     44                     45
                      A                      A                      A
 Frequencies --   3038.8288              3044.2649              3098.4743
 Red. masses --      1.0378                 1.0369                 1.0993
 Frc consts  --      5.6467                 5.6618                 6.2181
 IR Inten    --      1.9973                22.3052                 0.3580

                     46                     47                     48
                      A                      A                      A
 Frequencies --   3105.2948              3122.0206              3134.5939
 Red. masses --      1.0999                 1.0979                 1.0557
 Frc consts  --      6.2490                 6.3050                 6.1116
 IR Inten    --     21.3781                14.8470                13.0557

                     49                     50                     51
                      A                      A                      A
 Frequencies --   3157.9257              3193.3272              3235.5672
 Red. masses --      1.1017                 1.0887                 1.1162
 Frc consts  --      6.4734                 6.5409                 6.8848
 IR Inten    --      7.9327                 1.4108                 0.6293

 - Thermochemistry -
 -------------------
 Temperature   298.150 Kelvin.  Pressure   1.00000 Atm.
 Atom     1 has atomic number  6 and mass  12.00000

 Molecular mass:   126.06808 amu.
 Principal axes and moments of inertia in atomic units:
                           1         2         3
     Eigenvalues --   661.132341731.750531893.36464
           X            0.99943   0.01600  -0.02968
           Y           -0.01648   0.99974  -0.01593
           Z            0.02942   0.01641   0.99943
 This molecule is an asymmetric top.
 Rotational symmetry number  1.
 Warning -- assumption of classical behavior for rotation
           may cause significant error
 Rotational temperatures (Kelvin)      0.13101     0.05002     0.04575
 Rotational constants (GHZ):           2.72977     1.04215     0.95319
 Zero-point vibrational energy     409244.4 (Joules/Mol)
                                   97.81177 (Kcal/Mol)
 Warning -- explicit consideration of  14 degrees of freedom as
           vibrations may cause significant error
 Vibrational temperatures:     56.18   137.55   187.97   212.33   316.55
          (Kelvin)            348.82   431.44   464.78   531.65   556.27
                              592.05   718.34   807.53   885.85   937.26
                             1138.89  1238.03  1291.54  1376.30  1390.70
                             1449.77  1503.79  1532.49  1561.52  1572.78
                             1598.26  1673.19  1705.90  1824.62  1888.59
                             1953.02  1993.38  2048.77  2081.94  2098.23
                             2102.93  2119.97  2161.08  2168.01  2572.36
                             2612.08  4125.60  4372.19  4380.01  4458.01
                             4467.82  4491.89  4509.98  4543.55  4594.48
                             4655.25

 Zero-point correction=                           0.155873 (Hartree/Particle)
 Thermal correction to Energy=                    0.165699
 Thermal correction to Enthalpy=                  0.166644
 Thermal correction to Gibbs Free Energy=         0.120573
 Sum of electronic and zero-point Energies=           -423.051652
 Sum of electronic and thermal Energies=              -423.041826
 Sum of electronic and thermal Enthalpies=            -423.040882
 Sum of electronic and thermal Free Energies=         -423.086953

                     E (Thermal)             CV                S
                      KCal/Mol        Cal/Mol-Kelvin    Cal/Mol-Kelvin
 Total                  103.978             35.434             96.965
 Electronic               0.000              0.000              0.000
 Translational            0.889              2.981             40.409
 Rotational               0.889              2.981             29.162
 Vibrational            102.201             29.473             27.394
 Vibration     1          0.594              1.981              5.307
 Vibration     2          0.603              1.952              3.542
 Vibration     3          0.612              1.923              2.937
 Vibration     4          0.617              1.905              2.703
 Vibration     5          0.647              1.811              1.959
 Vibration     6          0.659              1.775              1.785
 Vibration     7          0.692              1.674              1.418
 Vibration     8          0.708              1.629              1.295
 Vibration     9          0.742              1.535              1.082
 Vibration    10          0.755              1.499              1.013
 Vibration    11          0.775              1.445              0.921
 Vibration    12          0.855              1.252              0.660
 Vibration    13          0.917              1.115              0.521
 Vibration    14          0.975              0.999              0.423

 Normal termination of Gaussian 09 at Mon Jan 27 14:43:18 2020.
