 Gaussian 09, Revision D.01,
 Gaussian 09:  ES64L-G09RevD.01 24-Apr-2013

 -----------------------------
 # b3lyp 6-31G(2df,p) opt Freq
 -----------------------------

 -----
 titel
 -----
 Symbolic Z-matrix:
 Charge =  0 Multiplicity = 1

 SCF Done:  E(RB3LYP) =  -423.136096528     A.U. after   14 cycles
 Optimization completed.
    -- Stationary point found.
 Normal termination of Gaussian 09 at Tue Jan 28 09:17:37 2020.

 ----------------------------------------------------------------------
 #N Geom=AllCheck Guess=TCheck SCRF=Check GenChk RB3LYP/6-31G(2df,p) Fr
 eq
 ----------------------------------------------------------------------

 Structure from the checkpoint file:  "/scratch/puck/g09_9b7a953a-9cdd-41b7-ac0b-e6b724070867/Gau-107405.chk"
 -----
 titel
 -----
 Charge =  0 Multiplicity = 1

                         Standard orientation:
 ---------------------------------------------------------------------
 Center     Atomic      Atomic             Coordinates (Angstroms)
 Number     Number       Type             X           Y           Z
 ---------------------------------------------------------------------
      1          6           0       -2.988602   -0.680245    0.167038
      2          8           0       -2.214864    0.411321   -0.298410
      3          6           0       -0.863116    0.266539   -0.114460
      4          6           0        0.087913   -0.846659   -0.673366
      5          6           0        0.986657    0.169189    0.076178
      6          6           0        0.158317    1.321614   -0.590925
      7          6           0       -0.068772    0.188704    1.234425
      8          6           0        2.461508    0.128062    0.248111
      9          8           0        3.175032   -0.752524   -0.163905
     10          1           0       -2.867165   -0.830367    1.248823
     11          1           0       -4.032746   -0.441022   -0.043002
     12          1           0       -2.723597   -1.612989   -0.349321
     13          1           0        0.015929   -1.841498   -0.229179
     14          1           0        0.207809   -0.890512   -1.757839
     15          1           0        0.147347    2.282927   -0.072026
     16          1           0        0.280636    1.435325   -1.670509
     17          1           0       -0.146757   -0.732108    1.817163
     18          1           0       -0.088546    1.080248    1.865837
     19          1           0        2.882319    0.996404    0.806568
 ---------------------------------------------------------------------

 SCF Done:  E(RB3LYP) =  -423.136096528     A.U. after    1 cycles

 The electronic state is 1-A.
 Alpha  occ. eigenvalues --  -19.15571 -19.13996 -10.27142 -10.26039 -10.23341
 Alpha  occ. eigenvalues --  -10.22004 -10.20184 -10.20134 -10.19324  -1.05304
 Alpha  occ. eigenvalues --   -1.04581  -0.92272  -0.71727  -0.68605  -0.68276
 Alpha  occ. eigenvalues --   -0.67212  -0.56391  -0.54921  -0.51387  -0.47222
 Alpha  occ. eigenvalues --   -0.47061  -0.45804  -0.45174  -0.44163  -0.40048
 Alpha  occ. eigenvalues --   -0.39383  -0.36725  -0.35815  -0.35332  -0.33386
 Alpha  occ. eigenvalues --   -0.32740  -0.30619  -0.26061  -0.25099
 Alpha virt. eigenvalues --   -0.02826   0.08601   0.10431   0.12036   0.12511
 Alpha virt. eigenvalues --    0.13664   0.13888   0.14358   0.15060   0.15398
 Alpha virt. eigenvalues --    0.16017   0.16862   0.17038   0.18633   0.21822

 Mulliken charges:
               1
     1  C   -0.266662
     2  O   -0.285524
     3  C    0.445173
     4  C   -0.329980
     5  C    0.246116
     6  C   -0.324920
     7  C   -0.336697
     8  C    0.036838
     9  O   -0.247957
    10  H    0.115079
    11  H    0.133484
    12  H    0.118323
    13  H    0.102142
    14  H    0.105441
    15  H    0.103021
    16  H    0.107986
    17  H    0.104226
    18  H    0.102648
    19  H    0.071261
 Sum of Mulliken charges =   0.00000

 Dipole moment (field-independent basis, Debye):
    X=             -2.1064    Y=              0.5523    Z=              1.0801  Tot=              2.4308
 Quadrupole moment (field-independent basis, Debye-Ang):
   XX=            -61.2355   YY=            -53.0506   ZZ=            -51.9586
   XY=              8.1679   XZ=              0.3021   YZ=             -0.1611

  Exact polarizability:  92.824   1.414  73.081  -1.131   2.799  68.316
 Approx polarizability: 122.802  -7.069 114.953  -3.388   5.274 104.779

                      1                      2                      3
                      A                      A                      A
 Frequencies --     69.5165                78.9536               140.2668
 Red. masses --      4.7831                 2.8132                 2.8133
 Frc consts  --      0.0136                 0.0103                 0.0326
 IR Inten    --      5.3331                 1.6307                 6.9643

                      4                      5                      6
                      A                      A                      A
 Frequencies --    171.8043               210.7265               280.5975
 Red. masses --      1.3290                 2.4692                 2.5638
 Frc consts  --      0.0231                 0.0646                 0.1189
 IR Inten    --      1.6198                 2.8117                 0.0591

                      7                      8                      9
                      A                      A                      A
 Frequencies --    378.7144               421.4254               484.2283
 Red. masses --      4.8320                 3.3694                 3.5651
 Frc consts  --      0.4083                 0.3526                 0.4925
 IR Inten    --      3.1826                 1.4390                 0.7128

                     10                     11                     12
                      A                      A                      A
 Frequencies --    547.4390               549.2729               630.7819
 Red. masses --      2.0028                 1.8948                 3.7663
 Frc consts  --      0.3536                 0.3368                 0.8829
 IR Inten    --      3.7972                 0.2656                 9.8194

                     13                     14                     15
                      A                      A                      A
 Frequencies --    710.4868               767.7781               832.6961
 Red. masses --      3.6080                 3.1599                 2.9009
 Frc consts  --      1.0731                 1.0975                 1.1851
 IR Inten    --     28.2684                 8.2939                11.5925

                     16                     17                     18
                      A                      A                      A
 Frequencies --    930.5329               952.0382               980.7865
 Red. masses --      4.6447                 1.2499                 1.9488
 Frc consts  --      2.3696                 0.6675                 1.1045
 IR Inten    --      2.3772                 0.0499                 2.1208

                     19                     20                     21
                      A                      A                      A
 Frequencies --    986.8367              1034.4231              1063.6411
 Red. masses --      1.0396                 3.2653                 2.8184
 Frc consts  --      0.5965                 2.0586                 1.8786
 IR Inten    --      0.0404                24.0272                19.1164

                     22                     23                     24
                      A                      A                      A
 Frequencies --   1071.8500              1115.3052              1126.4067
 Red. masses --      2.1120                 1.6716                 1.3521
 Frc consts  --      1.4296                 1.2251                 1.0108
 IR Inten    --      6.0897                20.0953                 1.8866

                     25                     26                     27
                      A                      A                      A
 Frequencies --   1139.3779              1150.9589              1161.5055
 Red. masses --      1.5800                 1.4850                 1.5351
 Frc consts  --      1.2085                 1.1590                 1.2202
 IR Inten    --     21.3939                 1.5107                 1.6228

                     28                     29                     30
                      A                      A                      A
 Frequencies --   1170.7819              1181.2293              1185.4903
 Red. masses --      2.0562                 1.3394                 2.0554
 Frc consts  --      1.6606                 1.1011                 1.7019
 IR Inten    --      1.2096                 2.3956                 1.8381

                     31                     32                     33
                      A                      A                      A
 Frequencies --   1236.3725              1295.8961              1346.8788
 Red. masses --      1.7951                 3.1711                 3.6656
 Frc consts  --      1.6167                 3.1376                 3.9179
 IR Inten    --      2.5961               107.0928               239.1216

                     34                     35                     36
                      A                      A                      A
 Frequencies --   1423.9223              1485.1368              1488.6262
 Red. masses --      1.2721                 1.1769                 1.0557
 Frc consts  --      1.5197                 1.5294                 1.3783
 IR Inten    --     19.6984                 5.6205                 4.4710

                     37                     38                     39
                      A                      A                      A
 Frequencies --   1491.0239              1496.1079              1506.0725
 Red. masses --      1.0950                 1.1024                 1.0518
 Frc consts  --      1.4343                 1.4538                 1.4056
 IR Inten    --      1.9812                 0.7279                12.1133

                     40                     41                     42
                      A                      A                      A
 Frequencies --   1559.9412              1817.1418              2861.2634
 Red. masses --      1.2833                10.8243                 1.0817
 Frc consts  --      1.8399                21.0585                 5.2176
 IR Inten    --     41.5857               195.8995               123.9329

                     43                     44                     45
                      A                      A                      A
 Frequencies --   2996.1458              3050.0443              3057.0741
 Red. masses --      1.0352                 1.0988                 1.0562
 Frc consts  --      5.4754                 6.0225                 5.8157
 IR Inten    --     42.0584                17.8426                55.6901

                     46                     47                     48
                      A                      A                      A
 Frequencies --   3061.0574              3070.0029              3128.1507
 Red. masses --      1.0553                 1.0553                 1.1028
 Frc consts  --      5.8258                 5.8603                 6.3578
 IR Inten    --     47.4850                 7.1670                18.7030

                     49                     50                     51
                      A                      A                      A
 Frequencies --   3128.9159              3133.7437              3137.6067
 Red. masses --      1.1089                 1.1117                 1.1116
 Frc consts  --      6.3960                 6.4321                 6.4477
 IR Inten    --     11.9332                37.7896                34.9634

 - Thermochemistry -
 -------------------
 Temperature   298.150 Kelvin.  Pressure   1.00000 Atm.
 Atom     1 has atomic number  6 and mass  12.00000

 Molecular mass:   126.06808 amu.
 Principal axes and moments of inertia in atomic units:
                           1         2         3
     Eigenvalues --   401.213941884.133371955.30096
           X            0.99958   0.02868  -0.00284
           Y           -0.02862   0.99938   0.02049
           Z            0.00343  -0.02040   0.99979
 This molecule is an asymmetric top.
 Rotational symmetry number  1.
 Rotational temperatures (Kelvin)      0.21588     0.04597     0.04430
 Rotational constants (GHZ):           4.49820     0.95786     0.92300
 Zero-point vibrational energy     414488.0 (Joules/Mol)
                                   99.06500 (Kcal/Mol)
 Warning -- explicit consideration of  11 degrees of freedom as
           vibrations may cause significant error
 Vibrational temperatures:    100.02   113.60   201.81   247.19   303.19
          (Kelvin)            403.72   544.88   606.34   696.70   787.64
                              790.28   907.55  1022.23  1104.66  1198.06
                             1338.83  1369.77  1411.13  1419.84  1488.30
                             1530.34  1542.15  1604.67  1620.65  1639.31
                             1655.97  1671.15  1684.49  1699.52  1705.65
                             1778.86  1864.50  1937.86  2048.70  2136.78
                             2141.80  2145.25  2152.56  2166.90  2244.40
                             2614.46  4116.71  4310.78  4388.33  4398.44
                             4404.17  4417.04  4500.71  4501.81  4508.75
                             4514.31

 Zero-point correction=                           0.157870 (Hartree/Particle)
 Thermal correction to Energy=                    0.166670
 Thermal correction to Enthalpy=                  0.167614
 Thermal correction to Gibbs Free Energy=         0.123840
 Sum of electronic and zero-point Energies=           -422.978226
 Sum of electronic and thermal Energies=              -422.969427
 Sum of electronic and thermal Enthalpies=            -422.968482
 Sum of electronic and thermal Free Energies=         -423.012257

                     E (Thermal)             CV                S
                      KCal/Mol        Cal/Mol-Kelvin    Cal/Mol-Kelvin
 Total                  104.587             32.377             92.131
 Electronic               0.000              0.000              0.000
 Translational            0.889              2.981             40.409
 Rotational               0.889              2.981             28.782
 Vibrational            102.809             26.415             22.941
 Vibration     1          0.598              1.969              4.167
 Vibration     2          0.600              1.963              3.917
 Vibration     3          0.615              1.913              2.800
 Vibration     4          0.626              1.877              2.416
 Vibration     5          0.643              1.824              2.037
 Vibration     6          0.680              1.710              1.530
 Vibration     7          0.749              1.516              1.044
 Vibration     8          0.784              1.424              0.887
 Vibration     9          0.840              1.285              0.699
 Vibration    10          0.903              1.145              0.550
 Vibration    11          0.905              1.141              0.546

 Optimization completed.
    -- Stationary point found.
 Normal termination of Gaussian 09 at Tue Jan 28 09:56:28 2020.
