 Gaussian 09, Revision D.01,
 Gaussian 09:  ES64L-G09RevD.01 24-Apr-2013

 -----------------------------
 # b3lyp 6-31G(2df,p) opt Freq
 -----------------------------

 -----
 titel
 -----
 Symbolic Z-matrix:
 Charge =  0 Multiplicity = 1

 SCF Done:  E(RB3LYP) =  -423.093132147     A.U. after   14 cycles
 Optimization completed.
    -- Stationary point found.
 Normal termination of Gaussian 09 at Mon Jan 27 18:05:50 2020.

 ----------------------------------------------------------------------
 #N Geom=AllCheck Guess=TCheck SCRF=Check GenChk RB3LYP/6-31G(2df,p) Fr
 eq
 ----------------------------------------------------------------------

 Structure from the checkpoint file:  "/scratch/puck/g09_60474203-68ad-486f-98dc-8aa304886ba6/Gau-62729.chk"
 -----
 titel
 -----
 Charge =  0 Multiplicity = 1

                         Standard orientation:
 ---------------------------------------------------------------------
 Center     Atomic      Atomic             Coordinates (Angstroms)
 Number     Number       Type             X           Y           Z
 ---------------------------------------------------------------------
      1          6           0       -2.697623    0.601156   -0.079142
      2          6           0       -1.292783    0.101727    0.047002
      3          6           0       -0.517401   -0.428991    1.265647
      4          6           0        0.282222   -0.735221   -0.025557
      5          6           0        1.760038   -0.965589   -0.160832
      6          8           0        2.271529    0.361020    0.093944
      7          6           0        1.237432    1.394406    0.016819
      8          6           0        0.036755    0.670772   -0.566830
      9          8           0       -0.964465   -1.205782   -0.658948
     10          1           0       -2.810105    1.539361    0.473171
     11          1           0       -2.948256    0.783009   -1.128167
     12          1           0       -3.402759   -0.129553    0.327957
     13          1           0       -0.112840    0.288717    1.981308
     14          1           0       -0.959390   -1.302460    1.745895
     15          1           0        2.197929   -1.641628    0.579494
     16          1           0        2.027888   -1.306649   -1.170130
     17          1           0        1.083535    1.811220    1.018245
     18          1           0        1.614332    2.189986   -0.632321
     19          1           0        0.001316    0.696548   -1.658063
 ---------------------------------------------------------------------

 SCF Done:  E(RB3LYP) =  -423.093132147     A.U. after    1 cycles

 The electronic state is 1-A.
 Alpha  occ. eigenvalues --  -19.13611 -19.13610 -10.26426 -10.24788 -10.23514
 Alpha  occ. eigenvalues --  -10.23388 -10.19154 -10.18918 -10.18913  -1.05795
 Alpha  occ. eigenvalues --   -1.01718  -0.80519  -0.75374  -0.73832  -0.69963
 Alpha  occ. eigenvalues --   -0.63266  -0.56856  -0.53149  -0.49136  -0.48486
 Alpha  occ. eigenvalues --   -0.46834  -0.45465  -0.43833  -0.41913  -0.41138
 Alpha  occ. eigenvalues --   -0.40458  -0.38115  -0.35147  -0.33779  -0.32871
 Alpha  occ. eigenvalues --   -0.30747  -0.28469  -0.25186  -0.23981
 Alpha virt. eigenvalues --    0.07123   0.09187   0.09718   0.10735   0.11728
 Alpha virt. eigenvalues --    0.12134   0.13151   0.14237   0.14842   0.15793
 Alpha virt. eigenvalues --    0.16563   0.17299   0.18504   0.19739   0.22057

 Mulliken charges:
               1
     1  C   -0.512410
     2  C    0.360373
     3  C   -0.311567
     4  C    0.399847
     5  C   -0.188414
     6  O   -0.290999
     7  C   -0.121610
     8  C   -0.078670
     9  O   -0.397439
    10  H    0.129635
    11  H    0.136435
    12  H    0.136892
    13  H    0.105825
    14  H    0.105949
    15  H    0.112811
    16  H    0.110435
    17  H    0.104513
    18  H    0.108742
    19  H    0.089653
 Sum of Mulliken charges =   0.00000

 Dipole moment (field-independent basis, Debye):
    X=             -1.0556    Y=              1.1569    Z=              0.7163  Tot=              1.7221
 Quadrupole moment (field-independent basis, Debye-Ang):
   XX=            -56.0487   YY=            -52.6513   ZZ=            -52.4252
   XY=             -3.9638   XZ=             -2.0482   YZ=             -1.7795

  Exact polarizability:  86.324  -1.646  72.776  -1.236  -1.488  68.124
 Approx polarizability: 116.941   0.879 112.862   1.145   1.412 105.469

                      1                      2                      3
                      A                      A                      A
 Frequencies --    105.4012               194.7968               215.7780
 Red. masses --      4.0790                 1.0556                 2.7731
 Frc consts  --      0.0267                 0.0236                 0.0761
 IR Inten    --      6.0714                 0.0693                 0.4462

                      4                      5                      6
                      A                      A                      A
 Frequencies --    232.5269               327.4291               361.7828
 Red. masses --      2.2939                 2.5854                 2.3879
 Frc consts  --      0.0731                 0.1633                 0.1841
 IR Inten    --      1.5906                 0.6249                 2.4105

                      7                      8                      9
                      A                      A                      A
 Frequencies --    459.1349               508.1281               566.6606
 Red. masses --      3.9087                 4.5600                 2.3964
 Frc consts  --      0.4855                 0.6937                 0.4534
 IR Inten    --      8.7171                 0.7566                 5.0605

                     10                     11                     12
                      A                      A                      A
 Frequencies --    627.1492               655.2941               684.8925
 Red. masses --      4.2480                 3.6917                 3.2400
 Frc consts  --      0.9844                 0.9340                 0.8955
 IR Inten    --      8.9332                11.3996                 1.9254

                     13                     14                     15
                      A                      A                      A
 Frequencies --    740.4926               819.0020               852.5570
 Red. masses --      3.5397                 3.3049                 5.1022
 Frc consts  --      1.1436                 1.3061                 2.1850
 IR Inten    --     14.4388                 4.4408                20.4388

                     16                     17                     18
                      A                      A                      A
 Frequencies --    893.6971               911.7213               966.2466
 Red. masses --      2.4433                 2.1953                 2.4047
 Frc consts  --      1.1498                 1.0752                 1.3228
 IR Inten    --     10.7880                 3.2777                31.6175

                     19                     20                     21
                      A                      A                      A
 Frequencies --    993.2133              1004.6248              1046.2078
 Red. masses --      2.8192                 1.5484                 1.9605
 Frc consts  --      1.6385                 0.9207                 1.2643
 IR Inten    --     41.6491                11.0361                17.1769

                     22                     23                     24
                      A                      A                      A
 Frequencies --   1066.9986              1090.8838              1098.6258
 Red. masses --      2.0426                 2.0204                 2.5821
 Frc consts  --      1.3701                 1.4166                 1.8362
 IR Inten    --     21.3762                 1.8807                 1.6127

                     25                     26                     27
                      A                      A                      A
 Frequencies --   1121.9473              1148.5852              1160.8700
 Red. masses --      1.5374                 1.4690                 2.0300
 Frc consts  --      1.1402                 1.1418                 1.6118
 IR Inten    --      2.9379                 5.1983                10.3768

                     28                     29                     30
                      A                      A                      A
 Frequencies --   1188.4637              1200.1133              1247.1458
 Red. masses --      1.4072                 1.3411                 1.6870
 Frc consts  --      1.1711                 1.1380                 1.5459
 IR Inten    --      7.8571                 3.3882                 6.9107

                     31                     32                     33
                      A                      A                      A
 Frequencies --   1257.9554              1306.3463              1351.8556
 Red. masses --      2.3507                 1.3995                 1.7187
 Frc consts  --      2.1917                 1.4072                 1.8506
 IR Inten    --     68.5527                 3.2220                 0.9741

                     34                     35                     36
                      A                      A                      A
 Frequencies --   1367.2193              1392.6012              1417.5828
 Red. masses --      1.3679                 1.4026                 1.8431
 Frc consts  --      1.5066                 1.6026                 2.1822
 IR Inten    --      1.4945                 0.0291                16.2566

                     37                     38                     39
                      A                      A                      A
 Frequencies --   1475.7493              1487.2254              1502.1852
 Red. masses --      1.0471                 1.0471                 1.3608
 Frc consts  --      1.3435                 1.3646                 1.8093
 IR Inten    --      3.5348                 4.9329                 2.0454

                     40                     41                     42
                      A                      A                      A
 Frequencies --   1514.4336              1528.4189              3011.8435
 Red. masses --      1.1176                 1.1133                 1.0635
 Frc consts  --      1.5102                 1.5323                 5.6840
 IR Inten    --      1.5189                 2.7776                64.1465

                     43                     44                     45
                      A                      A                      A
 Frequencies --   3035.7447              3041.0510              3075.1075
 Red. masses --      1.0617                 1.0345                 1.0799
 Frc consts  --      5.7649                 5.6369                 6.0164
 IR Inten    --     37.7753                15.3197                13.3546

                     46                     47                     48
                      A                      A                      A
 Frequencies --   3079.3024              3081.2162              3097.8602
 Red. masses --      1.0772                 1.0966                 1.0917
 Frc consts  --      6.0181                 6.1341                 6.1730
 IR Inten    --     14.0648                37.8872                47.4181

                     49                     50                     51
                      A                      A                      A
 Frequencies --   3115.9241              3119.5073              3151.6413
 Red. masses --      1.1011                 1.1020                 1.1110
 Frc consts  --      6.2989                 6.3185                 6.5018
 IR Inten    --     10.3789                11.5381                20.6690

 - Thermochemistry -
 -------------------
 Temperature   298.150 Kelvin.  Pressure   1.00000 Atm.
 Atom     1 has atomic number  6 and mass  12.00000

 Molecular mass:   126.06808 amu.
 Principal axes and moments of inertia in atomic units:
                           1         2         3
     Eigenvalues --   504.262451256.396861438.81337
           X            0.99959  -0.02769  -0.00703
           Y            0.02740   0.99892  -0.03753
           Z            0.00806   0.03732   0.99927
 This molecule is an asymmetric top.
 Rotational symmetry number  1.
 Warning -- assumption of classical behavior for rotation
           may cause significant error
 Rotational temperatures (Kelvin)      0.17176     0.06894     0.06020
 Rotational constants (GHZ):           3.57897     1.43644     1.25433
 Zero-point vibrational energy     418101.7 (Joules/Mol)
                                   99.92870 (Kcal/Mol)
 Warning -- explicit consideration of   9 degrees of freedom as
           vibrations may cause significant error
 Vibrational temperatures:    151.65   280.27   310.46   334.55   471.10
          (Kelvin)            520.52   660.59   731.08   815.30   902.33
                              942.82   985.41  1065.40  1178.36  1226.64
                             1285.83  1311.76  1390.21  1429.01  1445.43
                             1505.26  1535.17  1569.54  1580.68  1614.23
                             1652.56  1670.23  1709.93  1726.69  1794.36
                             1809.92  1879.54  1945.02  1967.12  2003.64
                             2039.58  2123.27  2139.78  2161.31  2178.93
                             2199.05  4333.37  4367.75  4375.39  4424.39
                             4430.42  4433.18  4457.12  4483.11  4488.27
                             4534.50

 Zero-point correction=                           0.159247 (Hartree/Particle)
 Thermal correction to Energy=                    0.166966
 Thermal correction to Enthalpy=                  0.167910
 Thermal correction to Gibbs Free Energy=         0.127316
 Sum of electronic and zero-point Energies=           -422.933886
 Sum of electronic and thermal Energies=              -422.926166
 Sum of electronic and thermal Enthalpies=            -422.925222
 Sum of electronic and thermal Free Energies=         -422.965816

                     E (Thermal)             CV                S
                      KCal/Mol        Cal/Mol-Kelvin    Cal/Mol-Kelvin
 Total                  104.773             30.743             85.437
 Electronic               0.000              0.000              0.000
 Translational            0.889              2.981             40.409
 Rotational               0.889              2.981             28.302
 Vibrational            102.995             24.782             16.727
 Vibration     1          0.605              1.945              3.352
 Vibration     2          0.635              1.847              2.182
 Vibration     3          0.645              1.817              1.994
 Vibration     4          0.653              1.791              1.859
 Vibration     5          0.711              1.621              1.273
 Vibration     6          0.736              1.551              1.114
 Vibration     7          0.817              1.341              0.769
 Vibration     8          0.863              1.232              0.638
 Vibration     9          0.923              1.103              0.511

 Normal termination of Gaussian 09 at Mon Jan 27 18:51:22 2020.
