 Gaussian 09, Revision D.01,
 Gaussian 09:  ES64L-G09RevD.01 24-Apr-2013

 -----------------------------
 # b3lyp 6-31G(2df,p) opt Freq
 -----------------------------

 -----
 titel
 -----
 Symbolic Z-matrix:
 Charge =  0 Multiplicity = 1

 SCF Done:  E(RB3LYP) =  -423.134349284     A.U. after   13 cycles
 Optimization completed.
    -- Stationary point found.
 Normal termination of Gaussian 09 at Tue Jan 28 01:53:37 2020.

 ----------------------------------------------------------------------
 #N Geom=AllCheck Guess=TCheck SCRF=Check GenChk RB3LYP/6-31G(2df,p) Fr
 eq
 ----------------------------------------------------------------------

 Structure from the checkpoint file:  "/scratch/puck/g09_994a768d-313e-4d59-8a6c-0d3dabcfc8c1/Gau-38008.chk"
 -----
 titel
 -----
 Charge =  0 Multiplicity = 1

                         Standard orientation:
 ---------------------------------------------------------------------
 Center     Atomic      Atomic             Coordinates (Angstroms)
 Number     Number       Type             X           Y           Z
 ---------------------------------------------------------------------
      1          8           0       -2.254903   -1.008954   -0.297325
      2          6           0       -1.628009   -0.074241    0.534440
      3          6           0       -1.521458    1.348658    0.022010
      4          6           0       -0.312415    0.471364    0.111269
      5          6           0        1.050956    0.630574    0.822629
      6          6           0        1.607993    1.023283   -0.584989
      7          6           0        0.574814   -0.042794   -1.023821
      8          8           0        1.096867   -1.271036   -0.468786
      9          6           0        1.467572   -0.848911    0.870387
     10          1           0       -1.650819   -1.755516   -0.385122
     11          1           0       -1.823699   -0.201264    1.600622
     12          1           0       -1.935636    1.541750   -0.962625
     13          1           0       -1.647415    2.155998    0.736963
     14          1           0        1.199393    1.236343    1.715335
     15          1           0        1.328909    2.035807   -0.877997
     16          1           0        2.659220    0.817568   -0.801750
     17          1           0        0.243393   -0.208014   -2.046769
     18          1           0        0.911973   -1.431707    1.613794
     19          1           0        2.542250   -0.998647    1.024889
 ---------------------------------------------------------------------

 SCF Done:  E(RB3LYP) =  -423.134349284     A.U. after    1 cycles

 The electronic state is 1-A.
 Alpha  occ. eigenvalues --  -19.13727 -19.13712 -10.23736 -10.23098 -10.22852
 Alpha  occ. eigenvalues --  -10.20346 -10.19544 -10.18854 -10.18742  -1.04083
 Alpha  occ. eigenvalues --   -1.02118  -0.86435  -0.80030  -0.72446  -0.63164
 Alpha  occ. eigenvalues --   -0.59650  -0.58074  -0.55079  -0.53082  -0.50212
 Alpha  occ. eigenvalues --   -0.49100  -0.45504  -0.42088  -0.40342  -0.39002
 Alpha  occ. eigenvalues --   -0.37490  -0.37014  -0.35579  -0.34596  -0.32495
 Alpha  occ. eigenvalues --   -0.30614  -0.27061  -0.25771  -0.24205
 Alpha virt. eigenvalues --    0.07326   0.10164   0.10561   0.11383   0.12014
 Alpha virt. eigenvalues --    0.12580   0.14453   0.14941   0.16075   0.16776
 Alpha virt. eigenvalues --    0.17258   0.18947   0.19701   0.21237   0.21655

 Mulliken charges:
               1
     1  O   -0.430381
     2  C    0.005201
     3  C   -0.415531
     4  C    0.417384
     5  C   -0.175958
     6  C   -0.234321
     7  C    0.015268
     8  O   -0.292855
     9  C   -0.077712
    10  H    0.295797
    11  H    0.082468
    12  H    0.125137
    13  H    0.112833
    14  H    0.076112
    15  H    0.110085
    16  H    0.097723
    17  H    0.087599
    18  H    0.099861
    19  H    0.101287
 Sum of Mulliken charges =   0.00000

 Dipole moment (field-independent basis, Debye):
    X=              1.2546    Y=              1.2328    Z=              1.0627  Tot=              2.0551
 Quadrupole moment (field-independent basis, Debye-Ang):
   XX=            -58.3261   YY=            -52.5785   ZZ=            -50.3881
   XY=              0.1939   XZ=              0.4056   YZ=             -1.2580

  Exact polarizability:  82.262  -2.422  73.142   0.658  -2.207  69.528
 Approx polarizability: 112.103  -3.050 110.440   1.468  -0.689 105.813

                      1                      2                      3
                      A                      A                      A
 Frequencies --     95.5147               153.1534               215.7556
 Red. masses --      4.8039                 4.1160                 2.6927
 Frc consts  --      0.0258                 0.0569                 0.0739
 IR Inten    --      7.4821                 0.6603                 1.8287

                      4                      5                      6
                      A                      A                      A
 Frequencies --    339.0567               355.5497               420.1348
 Red. masses --      1.9056                 1.6964                 2.3284
 Frc consts  --      0.1291                 0.1264                 0.2421
 IR Inten    --     20.8000                74.8595                 8.9431

                      7                      8                      9
                      A                      A                      A
 Frequencies --    440.4483               444.2823               553.0815
 Red. masses --      2.7715                 2.1761                 2.6320
 Frc consts  --      0.3168                 0.2531                 0.4744
 IR Inten    --      0.7807                10.6523                 0.5087

                     10                     11                     12
                      A                      A                      A
 Frequencies --    645.2737               734.2206               820.1428
 Red. masses --      3.6756                 4.1893                 2.3539
 Frc consts  --      0.9017                 1.3306                 0.9329
 IR Inten    --      4.8661                 0.7989                 3.4153

                     13                     14                     15
                      A                      A                      A
 Frequencies --    843.8968               850.5230               879.0299
 Red. masses --      1.9838                 2.6312                 2.0255
 Frc consts  --      0.8324                 1.1215                 0.9221
 IR Inten    --     11.3245                 1.3731                11.5308

                     16                     17                     18
                      A                      A                      A
 Frequencies --    908.1258               931.3499               948.0672
 Red. masses --      3.1892                 1.6604                 1.9621
 Frc consts  --      1.5496                 0.8486                 1.0391
 IR Inten    --     23.8092                12.0698                22.9078

                     19                     20                     21
                      A                      A                      A
 Frequencies --    956.4583               988.1405              1022.1488
 Red. masses --      2.5591                 4.1050                 2.0264
 Frc consts  --      1.3793                 2.3616                 1.2474
 IR Inten    --     22.1577                36.4189                 2.2973

                     22                     23                     24
                      A                      A                      A
 Frequencies --   1042.2576              1052.4573              1080.8865
 Red. masses --      1.3789                 1.7165                 2.1682
 Frc consts  --      0.8825                 1.1202                 1.4925
 IR Inten    --      1.8961                 2.8494                10.2002

                     25                     26                     27
                      A                      A                      A
 Frequencies --   1097.6207              1111.2687              1129.6336
 Red. masses --      1.4055                 1.7896                 1.6083
 Frc consts  --      0.9976                 1.3021                 1.2092
 IR Inten    --      2.7440                10.1921                10.6172

                     28                     29                     30
                      A                      A                      A
 Frequencies --   1160.4588              1183.4422              1192.4810
 Red. masses --      2.2969                 1.6713                 1.3551
 Frc consts  --      1.8225                 1.3791                 1.1354
 IR Inten    --     37.5270                13.2705                 2.6148

                     31                     32                     33
                      A                      A                      A
 Frequencies --   1230.8665              1243.2673              1256.4288
 Red. masses --      1.6105                 1.6413                 1.5764
 Frc consts  --      1.4376                 1.4947                 1.4662
 IR Inten    --     10.5828                 1.8679                 3.9031

                     34                     35                     36
                      A                      A                      A
 Frequencies --   1281.8215              1325.4437              1349.9893
 Red. masses --      1.4101                 1.1936                 1.5048
 Frc consts  --      1.3651                 1.2355                 1.6158
 IR Inten    --      7.4489                81.1388                 3.1806

                     37                     38                     39
                      A                      A                      A
 Frequencies --   1374.6864              1428.7938              1481.0414
 Red. masses --      1.5022                 1.4416                 1.1789
 Frc consts  --      1.6726                 1.7340                 1.5235
 IR Inten    --      8.3455                 3.0050                 8.2919

                     40                     41                     42
                      A                      A                      A
 Frequencies --   1496.7987              1525.0069              3026.4513
 Red. masses --      2.0222                 1.1237                 1.0554
 Frc consts  --      2.6693                 1.5397                 5.6958
 IR Inten    --      8.0875                 0.7992                63.2828

                     43                     44                     45
                      A                      A                      A
 Frequencies --   3067.1136              3070.2059              3083.4273
 Red. masses --      1.0832                 1.0845                 1.0866
 Frc consts  --      6.0036                 6.0232                 6.0869
 IR Inten    --      0.4329                67.8004                36.0262

                     46                     47                     48
                      A                      A                      A
 Frequencies --   3122.1569              3131.2271              3143.0674
 Red. masses --      1.0544                 1.0907                 1.1077
 Frc consts  --      6.0558                 6.3007                 6.4470
 IR Inten    --     13.8592                34.1904                21.0638

                     49                     50                     51
                      A                      A                      A
 Frequencies --   3150.8392              3210.3218              3790.1951
 Red. masses --      1.0925                 1.1165                 1.0664
 Frc consts  --      6.3905                 6.7797                 9.0257
 IR Inten    --     22.4664                 6.7093                24.6409

 - Thermochemistry -
 -------------------
 Temperature   298.150 Kelvin.  Pressure   1.00000 Atm.
 Atom     1 has atomic number  8 and mass  15.99491

 Molecular mass:   126.06808 amu.
 Principal axes and moments of inertia in atomic units:
                           1         2         3
     Eigenvalues --   611.478681158.922271350.75746
           X            0.99998  -0.00463   0.00366
           Y            0.00481   0.99871  -0.05047
           Z           -0.00343   0.05049   0.99872
 This molecule is an asymmetric top.
 Rotational symmetry number  1.
 Warning -- assumption of classical behavior for rotation
           may cause significant error
 Rotational temperatures (Kelvin)      0.14165     0.07474     0.06412
 Rotational constants (GHZ):           2.95144     1.55726     1.33610
 Zero-point vibrational energy     420989.9 (Joules/Mol)
                                  100.61899 (Kcal/Mol)
 Warning -- explicit consideration of   9 degrees of freedom as
           vibrations may cause significant error
 Vibrational temperatures:    137.42   220.35   310.42   487.83   511.56
          (Kelvin)            604.48   633.71   639.22   795.76   928.40
                             1056.38  1180.00  1214.18  1223.71  1264.73
                             1306.59  1340.00  1364.06  1376.13  1421.71
                             1470.64  1499.57  1514.25  1555.15  1579.23
                             1598.87  1625.29  1669.64  1702.71  1715.71
                             1770.94  1788.78  1807.72  1844.25  1907.02
                             1942.33  1977.86  2055.71  2130.89  2153.56
                             2194.14  4354.38  4412.89  4417.34  4436.36
                             4492.08  4505.13  4522.17  4533.35  4618.93
                             5453.24

 Zero-point correction=                           0.160347 (Hartree/Particle)
 Thermal correction to Energy=                    0.167922
 Thermal correction to Enthalpy=                  0.168866
 Thermal correction to Gibbs Free Energy=         0.128411
 Sum of electronic and zero-point Energies=           -422.974003
 Sum of electronic and thermal Energies=              -422.966427
 Sum of electronic and thermal Enthalpies=            -422.965483
 Sum of electronic and thermal Free Energies=         -423.005938

                     E (Thermal)             CV                S
                      KCal/Mol        Cal/Mol-Kelvin    Cal/Mol-Kelvin
 Total                  105.373             30.474             85.144
 Electronic               0.000              0.000              0.000
 Translational            0.889              2.981             40.409
 Rotational               0.889              2.981             28.350
 Vibrational            103.595             24.513             16.386
 Vibration     1          0.603              1.952              3.544
 Vibration     2          0.619              1.899              2.633
 Vibration     3          0.645              1.817              1.994
 Vibration     4          0.719              1.597              1.217
 Vibration     5          0.731              1.564              1.142
 Vibration     6          0.783              1.426              0.892
 Vibration     7          0.800              1.382              0.825
 Vibration     8          0.804              1.374              0.813
 Vibration     9          0.908              1.133              0.538

 Optimization completed.
    -- Stationary point found.
 Normal termination of Gaussian 09 at Tue Jan 28 02:45:42 2020.
