 Gaussian 09, Revision D.01,
 Gaussian 09:  ES64L-G09RevD.01 24-Apr-2013

 -----------------------------
 # b3lyp 6-31G(2df,p) opt Freq
 -----------------------------

 -----
 titel
 -----
 Symbolic Z-matrix:
 Charge =  0 Multiplicity = 1

 SCF Done:  E(RB3LYP) =  -423.182978198     A.U. after   14 cycles
 Optimization completed.
    -- Stationary point found.
 Normal termination of Gaussian 09 at Mon Jan 27 16:22:35 2020.

 ----------------------------------------------------------------------
 #N Geom=AllCheck Guess=TCheck SCRF=Check GenChk RB3LYP/6-31G(2df,p) Fr
 eq
 ----------------------------------------------------------------------

 Structure from the checkpoint file:  "/scratch/puck/g09_8af4844c-966b-4f6a-8561-21f748ae437a/Gau-12062.chk"
 -----
 titel
 -----
 Charge =  0 Multiplicity = 1

                         Standard orientation:
 ---------------------------------------------------------------------
 Center     Atomic      Atomic             Coordinates (Angstroms)
 Number     Number       Type             X           Y           Z
 ---------------------------------------------------------------------
      1          6           0       -1.640285    1.358348   -0.603344
      2          6           0       -1.271624    0.024587    0.002867
      3          8           0       -1.943276   -1.081487   -0.537579
      4          6           0       -0.836083   -0.073948    1.432957
      5          6           0        0.178558   -0.290398    0.321636
      6          6           0        0.967049   -1.549794   -0.069318
      7          6           0        2.180924   -0.642950   -0.461912
      8          6           0        1.360537    0.578094   -0.000705
      9          8           0        1.579108    1.756219    0.086128
     10          1           0       -0.980264    2.148393   -0.238068
     11          1           0       -1.559050    1.314121   -1.693703
     12          1           0       -2.674202    1.622818   -0.349188
     13          1           0       -2.871235   -1.017401   -0.284828
     14          1           0       -0.731820    0.836744    2.014874
     15          1           0       -1.133701   -0.959194    1.985299
     16          1           0        1.172037   -2.230060    0.760153
     17          1           0        0.526312   -2.115113   -0.891449
     18          1           0        3.104078   -0.798435    0.102999
     19          1           0        2.426732   -0.623363   -1.527570
 ---------------------------------------------------------------------

 SCF Done:  E(RB3LYP) =  -423.182978198     A.U. after    1 cycles

 The electronic state is 1-A.
 Alpha  occ. eigenvalues --  -19.15079 -19.12924 -10.26206 -10.25387 -10.19758
 Alpha  occ. eigenvalues --  -10.19416 -10.18961 -10.18889 -10.17960  -1.03981
 Alpha  occ. eigenvalues --   -1.03556  -0.87276  -0.80566  -0.71711  -0.63637
 Alpha  occ. eigenvalues --   -0.62060  -0.59674  -0.52152  -0.48701  -0.47107
 Alpha  occ. eigenvalues --   -0.46048  -0.45824  -0.41986  -0.41607  -0.40486
 Alpha  occ. eigenvalues --   -0.38071  -0.37742  -0.36191  -0.35502  -0.34817
 Alpha  occ. eigenvalues --   -0.31988  -0.27734  -0.27170  -0.23403
 Alpha virt. eigenvalues --   -0.01915   0.07132   0.10344   0.10803   0.11947
 Alpha virt. eigenvalues --    0.13188   0.14601   0.15357   0.15841   0.17663
 Alpha virt. eigenvalues --    0.17967   0.18904   0.19978   0.20898   0.24149

 Mulliken charges:
               1
     1  C   -0.459227
     2  C    0.341527
     3  O   -0.458575
     4  C   -0.407510
     5  C    0.200844
     6  C   -0.320203
     7  C   -0.340231
     8  C    0.345640
     9  O   -0.323412
    10  H    0.153833
    11  H    0.127130
    12  H    0.107345
    13  H    0.286171
    14  H    0.129683
    15  H    0.120650
    16  H    0.108706
    17  H    0.125575
    18  H    0.129924
    19  H    0.132130
 Sum of Mulliken charges =   0.00000

 Dipole moment (field-independent basis, Debye):
    X=             -1.8096    Y=             -1.7311    Z=              0.5473  Tot=              2.5634
 Quadrupole moment (field-independent basis, Debye-Ang):
   XX=            -47.8266   YY=            -58.4656   ZZ=            -51.8860
   XY=             -5.0470   XZ=             -1.6969   YZ=             -1.3757

  Exact polarizability:  90.177  -2.306  76.764  -3.691   0.082  66.531
 Approx polarizability: 122.004   4.210 117.382  -4.682   2.606 100.426

                      1                      2                      3
                      A                      A                      A
 Frequencies --     78.4610               118.2451               156.0134
 Red. masses --      2.5242                 4.1337                 4.1527
 Frc consts  --      0.0092                 0.0341                 0.0596
 IR Inten    --      4.5429                 0.5530                 5.8104

                      4                      5                      6
                      A                      A                      A
 Frequencies --    204.3568               231.9810               246.4490
 Red. masses --      2.1749                 1.1049                 1.1466
 Frc consts  --      0.0535                 0.0350                 0.0410
 IR Inten    --     11.7366                81.3253                 4.4474

                      7                      8                      9
                      A                      A                      A
 Frequencies --    306.8327               359.3071               418.5382
 Red. masses --      3.7757                 2.8089                 2.6823
 Frc consts  --      0.2094                 0.2137                 0.2768
 IR Inten    --      3.4236                 2.3202                 1.6731

                     10                     11                     12
                      A                      A                      A
 Frequencies --    437.2750               515.4966               541.1753
 Red. masses --      3.1065                 2.3874                 2.6533
 Frc consts  --      0.3500                 0.3738                 0.4578
 IR Inten    --      8.2107                 5.0737                 6.2564

                     13                     14                     15
                      A                      A                      A
 Frequencies --    619.9093               687.6098               725.8851
 Red. masses --      3.6868                 3.8279                 4.6741
 Frc consts  --      0.8347                 1.0663                 1.4510
 IR Inten    --      0.8464                 1.3123                 6.9407

                     16                     17                     18
                      A                      A                      A
 Frequencies --    758.4466               843.0380               887.5553
 Red. masses --      1.2562                 3.5084                 1.6001
 Frc consts  --      0.4258                 1.4691                 0.7427
 IR Inten    --      2.1792                46.3443                 0.4972

                     19                     20                     21
                      A                      A                      A
 Frequencies --    917.6199               928.7799               993.1283
 Red. masses --      1.7838                 2.2852                 1.8791
 Frc consts  --      0.8849                 1.1615                 1.0919
 IR Inten    --      2.6080                 4.4587                 6.9832

                     22                     23                     24
                      A                      A                      A
 Frequencies --   1026.2335              1041.8668              1059.9770
 Red. masses --      1.9551                 1.7577                 1.8465
 Frc consts  --      1.2131                 1.1241                 1.2223
 IR Inten    --     49.2557                20.4697                 9.2704

                     25                     26                     27
                      A                      A                      A
 Frequencies --   1084.9639              1103.7526              1165.6177
 Red. masses --      1.7386                 1.5524                 2.0707
 Frc consts  --      1.2058                 1.1143                 1.6576
 IR Inten    --     17.9877                16.4784                42.1360

                     28                     29                     30
                      A                      A                      A
 Frequencies --   1167.5578              1208.6085              1222.2216
 Red. masses --      3.0849                 1.1485                 1.9207
 Frc consts  --      2.4777                 0.9884                 1.6905
 IR Inten    --     16.7640                 0.2841                12.0434

                     31                     32                     33
                      A                      A                      A
 Frequencies --   1248.8970              1282.0257              1313.4097
 Red. masses --      1.5906                 3.1038                 1.6700
 Frc consts  --      1.4617                 3.0056                 1.6973
 IR Inten    --     37.4413                72.8131                34.7170

                     34                     35                     36
                      A                      A                      A
 Frequencies --   1393.7863              1420.6589              1438.6056
 Red. masses --      1.5982                 1.3737                 1.0995
 Frc consts  --      1.8293                 1.6335                 1.3406
 IR Inten    --     36.3277                14.6501                 2.3021

                     37                     38                     39
                      A                      A                      A
 Frequencies --   1464.6458              1489.4178              1494.4271
 Red. masses --      1.4526                 1.0690                 1.1041
 Frc consts  --      1.8359                 1.3972                 1.4528
 IR Inten    --     21.4050                 8.8385                 0.5127

                     40                     41                     42
                      A                      A                      A
 Frequencies --   1504.6343              1865.4147              3027.0592
 Red. masses --      1.1873                12.6004                 1.0404
 Frc consts  --      1.5837                25.8337                 5.6168
 IR Inten    --      9.2420               248.7551                35.0252

                     43                     44                     45
                      A                      A                      A
 Frequencies --   3062.4549              3077.0445              3094.5907
 Red. masses --      1.0585                 1.0611                 1.0965
 Frc consts  --      5.8489                 5.9196                 6.1865
 IR Inten    --     13.4261                25.1775                18.2380

                     46                     47                     48
                      A                      A                      A
 Frequencies --   3112.2435              3122.0364              3133.3186
 Red. masses --      1.1056                 1.0538                 1.0998
 Frc consts  --      6.3095                 6.0518                 6.3618
 IR Inten    --      2.1181                 6.7878                 4.0140

                     49                     50                     51
                      A                      A                      A
 Frequencies --   3134.5796              3218.7419              3793.9955
 Red. masses --      1.1061                 1.1179                 1.0660
 Frc consts  --      6.4034                 6.8240                 9.0407
 IR Inten    --     18.5210                 3.1436                19.6845

 - Thermochemistry -
 -------------------
 Temperature   298.150 Kelvin.  Pressure   1.00000 Atm.
 Atom     1 has atomic number  6 and mass  12.00000

 Molecular mass:   126.06808 amu.
 Principal axes and moments of inertia in atomic units:
                           1         2         3
     Eigenvalues --   723.896921224.746211573.60014
           X            0.99583  -0.09087  -0.00750
           Y            0.09070   0.99566  -0.02079
           Z            0.00936   0.02002   0.99976
 This molecule is an asymmetric top.
 Rotational symmetry number  1.
 Warning -- assumption of classical behavior for rotation
           may cause significant error
 Rotational temperatures (Kelvin)      0.11965     0.07072     0.05504
 Rotational constants (GHZ):           2.49309     1.47356     1.14689
 Zero-point vibrational energy     411209.7 (Joules/Mol)
                                   98.28147 (Kcal/Mol)
 Warning -- explicit consideration of  13 degrees of freedom as
           vibrations may cause significant error
 Vibrational temperatures:    112.89   170.13   224.47   294.02   333.77
          (Kelvin)            354.58   441.46   516.96   602.18   629.14
                              741.68   778.63   891.91   989.32  1044.39
                             1091.23  1212.94  1276.99  1320.25  1336.31
                             1428.89  1476.52  1499.01  1525.07  1561.02
                             1588.05  1677.06  1679.85  1738.92  1758.50
                             1796.88  1844.55  1889.70  2005.35  2044.01
                             2069.83  2107.30  2142.94  2150.14  2164.83
                             2683.91  4355.26  4406.18  4427.18  4452.42
                             4477.82  4491.91  4508.14  4509.96  4631.05
                             5458.71

 Zero-point correction=                           0.156621 (Hartree/Particle)
 Thermal correction to Energy=                    0.165874
 Thermal correction to Enthalpy=                  0.166818
 Thermal correction to Gibbs Free Energy=         0.122830
 Sum of electronic and zero-point Energies=           -423.026357
 Sum of electronic and thermal Energies=              -423.017104
 Sum of electronic and thermal Enthalpies=            -423.016160
 Sum of electronic and thermal Free Energies=         -423.060148

                     E (Thermal)             CV                S
                      KCal/Mol        Cal/Mol-Kelvin    Cal/Mol-Kelvin
 Total                  104.088             34.849             92.580
 Electronic               0.000              0.000              0.000
 Translational            0.889              2.981             40.409
 Rotational               0.889              2.981             28.724
 Vibrational            102.310             28.888             23.447
 Vibration     1          0.600              1.964              3.929
 Vibration     2          0.608              1.934              3.129
 Vibration     3          0.620              1.896              2.598
 Vibration     4          0.640              1.834              2.094
 Vibration     5          0.653              1.792              1.864
 Vibration     6          0.661              1.769              1.756
 Vibration     7          0.697              1.661              1.379
 Vibration     8          0.734              1.556              1.125
 Vibration     9          0.781              1.430              0.897
 Vibration    10          0.798              1.389              0.835
 Vibration    11          0.871              1.216              0.620
 Vibration    12          0.896              1.159              0.563
 Vibration    13          0.980              0.990              0.417

 Optimization completed.
    -- Stationary point found.
 Normal termination of Gaussian 09 at Mon Jan 27 18:28:20 2020.
