 Gaussian 09, Revision D.01,
 Gaussian 09:  ES64L-G09RevD.01 24-Apr-2013

 -----------------------------
 # b3lyp 6-31G(2df,p) opt Freq
 -----------------------------

 -----
 titel
 -----
 Symbolic Z-matrix:
 Charge =  0 Multiplicity = 1

 SCF Done:  E(RB3LYP) =  -423.155164287     A.U. after   14 cycles
 SCF Done:  E(RB3LYP) =  -423.155164288     A.U. after    6 cycles
 SCF Done:  E(RB3LYP) =  -423.155164208     A.U. after    7 cycles
 SCF Done:  E(RB3LYP) =  -423.155164311     A.U. after    7 cycles
 SCF Done:  E(RB3LYP) =  -423.155164305     A.U. after    6 cycles
 SCF Done:  E(RB3LYP) =  -423.155164359     A.U. after    7 cycles
 Optimization completed.
    -- Stationary point found.
 Normal termination of Gaussian 09 at Mon Jan 27 11:32:43 2020.

 ----------------------------------------------------------------------
 #N Geom=AllCheck Guess=TCheck SCRF=Check GenChk RB3LYP/6-31G(2df,p) Fr
 eq
 ----------------------------------------------------------------------

 Structure from the checkpoint file:  "/scratch/puck/g09_cd61afbf-849b-4e3e-a6c1-2bc9aa48db90/Gau-94828.chk"
 -----
 titel
 -----
 Charge =  0 Multiplicity = 1

                         Standard orientation:
 ---------------------------------------------------------------------
 Center     Atomic      Atomic             Coordinates (Angstroms)
 Number     Number       Type             X           Y           Z
 ---------------------------------------------------------------------
      1          6           0       -3.636155   -0.577205    0.313952
      2          6           0       -2.687035    0.084994   -0.008631
      3          6           0       -1.535684    0.898693   -0.377643
      4          6           0       -0.212790    0.385342    0.203430
      5          6           0        0.959098    1.343934   -0.040046
      6          6           0        2.259235    0.657337    0.388888
      7          8           0        2.381773   -0.613025   -0.235544
      8          6           0        1.269935   -1.419788    0.047485
      9          8           0        0.064430   -0.867902   -0.412886
     10          1           0       -4.474675   -1.167258    0.589176
     11          1           0       -1.435648    0.936269   -1.469292
     12          1           0       -1.687038    1.930658   -0.036721
     13          1           0       -0.333965    0.231900    1.289680
     14          1           0        1.010073    1.586336   -1.107516
     15          1           0        0.818409    2.276258    0.518499
     16          1           0        3.138979    1.236292    0.097064
     17          1           0        2.276870    0.538525    1.486117
     18          1           0        1.412668   -2.363010   -0.482862
     19          1           0        1.205089   -1.598403    1.138682
 ---------------------------------------------------------------------

 SCF Done:  E(RB3LYP) =  -423.155164359     A.U. after    1 cycles

 The electronic state is 1-A.
 Alpha  occ. eigenvalues --  -19.14600 -19.14594 -10.27273 -10.24525 -10.23610
 Alpha  occ. eigenvalues --  -10.21069 -10.19082 -10.17865 -10.16749  -1.07583
 Alpha  occ. eigenvalues --   -1.00879  -0.81748  -0.76866  -0.71094  -0.67853
 Alpha  occ. eigenvalues --   -0.64507  -0.58216  -0.52706  -0.50909  -0.50404
 Alpha  occ. eigenvalues --   -0.48119  -0.46979  -0.45589  -0.42731  -0.41285
 Alpha  occ. eigenvalues --   -0.40255  -0.39292  -0.35985  -0.32790  -0.32385
 Alpha  occ. eigenvalues --   -0.27147  -0.26811  -0.26066  -0.25861
 Alpha virt. eigenvalues --    0.05255   0.06020   0.09532   0.10646   0.11575
 Alpha virt. eigenvalues --    0.12609   0.13141   0.13929   0.14292   0.16462
 Alpha virt. eigenvalues --    0.16641   0.17543   0.18862   0.19628   0.22358

 Mulliken charges:
               1
     1  C   -0.437986
     2  C    0.307541
     3  C   -0.378870
     4  C    0.129721
     5  C   -0.216328
     6  C   -0.097162
     7  O   -0.231862
     8  C    0.017512
     9  O   -0.245428
    10  H    0.194441
    11  H    0.140844
    12  H    0.128413
    13  H    0.076367
    14  H    0.112984
    15  H    0.099198
    16  H    0.114519
    17  H    0.089974
    18  H    0.120246
    19  H    0.075878
 Sum of Mulliken charges =   0.00000

 Dipole moment (field-independent basis, Debye):
    X=              0.2918    Y=              1.4176    Z=              1.1366  Tot=              1.8403
 Quadrupole moment (field-independent basis, Debye-Ang):
   XX=            -55.2143   YY=            -49.5086   ZZ=            -53.3358
   XY=              2.7737   XZ=              0.7219   YZ=             -1.3987

  Exact polarizability:  95.590   9.809  75.777  -3.390  -2.545  60.737
 Approx polarizability: 125.046  19.386 111.317  -9.653  -4.226  96.325

                      1                      2                      3
                      A                      A                      A
 Frequencies --     67.8579                97.3819               172.5369
 Red. masses --      3.7499                 4.5527                 3.5191
 Frc consts  --      0.0102                 0.0254                 0.0617
 IR Inten    --      0.3489                 0.2027                 1.3866

                      4                      5                      6
                      A                      A                      A
 Frequencies --    259.7112               289.6004               342.4117
 Red. masses --      2.0885                 3.7628                 3.0480
 Frc consts  --      0.0830                 0.1859                 0.2106
 IR Inten    --      2.0097                 0.3500                 3.1666

                      7                      8                      9
                      A                      A                      A
 Frequencies --    369.8073               383.2105               487.0169
 Red. masses --      2.0668                 5.7012                 2.1876
 Frc consts  --      0.1665                 0.4933                 0.3057
 IR Inten    --      5.0893                 0.4239                 3.5020

                     10                     11                     12
                      A                      A                      A
 Frequencies --    497.0432               551.4659               615.2805
 Red. masses --      3.6900                 4.9886                 1.2044
 Frc consts  --      0.5371                 0.8939                 0.2686
 IR Inten    --      3.7699                 8.7749                42.0590

                     13                     14                     15
                      A                      A                      A
 Frequencies --    641.9636               678.0832               822.5383
 Red. masses --      1.2376                 2.5803                 2.8774
 Frc consts  --      0.3005                 0.6990                 1.1470
 IR Inten    --     45.5191                 0.6333                12.6179

                     16                     17                     18
                      A                      A                      A
 Frequencies --    870.5592               912.4704               945.5380
 Red. masses --      2.6836                 1.8051                 2.1206
 Frc consts  --      1.1983                 0.8855                 1.1170
 IR Inten    --      6.0548                 3.7773                 6.2080

                     19                     20                     21
                      A                      A                      A
 Frequencies --    955.2129              1001.8434              1059.8182
 Red. masses --      3.8082                 2.9278                 7.6125
 Frc consts  --      2.0473                 1.7314                 5.0378
 IR Inten    --      4.5268                46.9456               122.7284

                     22                     23                     24
                      A                      A                      A
 Frequencies --   1066.6973              1078.8266              1115.5752
 Red. masses --      3.6380                 2.0656                 2.2658
 Frc consts  --      2.4389                 1.4164                 1.6614
 IR Inten    --     23.2934                30.5978                23.9071

                     25                     26                     27
                      A                      A                      A
 Frequencies --   1156.8469              1191.1849              1231.3179
 Red. masses --      2.4445                 2.0448                 1.3998
 Frc consts  --      1.9275                 1.7094                 1.2504
 IR Inten    --     45.6685               103.5636                27.3977

                     28                     29                     30
                      A                      A                      A
 Frequencies --   1251.9203              1272.1356              1305.6706
 Red. masses --      1.1425                 1.4479                 1.2039
 Frc consts  --      1.0550                 1.3806                 1.2093
 IR Inten    --      9.1677                 9.8602                 7.3447

                     31                     32                     33
                      A                      A                      A
 Frequencies --   1330.8270              1356.8807              1382.7545
 Red. masses --      1.1955                 1.3535                 1.1805
 Frc consts  --      1.2475                 1.4682                 1.3299
 IR Inten    --      6.8434                 1.4010                 4.5631

                     34                     35                     36
                      A                      A                      A
 Frequencies --   1396.9682              1404.7851              1448.2030
 Red. masses --      1.5950                 1.3237                 1.2225
 Frc consts  --      1.8339                 1.5391                 1.5106
 IR Inten    --     17.0010                16.7996                14.8983

                     37                     38                     39
                      A                      A                      A
 Frequencies --   1455.5555              1470.0067              1497.8112
 Red. masses --      1.0970                 1.1044                 1.0885
 Frc consts  --      1.3693                 1.4061                 1.4388
 IR Inten    --      2.3847                 3.9813                 1.5100

                     40                     41                     42
                      A                      A                      A
 Frequencies --   1509.8931              2243.2366              2914.4198
 Red. masses --      1.1131                 5.9216                 1.0705
 Frc consts  --      1.4951                17.5565                 5.3570
 IR Inten    --      4.2651                 2.1385                66.6326

                     43                     44                     45
                      A                      A                      A
 Frequencies --   2956.1578              2964.5943              3026.9337
 Red. masses --      1.0782                 1.0746                 1.0588
 Frc consts  --      5.5516                 5.5643                 5.7158
 IR Inten    --      7.6666                88.0003                 9.2558

                     46                     47                     48
                      A                      A                      A
 Frequencies --   3038.0861              3065.6390              3087.7347
 Red. masses --      1.0586                 1.1013                 1.1017
 Frc consts  --      5.7570                 6.0982                 6.1884
 IR Inten    --     25.2557                 5.7437                33.0970

                     49                     50                     51
                      A                      A                      A
 Frequencies --   3096.3774              3117.3862              3507.1057
 Red. masses --      1.0946                 1.0932                 1.1626
 Frc consts  --      6.1835                 6.2592                 8.4254
 IR Inten    --     35.9254                32.0958                65.3351

 - Thermochemistry -
 -------------------
 Temperature   298.150 Kelvin.  Pressure   1.00000 Atm.
 Atom     1 has atomic number  6 and mass  12.00000

 Molecular mass:   126.06808 amu.
 Principal axes and moments of inertia in atomic units:
                           1         2         3
     Eigenvalues --   452.430321858.534442180.55892
           X            0.99993   0.00999   0.00559
           Y           -0.00986   0.99969  -0.02298
           Z           -0.00582   0.02292   0.99972
 This molecule is an asymmetric top.
 Rotational symmetry number  1.
 Warning -- assumption of classical behavior for rotation
           may cause significant error
 Rotational temperatures (Kelvin)      0.19144     0.04660     0.03972
 Rotational constants (GHZ):           3.98899     0.97106     0.82765
 Zero-point vibrational energy     418471.0 (Joules/Mol)
                                  100.01696 (Kcal/Mol)
 Warning -- explicit consideration of  12 degrees of freedom as
           vibrations may cause significant error
 Vibrational temperatures:     97.63   140.11   248.24   373.67   416.67
          (Kelvin)            492.65   532.07   551.35   700.71   715.13
                              793.44   885.25   923.64   975.61  1183.45
                             1252.54  1312.84  1360.42  1374.34  1441.43
                             1524.84  1534.74  1552.19  1605.06  1664.44
                             1713.85  1771.59  1801.23  1830.32  1878.57
                             1914.76  1952.25  1989.47  2009.92  2021.17
                             2083.64  2094.22  2115.01  2155.01  2172.40
                             3227.51  4193.19  4253.25  4265.38  4355.08
                             4371.12  4410.77  4442.56  4454.99  4485.22
                             5045.94

 Zero-point correction=                           0.159387 (Hartree/Particle)
 Thermal correction to Energy=                    0.167941
 Thermal correction to Enthalpy=                  0.168885
 Thermal correction to Gibbs Free Energy=         0.125897
 Sum of electronic and zero-point Energies=           -422.995777
 Sum of electronic and thermal Energies=              -422.987223
 Sum of electronic and thermal Enthalpies=            -422.986279
 Sum of electronic and thermal Free Energies=         -423.029267

                     E (Thermal)             CV                S
                      KCal/Mol        Cal/Mol-Kelvin    Cal/Mol-Kelvin
 Total                  105.385             32.497             90.477
 Electronic               0.000              0.000              0.000
 Translational            0.889              2.981             40.409
 Rotational               0.889              2.981             28.996
 Vibrational            103.607             26.536             21.073
 Vibration     1          0.598              1.970              4.215
 Vibration     2          0.603              1.951              3.506
 Vibration     3          0.626              1.876              2.408
 Vibration     4          0.668              1.746              1.664
 Vibration     5          0.686              1.693              1.476
 Vibration     6          0.722              1.591              1.201
 Vibration     7          0.742              1.534              1.081
 Vibration     8          0.752              1.506              1.026
 Vibration     9          0.843              1.279              0.691
 Vibration    10          0.853              1.257              0.666
 Vibration    11          0.907              1.136              0.541
 Vibration    12          0.975              1.000              0.424

 Optimization completed.
    -- Stationary point found.
 Normal termination of Gaussian 09 at Mon Jan 27 12:10:26 2020.
