 Gaussian 09, Revision D.01,
 Gaussian 09:  ES64L-G09RevD.01 24-Apr-2013

 -----------------------------
 # b3lyp 6-31G(2df,p) opt Freq
 -----------------------------

 -----
 titel
 -----
 Symbolic Z-matrix:
 Charge =  0 Multiplicity = 1

 SCF Done:  E(RB3LYP) =  -423.217354861     A.U. after   14 cycles
 Optimization completed.
    -- Stationary point found.
 Normal termination of Gaussian 09 at Mon Jan 27 16:21:07 2020.

 ----------------------------------------------------------------------
 #N Geom=AllCheck Guess=TCheck SCRF=Check GenChk RB3LYP/6-31G(2df,p) Fr
 eq
 ----------------------------------------------------------------------

 Structure from the checkpoint file:  "/scratch/puck/g09_69c78ba8-93d4-4567-99d7-9a582f3ff41c/Gau-57155.chk"
 -----
 titel
 -----
 Charge =  0 Multiplicity = 1

                         Standard orientation:
 ---------------------------------------------------------------------
 Center     Atomic      Atomic             Coordinates (Angstroms)
 Number     Number       Type             X           Y           Z
 ---------------------------------------------------------------------
      1          6           0        2.457682   -0.772494   -0.744366
      2          6           0        1.289116   -0.175477    0.026159
      3          8           0        1.611318   -0.349952    1.406994
      4          6           0        1.045399    1.339271   -0.260829
      5          6           0       -0.440176    1.491706   -0.090369
      6          6           0       -1.066084    0.302729   -0.100934
      7          6           0       -0.086911   -0.833945   -0.283994
      8          6           0       -2.516020    0.132373    0.016823
      9          8           0       -3.082199   -0.938185   -0.013302
     10          1           0        3.388105   -0.263498   -0.475971
     11          1           0        2.569175   -1.832188   -0.498056
     12          1           0        2.304923   -0.678076   -1.822973
     13          1           0        0.864620   -0.034975    1.928879
     14          1           0        1.638776    1.962934    0.416026
     15          1           0        1.338242    1.612440   -1.284553
     16          1           0       -0.941126    2.450483    0.003016
     17          1           0       -0.275399   -1.683150    0.378490
     18          1           0       -0.134076   -1.215663   -1.311460
     19          1           0       -3.084227    1.081801    0.142127
 ---------------------------------------------------------------------

 SCF Done:  E(RB3LYP) =  -423.217354861     A.U. after    1 cycles

 The electronic state is 1-A.
 Alpha  occ. eigenvalues --  -19.13760 -19.13473 -10.26784 -10.24732 -10.21437
 Alpha  occ. eigenvalues --  -10.20140 -10.19734 -10.18892 -10.17789  -1.03980
 Alpha  occ. eigenvalues --   -1.02337  -0.85718  -0.76110  -0.72877  -0.68666
 Alpha  occ. eigenvalues --   -0.61396  -0.57469  -0.54203  -0.51967  -0.47063
 Alpha  occ. eigenvalues --   -0.46179  -0.44647  -0.43611  -0.41476  -0.39934
 Alpha  occ. eigenvalues --   -0.38974  -0.38634  -0.37338  -0.36661  -0.34838
 Alpha  occ. eigenvalues --   -0.32679  -0.27021  -0.26850  -0.25289
 Alpha virt. eigenvalues --   -0.06010   0.05735   0.07249   0.10883   0.11486
 Alpha virt. eigenvalues --    0.12510   0.13563   0.14833   0.15057   0.16177
 Alpha virt. eigenvalues --    0.17118   0.18538   0.18985   0.20604   0.22265

 Mulliken charges:
               1
     1  C   -0.420496
     2  C    0.371254
     3  O   -0.467169
     4  C   -0.297612
     5  C   -0.162857
     6  C    0.230211
     7  C   -0.355750
     8  C    0.061324
     9  O   -0.268153
    10  H    0.124438
    11  H    0.128398
    12  H    0.111982
    13  H    0.279057
    14  H    0.121116
    15  H    0.119882
    16  H    0.111669
    17  H    0.128193
    18  H    0.117535
    19  H    0.066979
 Sum of Mulliken charges =   0.00000

 Dipole moment (field-independent basis, Debye):
    X=              1.3582    Y=              2.6892    Z=             -0.6036  Tot=              3.0726
 Quadrupole moment (field-independent basis, Debye-Ang):
   XX=            -63.7887   YY=            -52.2423   ZZ=            -51.9519
   XY=             -4.8278   XZ=             -3.3998   YZ=              1.1432

  Exact polarizability:  98.299   7.124  83.596  -3.542   1.221  58.798
 Approx polarizability: 135.124  28.402 142.961  -2.571   0.701  91.665

                      1                      2                      3
                      A                      A                      A
 Frequencies --     79.0482               122.2426               163.0278
 Red. masses --      3.9128                 3.3516                 5.1135
 Frc consts  --      0.0144                 0.0295                 0.0801
 IR Inten    --      2.4170                 1.6353                 7.6744

                      4                      5                      6
                      A                      A                      A
 Frequencies --    235.6643               278.8772               310.1330
 Red. masses --      1.0880                 2.4922                 2.0340
 Frc consts  --      0.0356                 0.1142                 0.1153
 IR Inten    --      1.4351                 4.0340                 5.5811

                      7                      8                      9
                      A                      A                      A
 Frequencies --    353.4312               357.8571               407.2516
 Red. masses --      3.2240                 1.1125                 1.8989
 Frc consts  --      0.2373                 0.0839                 0.1856
 IR Inten    --      5.3231                58.7587                 0.3182

                     10                     11                     12
                      A                      A                      A
 Frequencies --    426.4257               466.2910               492.4959
 Red. masses --      2.8230                 2.4725                 4.2517
 Frc consts  --      0.3024                 0.3167                 0.6076
 IR Inten    --      8.7805                 4.4955                 1.1143

                     13                     14                     15
                      A                      A                      A
 Frequencies --    613.6878               730.7348               782.8431
 Red. masses --      4.2070                 4.5407                 2.8137
 Frc consts  --      0.9335                 1.4285                 1.0160
 IR Inten    --      5.1800                21.9956                 0.6947

                     16                     17                     18
                      A                      A                      A
 Frequencies --    829.5158               876.4005               891.9943
 Red. masses --      1.4881                 2.6676                 2.4953
 Frc consts  --      0.6033                 1.2072                 1.1697
 IR Inten    --      5.8995                 7.0450                 5.5067

                     19                     20                     21
                      A                      A                      A
 Frequencies --    916.5171               970.0398               972.6653
 Red. masses --      2.3790                 1.5590                 1.7147
 Frc consts  --      1.1774                 0.8643                 0.9558
 IR Inten    --     40.3545                 1.0412                 3.9906

                     22                     23                     24
                      A                      A                      A
 Frequencies --    991.1475              1037.0536              1086.1502
 Red. masses --      1.7097                 1.6898                 1.9613
 Frc consts  --      0.9896                 1.0707                 1.3632
 IR Inten    --     12.8800                 0.2190                42.1602

                     25                     26                     27
                      A                      A                      A
 Frequencies --   1109.8892              1138.2363              1192.1861
 Red. masses --      1.3969                 1.4088                 1.7431
 Frc consts  --      1.0139                 1.0754                 1.4597
 IR Inten    --      3.9992                 4.7481                28.4369

                     28                     29                     30
                      A                      A                      A
 Frequencies --   1220.4610              1249.4804              1266.7245
 Red. masses --      2.3913                 1.6748                 1.4851
 Frc consts  --      2.0986                 1.5406                 1.4040
 IR Inten    --     17.6120                76.2693                 3.9407

                     31                     32                     33
                      A                      A                      A
 Frequencies --   1294.6429              1360.7701              1388.3533
 Red. masses --      1.6252                 3.7076                 1.4751
 Frc consts  --      1.6049                 4.0449                 1.6752
 IR Inten    --      1.6132                25.9493                39.8749

                     34                     35                     36
                      A                      A                      A
 Frequencies --   1419.2602              1421.9064              1459.4611
 Red. masses --      1.2277                 1.6003                 1.0883
 Frc consts  --      1.4570                 1.9063                 1.3658
 IR Inten    --      4.0889                25.1861                 7.7819

                     37                     38                     39
                      A                      A                      A
 Frequencies --   1474.2044              1484.2913              1499.1806
 Red. masses --      1.0988                 1.0513                 1.0526
 Frc consts  --      1.4069                 1.3646                 1.3938
 IR Inten    --      2.7369                 2.0541                 1.1931

                     40                     41                     42
                      A                      A                      A
 Frequencies --   1670.5692              1784.9720              2874.3499
 Red. masses --      6.6189                10.3426                 1.0824
 Frc consts  --     10.8834                19.4152                 5.2688
 IR Inten    --     41.4979               241.7363               124.2445

                     43                     44                     45
                      A                      A                      A
 Frequencies --   3012.1941              3035.9845              3044.6899
 Red. masses --      1.0673                 1.0646                 1.0373
 Frc consts  --      5.7058                 5.7816                 5.6656
 IR Inten    --     14.9715                 9.8113                21.6326

                     46                     47                     48
                      A                      A                      A
 Frequencies --   3073.9007              3095.7020              3117.3354
 Red. masses --      1.0936                 1.0956                 1.1019
 Frc consts  --      6.0884                 6.1861                 6.3089
 IR Inten    --     10.6919                 5.9019                15.4014

                     49                     50                     51
                      A                      A                      A
 Frequencies --   3122.5257              3183.7052              3796.0394
 Red. masses --      1.1021                 1.0931                 1.0659
 Frc consts  --      6.3313                 6.5281                 9.0496
 IR Inten    --     22.1709                10.2742                 9.7356

 - Thermochemistry -
 -------------------
 Temperature   298.150 Kelvin.  Pressure   1.00000 Atm.
 Atom     1 has atomic number  6 and mass  12.00000

 Molecular mass:   126.06808 amu.
 Principal axes and moments of inertia in atomic units:
                           1         2         3
     Eigenvalues --   552.676171719.947481905.66028
           X            0.99963  -0.01957  -0.01898
           Y            0.02034   0.99894   0.04129
           Z            0.01816  -0.04166   0.99897
 This molecule is an asymmetric top.
 Rotational symmetry number  1.
 Warning -- assumption of classical behavior for rotation
           may cause significant error
 Rotational temperatures (Kelvin)      0.15672     0.05036     0.04545
 Rotational constants (GHZ):           3.26546     1.04930     0.94704
 Zero-point vibrational energy     413803.3 (Joules/Mol)
                                   98.90136 (Kcal/Mol)
 Warning -- explicit consideration of  13 degrees of freedom as
           vibrations may cause significant error
 Vibrational temperatures:    113.73   175.88   234.56   339.07   401.24
          (Kelvin)            446.21   508.51   514.88   585.94   613.53
                              670.89   708.59   882.96  1051.36  1126.34
                             1193.49  1260.94  1283.38  1318.66  1395.67
                             1399.45  1426.04  1492.09  1562.73  1596.88
                             1637.67  1715.29  1755.97  1797.72  1822.53
                             1862.70  1957.84  1997.53  2042.00  2045.80
                             2099.84  2121.05  2135.56  2156.98  2403.57
                             2568.17  4135.54  4333.87  4368.10  4380.62
                             4422.65  4454.02  4485.14  4492.61  4580.64
                             5461.65

 Zero-point correction=                           0.157609 (Hartree/Particle)
 Thermal correction to Energy=                    0.166593
 Thermal correction to Enthalpy=                  0.167537
 Thermal correction to Gibbs Free Energy=         0.124042
 Sum of electronic and zero-point Energies=           -423.059746
 Sum of electronic and thermal Energies=              -423.050762
 Sum of electronic and thermal Enthalpies=            -423.049817
 Sum of electronic and thermal Free Energies=         -423.093313

                     E (Thermal)             CV                S
                      KCal/Mol        Cal/Mol-Kelvin    Cal/Mol-Kelvin
 Total                  104.539             34.131             91.545
 Electronic               0.000              0.000              0.000
 Translational            0.889              2.981             40.409
 Rotational               0.889              2.981             28.984
 Vibrational            102.761             28.170             22.152
 Vibration     1          0.600              1.963              3.914
 Vibration     2          0.610              1.931              3.065
 Vibration     3          0.623              1.888              2.514
 Vibration     4          0.655              1.786              1.835
 Vibration     5          0.679              1.713              1.541
 Vibration     6          0.699              1.654              1.362
 Vibration     7          0.730              1.568              1.151
 Vibration     8          0.733              1.559              1.131
 Vibration     9          0.772              1.454              0.936
 Vibration    10          0.788              1.413              0.870
 Vibration    11          0.824              1.325              0.748
 Vibration    12          0.848              1.267              0.677
 Vibration    13          0.973              1.003              0.427

 Optimization completed.
    -- Stationary point found.
 Normal termination of Gaussian 09 at Mon Jan 27 17:02:00 2020.
