 Gaussian 09, Revision D.01,
 Gaussian 09:  ES64L-G09RevD.01 24-Apr-2013

 -----------------------------
 # b3lyp 6-31G(2df,p) opt Freq
 -----------------------------

 -----
 titel
 -----
 Symbolic Z-matrix:
 Charge =  0 Multiplicity = 1

 SCF Done:  E(RB3LYP) =  -423.207355176     A.U. after   14 cycles
 Optimization completed.
    -- Stationary point found.
 Normal termination of Gaussian 09 at Mon Jan 27 22:03:43 2020.

 ----------------------------------------------------------------------
 #N Geom=AllCheck Guess=TCheck SCRF=Check GenChk RB3LYP/6-31G(2df,p) Fr
 eq
 ----------------------------------------------------------------------

 Structure from the checkpoint file:  "/scratch/puck/g09_ab953602-7416-4ea3-9cf6-e7ad96878be3/Gau-72849.chk"
 -----
 titel
 -----
 Charge =  0 Multiplicity = 1

                         Standard orientation:
 ---------------------------------------------------------------------
 Center     Atomic      Atomic             Coordinates (Angstroms)
 Number     Number       Type             X           Y           Z
 ---------------------------------------------------------------------
      1          6           0        2.189810   -1.379272   -0.592486
      2          6           0        1.266955   -0.181249   -0.597976
      3          6           0        1.086604    0.678675    0.620640
      4          6           0        0.944661    2.182181    0.520785
      5          6           0       -0.037856   -0.224809    0.166026
      6          6           0       -0.767950   -1.369969    0.854154
      7          8           0       -2.028546   -0.874686    0.289811
      8          6           0       -1.389333    0.173280   -0.342286
      9          8           0       -1.874511    1.018928   -1.026325
     10          1           0        1.877879   -2.128028   -1.328249
     11          1           0        3.214703   -1.079661   -0.835284
     12          1           0        2.210575   -1.863236    0.389634
     13          1           0        1.195360    0.341491   -1.549568
     14          1           0        1.601056    0.319653    1.510631
     15          1           0        0.350120    2.461462   -0.352867
     16          1           0        0.445187    2.590767    1.405285
     17          1           0        1.927484    2.658360    0.438948
     18          1           0       -0.554980   -2.379634    0.494279
     19          1           0       -0.800272   -1.348130    1.946155
 ---------------------------------------------------------------------

 SCF Done:  E(RB3LYP) =  -423.207355176     A.U. after    1 cycles

 The electronic state is 1-A.
 Alpha  occ. eigenvalues --  -19.17506 -19.12902 -10.30153 -10.25259 -10.21472
 Alpha  occ. eigenvalues --  -10.21253 -10.21223 -10.19541 -10.18452  -1.09858
 Alpha  occ. eigenvalues --   -1.02654  -0.88733  -0.74299  -0.73173  -0.68869
 Alpha  occ. eigenvalues --   -0.65124  -0.58311  -0.51345  -0.50528  -0.49342
 Alpha  occ. eigenvalues --   -0.47975  -0.44641  -0.43814  -0.41484  -0.40758
 Alpha  occ. eigenvalues --   -0.39864  -0.39007  -0.38111  -0.36857  -0.36336
 Alpha  occ. eigenvalues --   -0.30377  -0.29760  -0.28788  -0.26559
 Alpha virt. eigenvalues --    0.01051   0.07371   0.08794   0.10200   0.11193
 Alpha virt. eigenvalues --    0.12142   0.13555   0.14641   0.14971   0.16140
 Alpha virt. eigenvalues --    0.17219   0.17619   0.17781   0.20126   0.21036

 Mulliken charges:
               1
     1  C   -0.415866
     2  C   -0.075410
     3  C   -0.077652
     4  C   -0.423330
     5  C    0.094588
     6  C   -0.157819
     7  O   -0.255925
     8  C    0.440005
     9  O   -0.349090
    10  H    0.128078
    11  H    0.129489
    12  H    0.117442
    13  H    0.109194
    14  H    0.091861
    15  H    0.150862
    16  H    0.124428
    17  H    0.119604
    18  H    0.125102
    19  H    0.124438
 Sum of Mulliken charges =   0.00000

 Dipole moment (field-independent basis, Debye):
    X=              3.7266    Y=             -1.5192    Z=              1.6305  Tot=              4.3421
 Quadrupole moment (field-independent basis, Debye-Ang):
   XX=            -60.0626   YY=            -52.1964   ZZ=            -52.2054
   XY=              1.5130   XZ=             -2.8757   YZ=              1.2853

  Exact polarizability:  81.160  -1.065  81.291  -0.012  -2.930  67.433
 Approx polarizability: 115.381  -1.923 114.884   3.312 -10.368 105.947

                      1                      2                      3
                      A                      A                      A
 Frequencies --    112.5798               123.7706               166.4005
 Red. masses --      4.8435                 4.3293                 2.7808
 Frc consts  --      0.0362                 0.0391                 0.0454
 IR Inten    --      2.1103                 2.3655                 3.4712

                      4                      5                      6
                      A                      A                      A
 Frequencies --    197.7085               211.6473               218.6305
 Red. masses --      1.5271                 1.2684                 1.3871
 Frc consts  --      0.0352                 0.0335                 0.0391
 IR Inten    --      0.0585                 0.4114                 0.3894

                      7                      8                      9
                      A                      A                      A
 Frequencies --    262.4646               303.4920               401.4775
 Red. masses --      2.3688                 2.4930                 3.6383
 Frc consts  --      0.0961                 0.1353                 0.3455
 IR Inten    --      0.2221                 0.1437                 1.1393

                     10                     11                     12
                      A                      A                      A
 Frequencies --    456.7174               540.3529               636.0138
 Red. masses --      3.0573                 3.3909                 6.7202
 Frc consts  --      0.3757                 0.5833                 1.6016
 IR Inten    --      0.3341                 1.8891                 3.6286

                     13                     14                     15
                      A                      A                      A
 Frequencies --    720.5037               788.7936               801.8936
 Red. masses --      4.7108                 5.2694                 3.2192
 Frc consts  --      1.4408                 1.9317                 1.2196
 IR Inten    --      7.3497                 0.8673                 3.8053

                     16                     17                     18
                      A                      A                      A
 Frequencies --    838.1154               910.4846               952.0490
 Red. masses --      2.2270                 2.1993                 2.7477
 Frc consts  --      0.9217                 1.0742                 1.4674
 IR Inten    --      7.8215                14.7031                59.7391

                     19                     20                     21
                      A                      A                      A
 Frequencies --    999.0242              1018.3365              1050.2723
 Red. masses --      1.3485                 1.3873                 2.2089
 Frc consts  --      0.7930                 0.8476                 1.4356
 IR Inten    --      8.3928                 3.5532                18.9957

                     22                     23                     24
                      A                      A                      A
 Frequencies --   1092.0151              1099.4266              1116.9660
 Red. masses --      2.9351                 1.9306                 2.1380
 Frc consts  --      2.0622                 1.3749                 1.5716
 IR Inten    --    138.6928                 0.2802                16.6075

                     25                     26                     27
                      A                      A                      A
 Frequencies --   1130.0891              1142.6765              1148.1667
 Red. masses --      1.8809                 1.9872                 1.1821
 Frc consts  --      1.4152                 1.5288                 0.9181
 IR Inten    --     22.0394                 4.3686                 0.8230

                     28                     29                     30
                      A                      A                      A
 Frequencies --   1185.7457              1217.3416              1295.5838
 Red. masses --      1.8453                 2.4159                 1.5807
 Frc consts  --      1.5286                 2.1094                 1.5632
 IR Inten    --      0.4464                11.8411                 8.2091

                     31                     32                     33
                      A                      A                      A
 Frequencies --   1340.8965              1355.1641              1417.2415
 Red. masses --      1.3702                 1.6734                 1.2410
 Frc consts  --      1.4516                 1.8106                 1.4687
 IR Inten    --      3.5233                33.1705                 1.6461

                     34                     35                     36
                      A                      A                      A
 Frequencies --   1421.2820              1474.7799              1489.4089
 Red. masses --      1.2270                 2.0642                 1.0449
 Frc consts  --      1.4604                 2.6452                 1.3657
 IR Inten    --      3.6499                14.5263                 2.8259

                     37                     38                     39
                      A                      A                      A
 Frequencies --   1495.0636              1501.3917              1511.5652
 Red. masses --      1.0581                 1.0415                 1.3904
 Frc consts  --      1.3935                 1.3833                 1.8717
 IR Inten    --      9.0119                 8.8659                 2.1785

                     40                     41                     42
                      A                      A                      A
 Frequencies --   1517.9605              1923.0825              3030.9730
 Red. masses --      1.1174                12.6728                 1.0351
 Frc consts  --      1.5170                27.6134                 5.6027
 IR Inten    --      2.6697               395.7738                25.2843

                     43                     44                     45
                      A                      A                      A
 Frequencies --   3036.5438              3061.5814              3097.2767
 Red. masses --      1.0362                 1.0551                 1.1007
 Frc consts  --      5.6292                 5.8271                 6.2214
 IR Inten    --     27.2053                35.0546                17.3633

                     46                     47                     48
                      A                      A                      A
 Frequencies --   3098.0161              3098.3740              3114.8652
 Red. masses --      1.1011                 1.1010                 1.0924
 Frc consts  --      6.2265                 6.2276                 6.2448
 IR Inten    --      1.9262                37.0819                 2.8639

                     49                     50                     51
                      A                      A                      A
 Frequencies --   3119.0247              3129.0560              3139.4174
 Red. masses --      1.1127                 1.0949                 1.0883
 Frc consts  --      6.3780                 6.3160                 6.3195
 IR Inten    --     18.5306                 8.6181                23.5099

 - Thermochemistry -
 -------------------
 Temperature   298.150 Kelvin.  Pressure   1.00000 Atm.
 Atom     1 has atomic number  6 and mass  12.00000

 Molecular mass:   126.06808 amu.
 Principal axes and moments of inertia in atomic units:
                           1         2         3
     Eigenvalues --   835.220531212.609771629.28400
           X            0.99979  -0.00995  -0.01815
           Y            0.01042   0.99960   0.02639
           Z            0.01788  -0.02657   0.99949
 This molecule is an asymmetric top.
 Rotational symmetry number  1.
 Warning -- assumption of classical behavior for rotation
           may cause significant error
 Rotational temperatures (Kelvin)      0.10370     0.07143     0.05316
 Rotational constants (GHZ):           2.16080     1.48831     1.10769
 Zero-point vibrational energy     415772.3 (Joules/Mol)
                                   99.37197 (Kcal/Mol)
 Warning -- explicit consideration of  11 degrees of freedom as
           vibrations may cause significant error
 Vibrational temperatures:    161.98   178.08   239.41   284.46   304.51
          (Kelvin)            314.56   377.63   436.66   577.64   657.11
                              777.45   915.08  1036.64  1134.90  1153.74
                             1205.86  1309.98  1369.78  1437.37  1465.16
                             1511.11  1571.16  1581.83  1607.06  1625.94
                             1644.05  1651.95  1706.02  1751.48  1864.05
                             1929.25  1949.78  2039.09  2044.91  2121.88
                             2142.92  2151.06  2160.17  2174.80  2184.00
                             2766.88  4360.89  4368.90  4404.93  4456.28
                             4457.35  4457.86  4481.59  4487.58  4502.01
                             4516.92

 Zero-point correction=                           0.158359 (Hartree/Particle)
 Thermal correction to Energy=                    0.167411
 Thermal correction to Enthalpy=                  0.168355
 Thermal correction to Gibbs Free Energy=         0.124681
 Sum of electronic and zero-point Energies=           -423.048996
 Sum of electronic and thermal Energies=              -423.039944
 Sum of electronic and thermal Enthalpies=            -423.039000
 Sum of electronic and thermal Free Energies=         -423.082674

                     E (Thermal)             CV                S
                      KCal/Mol        Cal/Mol-Kelvin    Cal/Mol-Kelvin
 Total                  105.052             33.263             91.919
 Electronic               0.000              0.000              0.000
 Translational            0.889              2.981             40.409
 Rotational               0.889              2.981             28.891
 Vibrational            103.275             27.301             22.620
 Vibration     1          0.607              1.939              3.224
 Vibration     2          0.610              1.929              3.041
 Vibration     3          0.624              1.884              2.476
 Vibration     4          0.637              1.843              2.154
 Vibration     5          0.643              1.823              2.029
 Vibration     6          0.646              1.813              1.970
 Vibration     7          0.670              1.742              1.645
 Vibration     8          0.695              1.667              1.398
 Vibration     9          0.767              1.467              0.957
 Vibration    10          0.815              1.346              0.776
 Vibration    11          0.895              1.161              0.565

 Optimization completed.
    -- Stationary point found.
 Normal termination of Gaussian 09 at Mon Jan 27 22:46:58 2020.
