 Gaussian 09, Revision D.01,
 Gaussian 09:  ES64L-G09RevD.01 24-Apr-2013

 -----------------------------
 # b3lyp 6-31G(2df,p) opt Freq
 -----------------------------

 -----
 titel
 -----
 Symbolic Z-matrix:
 Charge =  0 Multiplicity = 1

 SCF Done:  E(RB3LYP) =  -423.163966550     A.U. after   14 cycles
 Optimization completed.
    -- Stationary point found.
 Normal termination of Gaussian 09 at Tue Jan 28 09:22:45 2020.

 ----------------------------------------------------------------------
 #N Geom=AllCheck Guess=TCheck SCRF=Check GenChk RB3LYP/6-31G(2df,p) Fr
 eq
 ----------------------------------------------------------------------

 Structure from the checkpoint file:  "/scratch/puck/g09_89f320e2-16de-4be5-a249-fc1367bc56d6/Gau-82386.chk"
 -----
 titel
 -----
 Charge =  0 Multiplicity = 1

                         Standard orientation:
 ---------------------------------------------------------------------
 Center     Atomic      Atomic             Coordinates (Angstroms)
 Number     Number       Type             X           Y           Z
 ---------------------------------------------------------------------
      1          6           0        1.049006    2.190972   -0.089132
      2          8           0        0.738470    1.108647    0.789055
      3          6           0        0.019242    0.112855    0.181723
      4          6           0        0.701202   -1.070510   -0.533813
      5          6           0        2.200260   -1.181639   -0.348864
      6          6           0       -0.190682   -1.352313    0.633131
      7          6           0       -1.654058   -1.321925    0.166229
      8          6           0       -1.432711    0.173951   -0.197087
      9          8           0       -2.178501    1.074532   -0.465666
     10          1           0        0.134560    2.653857   -0.474924
     11          1           0        1.608015    2.919504    0.501112
     12          1           0        1.668036    1.855317   -0.931550
     13          1           0        0.342371   -1.359637   -1.520704
     14          1           0        2.507381   -0.793777    0.625213
     15          1           0        2.517268   -2.227177   -0.420847
     16          1           0        2.736773   -0.617139   -1.117906
     17          1           0        0.166895   -1.797027    1.552603
     18          1           0       -1.924396   -2.005041   -0.644395
     19          1           0       -2.390210   -1.402662    0.971156
 ---------------------------------------------------------------------

 SCF Done:  E(RB3LYP) =  -423.163966550     A.U. after    1 cycles

 The electronic state is 1-A.
 Alpha  occ. eigenvalues --  -19.15942 -19.13125 -10.26739 -10.24769 -10.22891
 Alpha  occ. eigenvalues --  -10.21026 -10.20973 -10.19709 -10.18787  -1.05736
 Alpha  occ. eigenvalues --   -1.03667  -0.90373  -0.76084  -0.71046  -0.67501
 Alpha  occ. eigenvalues --   -0.62903  -0.57991  -0.53485  -0.50140  -0.47274
 Alpha  occ. eigenvalues --   -0.45975  -0.45025  -0.44164  -0.42612  -0.41227
 Alpha  occ. eigenvalues --   -0.39910  -0.38826  -0.37427  -0.36050  -0.35360
 Alpha  occ. eigenvalues --   -0.31711  -0.28750  -0.26313  -0.22826
 Alpha virt. eigenvalues --   -0.01123   0.08188   0.10036   0.11041   0.11458
 Alpha virt. eigenvalues --    0.12782   0.13691   0.15427   0.15849   0.16875
 Alpha virt. eigenvalues --    0.17193   0.17393   0.18622   0.19916   0.20647

 Mulliken charges:
               1
     1  C   -0.268115
     2  O   -0.281948
     3  C    0.327591
     4  C   -0.082966
     5  C   -0.425864
     6  C   -0.156997
     7  C   -0.364666
     8  C    0.351105
     9  O   -0.327418
    10  H    0.147649
    11  H    0.130527
    12  H    0.112480
    13  H    0.089080
    14  H    0.136639
    15  H    0.123413
    16  H    0.123869
    17  H    0.112098
    18  H    0.119220
    19  H    0.134303
 Sum of Mulliken charges =   0.00000

 Dipole moment (field-independent basis, Debye):
    X=              2.0996    Y=             -1.7607    Z=             -0.2404  Tot=              2.7507
 Quadrupole moment (field-independent basis, Debye-Ang):
   XX=            -56.7239   YY=            -51.0882   ZZ=            -52.9303
   XY=              5.2412   XZ=             -2.8495   YZ=             -0.6993

  Exact polarizability:  86.644  -0.299  84.210  -1.184  -1.961  61.022
 Approx polarizability: 118.519  -7.448 123.472   1.424  -4.678  98.260

                      1                      2                      3
                      A                      A                      A
 Frequencies --     79.0840               104.0255               160.6596
 Red. masses --      2.7929                 4.5643                 1.1263
 Frc consts  --      0.0103                 0.0291                 0.0171
 IR Inten    --      5.6270                 3.4678                 0.1381

                      4                      5                      6
                      A                      A                      A
 Frequencies --    173.3652               199.6894               241.7589
 Red. masses --      1.0899                 2.7860                 2.8824
 Frc consts  --      0.0193                 0.0655                 0.0993
 IR Inten    --      0.8303                 2.9647                 2.9094

                      7                      8                      9
                      A                      A                      A
 Frequencies --    270.9787               298.0007               376.9617
 Red. masses --      2.2247                 5.1584                 3.8817
 Frc consts  --      0.0962                 0.2699                 0.3250
 IR Inten    --      0.6057                 3.5778                 0.1384

                     10                     11                     12
                      A                      A                      A
 Frequencies --    474.2094               529.7649               576.1888
 Red. masses --      3.0693                 3.3499                 3.6513
 Frc consts  --      0.4067                 0.5539                 0.7142
 IR Inten    --      1.1673                 5.4968                 6.8208

                     13                     14                     15
                      A                      A                      A
 Frequencies --    652.0621               710.8112               799.7710
 Red. masses --      3.3413                 3.9111                 3.0082
 Frc consts  --      0.8370                 1.1643                 1.1337
 IR Inten    --      1.3737                13.3870                 7.8794

                     16                     17                     18
                      A                      A                      A
 Frequencies --    839.2116               925.0725               958.5150
 Red. masses --      3.1333                 1.8354                 2.0914
 Frc consts  --      1.3001                 0.9254                 1.1321
 IR Inten    --      6.1462                 1.4966                35.0865

                     19                     20                     21
                      A                      A                      A
 Frequencies --    991.4304              1008.4672              1017.4760
 Red. masses --      1.5720                 2.1995                 3.4514
 Frc consts  --      0.9104                 1.3179                 2.1052
 IR Inten    --     11.5179                 8.9497                 4.9918

                     22                     23                     24
                      A                      A                      A
 Frequencies --   1034.3135              1053.3022              1100.2249
 Red. masses --      1.7272                 2.8077                 1.7999
 Frc consts  --      1.0887                 1.8353                 1.2837
 IR Inten    --     27.0590                38.1148                54.3232

                     25                     26                     27
                      A                      A                      A
 Frequencies --   1138.5531              1161.8946              1179.6898
 Red. masses --      1.5610                 1.7281                 1.2923
 Frc consts  --      1.1922                 1.3745                 1.0596
 IR Inten    --      3.3784                11.5770                 3.4782

                     28                     29                     30
                      A                      A                      A
 Frequencies --   1201.3621              1214.0442              1243.2918
 Red. masses --      1.5885                 1.4981                 1.9368
 Frc consts  --      1.3508                 1.3010                 1.7639
 IR Inten    --     15.1421                 2.3960                 9.3992

                     31                     32                     33
                      A                      A                      A
 Frequencies --   1268.3211              1354.5668              1405.9360
 Red. masses --      1.7275                 2.7877                 2.2185
 Frc consts  --      1.6373                 3.0137                 2.5837
 IR Inten    --      6.2411                75.1425                13.7876

                     34                     35                     36
                      A                      A                      A
 Frequencies --   1416.5717              1459.9150              1483.8165
 Red. masses --      1.2724                 1.1180                 1.1486
 Frc consts  --      1.5043                 1.4039                 1.4900
 IR Inten    --      2.7546                 6.4847                 5.1901

                     37                     38                     39
                      A                      A                      A
 Frequencies --   1486.9678              1492.6992              1501.3973
 Red. masses --      1.1645                 1.0699                 1.0627
 Frc consts  --      1.5170                 1.4045                 1.4114
 IR Inten    --      7.2628                 5.5149                 3.1781

                     40                     41                     42
                      A                      A                      A
 Frequencies --   1510.3597              1869.7486              3010.9944
 Red. masses --      1.0507                12.7380                 1.0367
 Frc consts  --      1.4122                26.2373                 5.5375
 IR Inten    --     12.7965               330.5940                43.2537

                     43                     44                     45
                      A                      A                      A
 Frequencies --   3039.9601              3054.8827              3084.9761
 Red. masses --      1.0363                 1.0582                 1.0990
 Frc consts  --      5.6425                 5.8185                 6.1623
 IR Inten    --     29.2830                21.0137                29.8615

                     46                     47                     48
                      A                      A                      A
 Frequencies --   3099.8043              3104.6191              3111.5387
 Red. masses --      1.1011                 1.0893                 1.1062
 Frc consts  --      6.2335                 6.1862                 6.3103
 IR Inten    --     19.4338                 7.9107                11.7525

                     49                     50                     51
                      A                      A                      A
 Frequencies --   3129.4605              3134.5321              3206.1919
 Red. masses --      1.0994                 1.1029                 1.0934
 Frc consts  --      6.3437                 6.3845                 6.6222
 IR Inten    --     18.9667                22.6132                 3.8037

 - Thermochemistry -
 -------------------
 Temperature   298.150 Kelvin.  Pressure   1.00000 Atm.
 Atom     1 has atomic number  6 and mass  12.00000

 Molecular mass:   126.06808 amu.
 Principal axes and moments of inertia in atomic units:
                           1         2         3
     Eigenvalues --   853.555581031.558791645.17523
           X            0.99454   0.10212  -0.02163
           Y           -0.10230   0.99473  -0.00728
           Z            0.02077   0.00945   0.99974
 This molecule is an asymmetric top.
 Rotational symmetry number  1.
 Warning -- assumption of classical behavior for rotation
           may cause significant error
 Rotational temperatures (Kelvin)      0.10147     0.08396     0.05265
 Rotational constants (GHZ):           2.11438     1.74953     1.09699
 Zero-point vibrational energy     412361.4 (Joules/Mol)
                                   98.55674 (Kcal/Mol)
 Warning -- explicit consideration of  12 degrees of freedom as
           vibrations may cause significant error
 Vibrational temperatures:    113.78   149.67   231.15   249.43   287.31
          (Kelvin)            347.84   389.88   428.76   542.36   682.28
                              762.21   829.01   938.17  1022.70  1150.69
                             1207.44  1330.97  1379.09  1426.45  1450.96
                             1463.92  1488.14  1515.46  1582.98  1638.12
                             1671.71  1697.31  1728.49  1746.74  1788.82
                             1824.83  1948.92  2022.83  2038.13  2100.49
                             2134.88  2139.41  2147.66  2160.17  2173.07
                             2690.15  4332.14  4373.82  4395.29  4438.59
                             4459.92  4466.85  4476.80  4502.59  4509.89
                             4612.99

 Zero-point correction=                           0.157060 (Hartree/Particle)
 Thermal correction to Energy=                    0.166366
 Thermal correction to Enthalpy=                  0.167310
 Thermal correction to Gibbs Free Energy=         0.122930
 Sum of electronic and zero-point Energies=           -423.006906
 Sum of electronic and thermal Energies=              -422.997601
 Sum of electronic and thermal Enthalpies=            -422.996657
 Sum of electronic and thermal Free Energies=         -423.041037

                     E (Thermal)             CV                S
                      KCal/Mol        Cal/Mol-Kelvin    Cal/Mol-Kelvin
 Total                  104.396             33.927             93.406
 Electronic               0.000              0.000              0.000
 Translational            0.889              2.981             40.409
 Rotational               0.889              2.981             28.762
 Vibrational            102.619             27.965             24.235
 Vibration     1          0.600              1.963              3.913
 Vibration     2          0.605              1.946              3.377
 Vibration     3          0.622              1.891              2.542
 Vibration     4          0.627              1.875              2.399
 Vibration     5          0.638              1.840              2.136
 Vibration     6          0.658              1.776              1.790
 Vibration     7          0.675              1.727              1.590
 Vibration     8          0.691              1.677              1.428
 Vibration     9          0.748              1.519              1.051
 Vibration    10          0.831              1.307              0.726
 Vibration    11          0.885              1.184              0.588
 Vibration    12          0.933              1.083              0.492

 Optimization completed.
    -- Stationary point found.
 Normal termination of Gaussian 09 at Tue Jan 28 10:18:36 2020.
