 Gaussian 09, Revision D.01,
 Gaussian 09:  ES64L-G09RevD.01 24-Apr-2013

 -----------------------------
 # b3lyp 6-31G(2df,p) opt Freq
 -----------------------------

 -----
 titel
 -----
 Symbolic Z-matrix:
 Charge =  0 Multiplicity = 1

 SCF Done:  E(RB3LYP) =  -423.152357241     A.U. after   14 cycles
 Optimization completed.
    -- Stationary point found.
 Normal termination of Gaussian 09 at Tue Jan 28 09:08:25 2020.

 ----------------------------------------------------------------------
 #N Geom=AllCheck Guess=TCheck SCRF=Check GenChk RB3LYP/6-31G(2df,p) Fr
 eq
 ----------------------------------------------------------------------

 Structure from the checkpoint file:  "/scratch/puck/g09_7123e33c-d646-4578-b226-463cffc19ea6/Gau-20204.chk"
 -----
 titel
 -----
 Charge =  0 Multiplicity = 1

                         Standard orientation:
 ---------------------------------------------------------------------
 Center     Atomic      Atomic             Coordinates (Angstroms)
 Number     Number       Type             X           Y           Z
 ---------------------------------------------------------------------
      1          6           0       -2.558071   -0.741016    0.361996
      2          6           0       -1.415535   -0.831378   -0.650514
      3          6           0       -0.152307   -0.092525   -0.215551
      4          8           0        0.866315   -0.314987   -1.177011
      5          6           0        2.112960   -0.239457   -0.491275
      6          6           0        1.736718   -0.389779    1.005712
      7          8           0        0.340456   -0.660741    0.983687
      8          6           0       -0.372343    1.363946   -0.041725
      9          6           0       -0.538367    2.546464    0.096539
     10          1           0       -3.427858   -1.298666    0.003469
     11          1           0       -2.256441   -1.159102    1.325900
     12          1           0       -2.863768    0.296948    0.522366
     13          1           0       -1.115746   -1.871438   -0.811143
     14          1           0       -1.718474   -0.421581   -1.619159
     15          1           0        2.747795   -1.050402   -0.858723
     16          1           0        2.610303    0.718011   -0.686833
     17          1           0        2.234102   -1.227854    1.499143
     18          1           0        1.946507    0.531103    1.563774
     19          1           0       -0.688913    3.591277    0.216710
 ---------------------------------------------------------------------

 SCF Done:  E(RB3LYP) =  -423.152357241     A.U. after    1 cycles

 The electronic state is 1-A.
 Alpha  occ. eigenvalues --  -19.15241 -19.14961 -10.30231 -10.23653 -10.23563
 Alpha  occ. eigenvalues --  -10.18421 -10.18325 -10.18069 -10.17114  -1.09502
 Alpha  occ. eigenvalues --   -0.99743  -0.80985  -0.74580  -0.73611  -0.65609
 Alpha  occ. eigenvalues --   -0.63405  -0.60796  -0.53961  -0.50691  -0.50068
 Alpha  occ. eigenvalues --   -0.47894  -0.46791  -0.42962  -0.42074  -0.40710
 Alpha  occ. eigenvalues --   -0.36564  -0.35507  -0.35159  -0.34038  -0.33452
 Alpha  occ. eigenvalues --   -0.29438  -0.27775  -0.27437  -0.25792
 Alpha virt. eigenvalues --    0.03916   0.04148   0.09054   0.11205   0.12189
 Alpha virt. eigenvalues --    0.12606   0.12815   0.15507   0.15668   0.15874
 Alpha virt. eigenvalues --    0.16769   0.17961   0.20086   0.21799   0.22743

 Mulliken charges:
               1
     1  C   -0.392879
     2  C   -0.231974
     3  C    0.229674
     4  O   -0.268250
     5  C   -0.110669
     6  C   -0.115646
     7  O   -0.256072
     8  C    0.367808
     9  C   -0.487149
    10  H    0.113364
    11  H    0.135094
    12  H    0.128614
    13  H    0.111118
    14  H    0.116987
    15  H    0.117620
    16  H    0.111264
    17  H    0.119405
    18  H    0.112383
    19  H    0.199308
 Sum of Mulliken charges =   0.00000

 Dipole moment (field-independent basis, Debye):
    X=              0.9752    Y=              0.4578    Z=              0.4172  Tot=              1.1553
 Quadrupole moment (field-independent basis, Debye-Ang):
   XX=            -47.4687   YY=            -48.5092   ZZ=            -56.5993
   XY=             -0.9375   XZ=              2.2554   YZ=              0.9010

  Exact polarizability:  82.196  -3.653  86.357   1.196   2.127  61.140
 Approx polarizability: 103.039  -7.139 134.825   1.108   4.387  92.297

                      1                      2                      3
                      A                      A                      A
 Frequencies --     42.4776                95.2195               121.9502
 Red. masses --      1.8997                 2.3370                 3.4018
 Frc consts  --      0.0020                 0.0125                 0.0298
 IR Inten    --      1.1428                 0.2875                 1.4864

                      4                      5                      6
                      A                      A                      A
 Frequencies --    169.4263               195.3182               206.6647
 Red. masses --      2.6501                 2.6289                 2.0889
 Frc consts  --      0.0448                 0.0591                 0.0526
 IR Inten    --      3.5610                 0.9885                 0.6603

                      7                      8                      9
                      A                      A                      A
 Frequencies --    263.4468               393.3048               416.9382
 Red. masses --      1.9043                 3.7247                 3.5712
 Frc consts  --      0.0779                 0.3395                 0.3658
 IR Inten    --      3.3793                 9.2531                 2.1838

                     10                     11                     12
                      A                      A                      A
 Frequencies --    527.1531               571.1411               642.1757
 Red. masses --      8.6363                 6.6287                 3.5631
 Frc consts  --      1.4140                 1.2740                 0.8657
 IR Inten    --      6.8554                 2.1812                 2.3789

                     13                     14                     15
                      A                      A                      A
 Frequencies --    652.9947               660.0588               738.8635
 Red. masses --      1.2814                 1.2504                 5.0945
 Frc consts  --      0.3219                 0.3210                 1.6386
 IR Inten    --     35.5743                35.9326                 1.2910

                     16                     17                     18
                      A                      A                      A
 Frequencies --    773.5884               805.8773               849.0904
 Red. masses --      1.6041                 2.7954                 1.3116
 Frc consts  --      0.5656                 1.0696                 0.5571
 IR Inten    --      1.1321                 0.1074                 0.4792

                     19                     20                     21
                      A                      A                      A
 Frequencies --    940.3916               946.5721               967.0782
 Red. masses --      2.2329                 2.8507                 1.8686
 Frc consts  --      1.1634                 1.5049                 1.0296
 IR Inten    --     64.3391                17.7507                43.9052

                     22                     23                     24
                      A                      A                      A
 Frequencies --   1001.4989              1067.4528              1071.3381
 Red. masses --      4.2524                 6.8559                 6.2745
 Frc consts  --      2.5129                 4.6027                 4.2431
 IR Inten    --     18.5443                16.4178               145.7983

                     25                     26                     27
                      A                      A                      A
 Frequencies --   1118.7679              1162.2940              1184.4831
 Red. masses --      2.3611                 1.7635                 2.3211
 Frc consts  --      1.7411                 1.4036                 1.9187
 IR Inten    --     51.9155                 9.3734                69.4619

                     28                     29                     30
                      A                      A                      A
 Frequencies --   1216.6227              1236.9982              1246.0160
 Red. masses --      2.2669                 1.1604                 1.3646
 Frc consts  --      1.9769                 1.0462                 1.2483
 IR Inten    --     60.5437                 8.6449                18.2200

                     31                     32                     33
                      A                      A                      A
 Frequencies --   1300.2310              1359.5490              1370.8281
 Red. masses --      1.2361                 1.5762                 1.3179
 Frc consts  --      1.2313                 1.7166                 1.4592
 IR Inten    --     23.1593                 4.4977                 0.9973

                     34                     35                     36
                      A                      A                      A
 Frequencies --   1380.9966              1410.8555              1474.1109
 Red. masses --      1.3901                 1.2396                 1.0775
 Frc consts  --      1.5620                 1.4538                 1.3795
 IR Inten    --      3.9199                 3.5067                 1.2923

                     37                     38                     39
                      A                      A                      A
 Frequencies --   1496.9964              1509.9751              1514.6580
 Red. masses --      1.0378                 1.0598                 1.0893
 Frc consts  --      1.3702                 1.4237                 1.4725
 IR Inten    --      3.4163                 5.2010                 0.6718

                     40                     41                     42
                      A                      A                      A
 Frequencies --   1528.9164              2225.8097              3023.9394
 Red. masses --      1.0906                 5.8698                 1.0666
 Frc consts  --      1.5021                17.1335                 5.7462
 IR Inten    --      0.3756                 6.5161                27.9513

                     43                     44                     45
                      A                      A                      A
 Frequencies --   3035.6566              3047.3919              3055.2372
 Red. masses --      1.0624                 1.0349                 1.0594
 Frc consts  --      5.7684                 5.6626                 5.8262
 IR Inten    --     75.3245                19.0897                13.3251

                     46                     47                     48
                      A                      A                      A
 Frequencies --   3083.6713              3097.5153              3107.2543
 Red. masses --      1.1004                 1.1030                 1.1025
 Frc consts  --      6.1651                 6.2352                 6.2718
 IR Inten    --     11.0196                 4.1788                44.9296

                     49                     50                     51
                      A                      A                      A
 Frequencies --   3117.0071              3128.4301              3498.0387
 Red. masses --      1.1013                 1.1028                 1.1627
 Frc consts  --      6.3045                 6.3593                 8.3824
 IR Inten    --     27.9305                25.4873                57.6474

 - Thermochemistry -
 -------------------
 Temperature   298.150 Kelvin.  Pressure   1.00000 Atm.
 Atom     1 has atomic number  6 and mass  12.00000

 Molecular mass:   126.06808 amu.
 Principal axes and moments of inertia in atomic units:
                           1         2         3
     Eigenvalues --   788.043411200.959921479.57625
           X            0.99943   0.03308   0.00667
           Y           -0.03316   0.99937   0.01268
           Z           -0.00625  -0.01289   0.99990
 This molecule is an asymmetric top.
 Rotational symmetry number  1.
 Warning -- assumption of classical behavior for rotation
           may cause significant error
 Rotational temperatures (Kelvin)      0.10991     0.07212     0.05854
 Rotational constants (GHZ):           2.29015     1.50275     1.21977
 Zero-point vibrational energy     413024.3 (Joules/Mol)
                                   98.71518 (Kcal/Mol)
 Warning -- explicit consideration of  11 degrees of freedom as
           vibrations may cause significant error
 Vibrational temperatures:     61.12   137.00   175.46   243.77   281.02
          (Kelvin)            297.34   379.04   565.88   599.88   758.45
                              821.74   923.95   939.51   949.68  1063.06
                             1113.02  1159.48  1221.65  1353.01  1361.90
                             1391.41  1440.93  1535.82  1541.41  1609.66
                             1672.28  1704.20  1750.45  1779.76  1792.74
                             1870.74  1956.09  1972.31  1986.94  2029.90
                             2120.91  2153.84  2172.51  2179.25  2199.77
                             3202.44  4350.77  4367.63  4384.51  4395.80
                             4436.71  4456.63  4470.64  4484.67  4501.11
                             5032.89

 Zero-point correction=                           0.157313 (Hartree/Particle)
 Thermal correction to Energy=                    0.166746
 Thermal correction to Enthalpy=                  0.167691
 Thermal correction to Gibbs Free Energy=         0.122466
 Sum of electronic and zero-point Energies=           -422.995045
 Sum of electronic and thermal Energies=              -422.985611
 Sum of electronic and thermal Enthalpies=            -422.984667
 Sum of electronic and thermal Free Energies=         -423.029891

                     E (Thermal)             CV                S
                      KCal/Mol        Cal/Mol-Kelvin    Cal/Mol-Kelvin
 Total                  104.635             34.294             95.183
 Electronic               0.000              0.000              0.000
 Translational            0.889              2.981             40.409
 Rotational               0.889              2.981             28.728
 Vibrational            102.857             28.332             26.047
 Vibration     1          0.595              1.980              5.140
 Vibration     2          0.603              1.953              3.550
 Vibration     3          0.609              1.931              3.069
 Vibration     4          0.625              1.880              2.442
 Vibration     5          0.636              1.846              2.177
 Vibration     6          0.641              1.830              2.073
 Vibration     7          0.670              1.740              1.639
 Vibration     8          0.761              1.484              0.988
 Vibration     9          0.780              1.433              0.902
 Vibration    10          0.882              1.190              0.594
 Vibration    11          0.927              1.094              0.502

 Optimization completed.
    -- Stationary point found.
 Normal termination of Gaussian 09 at Tue Jan 28 09:50:51 2020.
