 Gaussian 09, Revision D.01,
 Gaussian 09:  ES64L-G09RevD.01 24-Apr-2013

 -----------------------------
 # b3lyp 6-31G(2df,p) opt Freq
 -----------------------------

 -----
 titel
 -----
 Symbolic Z-matrix:
 Charge =  0 Multiplicity = 1

 SCF Done:  E(RB3LYP) =  -423.132709599     A.U. after   14 cycles
 Optimization completed.
    -- Stationary point found.
 Normal termination of Gaussian 09 at Tue Jan 28 08:12:22 2020.

 ----------------------------------------------------------------------
 #N Geom=AllCheck Guess=TCheck SCRF=Check GenChk RB3LYP/6-31G(2df,p) Fr
 eq
 ----------------------------------------------------------------------

 Structure from the checkpoint file:  "/scratch/puck/g09_c25beb63-ae43-41c5-b521-9fffff2e69eb/Gau-101894.chk"
 -----
 titel
 -----
 Charge =  0 Multiplicity = 1

                         Standard orientation:
 ---------------------------------------------------------------------
 Center     Atomic      Atomic             Coordinates (Angstroms)
 Number     Number       Type             X           Y           Z
 ---------------------------------------------------------------------
      1          8           0        3.593479   -0.582157    0.530005
      2          6           0        2.937617    0.095813   -0.532712
      3          6           0        1.491300    0.214469   -0.353414
      4          6           0        0.302848    0.319725   -0.174323
      5          6           0       -1.130036    0.461349    0.063238
      6          8           0       -1.492931    1.811681    0.288406
      7          6           0       -2.014474   -0.211031   -1.027425
      8          6           0       -2.128754   -1.468811   -0.127584
      9          6           0       -1.677055   -0.604647    1.078320
     10          1           0        3.328712   -0.155261    1.351371
     11          1           0        3.364409    1.098991   -0.693729
     12          1           0        3.156593   -0.485924   -1.435082
     13          1           0       -0.809900    2.218302    0.832216
     14          1           0       -2.958477    0.336114   -1.090051
     15          1           0       -1.585073   -0.314116   -2.024835
     16          1           0       -3.107654   -1.945964   -0.060678
     17          1           0       -1.385475   -2.225961   -0.387378
     18          1           0       -2.525458   -0.169827    1.612884
     19          1           0       -0.970727   -1.033749    1.791392
 ---------------------------------------------------------------------

 SCF Done:  E(RB3LYP) =  -423.132709599     A.U. after    1 cycles

 The electronic state is 1-A.
 Alpha  occ. eigenvalues --  -19.14373 -19.14152 -10.25770 -10.25543 -10.18350
 Alpha  occ. eigenvalues --  -10.18335 -10.18299 -10.18252 -10.18073  -1.02671
 Alpha  occ. eigenvalues --   -1.02547  -0.84355  -0.76965  -0.70508  -0.66492
 Alpha  occ. eigenvalues --   -0.65147  -0.57471  -0.53746  -0.52374  -0.48823
 Alpha  occ. eigenvalues --   -0.47325  -0.45071  -0.44669  -0.41069  -0.39294
 Alpha  occ. eigenvalues --   -0.36920  -0.35582  -0.33872  -0.32958  -0.31781
 Alpha  occ. eigenvalues --   -0.29021  -0.27842  -0.26408  -0.25177
 Alpha virt. eigenvalues --    0.02667   0.03163   0.08969   0.10009   0.11218
 Alpha virt. eigenvalues --    0.11746   0.12708   0.13767   0.15684   0.17445
 Alpha virt. eigenvalues --    0.18285   0.18579   0.20033   0.21213   0.22059

 Mulliken charges:
               1
     1  O   -0.400448
     2  C   -0.194422
     3  C    0.002138
     4  C    0.045201
     5  C    0.254528
     6  O   -0.463086
     7  C   -0.248952
     8  C   -0.209652
     9  C   -0.266003
    10  H    0.286135
    11  H    0.119612
    12  H    0.143367
    13  H    0.278175
    14  H    0.117100
    15  H    0.107597
    16  H    0.103016
    17  H    0.114408
    18  H    0.110590
    19  H    0.100695
 Sum of Mulliken charges =   0.00000

 Dipole moment (field-independent basis, Debye):
    X=              0.0706    Y=              0.5136    Z=              0.7861  Tot=              0.9417
 Quadrupole moment (field-independent basis, Debye-Ang):
   XX=            -56.5737   YY=            -54.5042   ZZ=            -49.3886
   XY=              7.1737   XZ=             -0.0809   YZ=              2.7933

  Exact polarizability: 108.285   1.105  67.875  -2.764   0.978  67.557
 Approx polarizability: 152.329  -5.915  97.781  -5.760   2.170  97.767

                      1                      2                      3
                      A                      A                      A
 Frequencies --     27.4352                78.3204                93.0934
 Red. masses --      3.1253                 3.6296                 3.0851
 Frc consts  --      0.0014                 0.0131                 0.0158
 IR Inten    --      1.9891                 1.0015                 0.2115

                      4                      5                      6
                      A                      A                      A
 Frequencies --    154.9619               192.4413               243.3419
 Red. masses --      2.3009                 3.2821                 1.2083
 Frc consts  --      0.0326                 0.0716                 0.0422
 IR Inten    --      0.3416                 2.7412               115.1406

                      7                      8                      9
                      A                      A                      A
 Frequencies --    275.8720               327.3498               344.4413
 Red. masses --      1.6776                 1.9982                 2.7843
 Frc consts  --      0.0752                 0.1262                 0.1946
 IR Inten    --     23.2249                68.0309                 7.3225

                     10                     11                     12
                      A                      A                      A
 Frequencies --    369.4682               498.8614               523.6242
 Red. masses --      2.9241                 5.9128                 4.5603
 Frc consts  --      0.2352                 0.8670                 0.7367
 IR Inten    --     29.2070                23.4140                 4.7210

                     13                     14                     15
                      A                      A                      A
 Frequencies --    564.5947               632.9317               678.3520
 Red. masses --      5.0466                 5.3076                 1.7170
 Frc consts  --      0.9478                 1.2527                 0.4655
 IR Inten    --      1.1941                 3.5470                 5.3341

                     16                     17                     18
                      A                      A                      A
 Frequencies --    793.4334               818.6490               900.3719
 Red. masses --      1.2497                 2.0162                 2.2202
 Frc consts  --      0.4635                 0.7961                 1.0604
 IR Inten    --      0.4771                 2.4008                 0.6589

                     19                     20                     21
                      A                      A                      A
 Frequencies --    934.2802               971.9116               982.0180
 Red. masses --      2.5987                 2.7316                 1.8220
 Frc consts  --      1.3365                 1.5203                 1.0352
 IR Inten    --      0.5097                24.4815                25.4821

                     22                     23                     24
                      A                      A                      A
 Frequencies --   1002.4548              1022.3703              1041.8809
 Red. masses --      3.3304                 3.2400                 1.1080
 Frc consts  --      1.9718                 1.9953                 0.7086
 IR Inten    --     21.0237                10.2099                 0.8108

                     25                     26                     27
                      A                      A                      A
 Frequencies --   1067.3553              1130.7646              1195.6840
 Red. masses --      4.5215                 4.1279                 1.4506
 Frc consts  --      3.0350                 3.1098                 1.2219
 IR Inten    --    111.2951                91.9936                 1.2432

                     28                     29                     30
                      A                      A                      A
 Frequencies --   1201.5822              1214.8456              1245.8213
 Red. masses --      1.7915                 1.0879                 1.2481
 Frc consts  --      1.5240                 0.9460                 1.1413
 IR Inten    --     10.5424                16.2369                 0.3929

                     31                     32                     33
                      A                      A                      A
 Frequencies --   1259.5534              1275.0322              1290.2556
 Red. masses --      1.4818                 1.3641                 1.7483
 Frc consts  --      1.3850                 1.3065                 1.7148
 IR Inten    --      5.1822                 0.8386                28.2824

                     34                     35                     36
                      A                      A                      A
 Frequencies --   1357.7970              1371.3131              1417.1413
 Red. masses --      1.2242                 1.7668                 1.2310
 Frc consts  --      1.3297                 1.9575                 1.4566
 IR Inten    --      6.6456                96.7935                94.9316

                     37                     38                     39
                      A                      A                      A
 Frequencies --   1467.3646              1483.3165              1489.5318
 Red. masses --      1.0881                 1.0865                 1.0777
 Frc consts  --      1.3803                 1.4085                 1.4088
 IR Inten    --      2.1339                 1.2321                 0.7258

                     40                     41                     42
                      A                      A                      A
 Frequencies --   1503.3569              2344.7426              2975.2831
 Red. masses --      1.1303                11.9097                 1.0714
 Frc consts  --      1.5052                38.5782                 5.5881
 IR Inten    --      1.4056                 4.4694                48.6661

                     43                     44                     45
                      A                      A                      A
 Frequencies --   3062.7972              3065.1880              3071.7701
 Red. masses --      1.0881                 1.0566                 1.0568
 Frc consts  --      6.0141                 5.8491                 5.8753
 IR Inten    --     14.9552                34.8976                22.6917

                     46                     47                     48
                      A                      A                      A
 Frequencies --   3075.7261              3117.9636              3130.5268
 Red. masses --      1.0619                 1.1081                 1.1091
 Frc consts  --      5.9188                 6.3473                 6.4043
 IR Inten    --     20.5287                 7.3731                17.1089

                     49                     50                     51
                      A                      A                      A
 Frequencies --   3139.8919              3812.3241              3817.7736
 Red. masses --      1.1083                 1.0661                 1.0663
 Frc consts  --      6.4378                 9.1293                 9.1566
 IR Inten    --     38.8570                18.2735                20.3976

 - Thermochemistry -
 -------------------
 Temperature   298.150 Kelvin.  Pressure   1.00000 Atm.
 Atom     1 has atomic number  8 and mass  15.99491

 Molecular mass:   126.06808 amu.
 Principal axes and moments of inertia in atomic units:
                           1         2         3
     Eigenvalues --   585.196412299.269072496.05873
           X            0.99978   0.02065  -0.00290
           Y           -0.02061   0.99972   0.01202
           Z            0.00314  -0.01195   0.99992
 This molecule is an asymmetric top.
 Rotational symmetry number  1.
 Warning -- assumption of classical behavior for rotation
           may cause significant error
 Rotational temperatures (Kelvin)      0.14801     0.03767     0.03470
 Rotational constants (GHZ):           3.08399     0.78492     0.72304
 Zero-point vibrational energy     413053.6 (Joules/Mol)
                                   98.72217 (Kcal/Mol)
 Warning -- explicit consideration of  13 degrees of freedom as
           vibrations may cause significant error
 Vibrational temperatures:     39.47   112.69   133.94   222.96   276.88
          (Kelvin)            350.11   396.92   470.98   495.57   531.58
                              717.75   753.38   812.32   910.65   976.00
                             1141.57  1177.85  1295.43  1344.22  1398.36
                             1412.90  1442.31  1470.96  1499.03  1535.68
                             1626.92  1720.32  1728.81  1747.89  1792.46
                             1812.21  1834.48  1856.39  1953.56  1973.01
                             2038.95  2111.21  2134.16  2143.10  2162.99
                             3373.56  4280.76  4406.68  4410.12  4419.59
                             4425.28  4486.05  4504.12  4517.60  5485.08
                             5492.92

 Zero-point correction=                           0.157324 (Hartree/Particle)
 Thermal correction to Energy=                    0.167324
 Thermal correction to Enthalpy=                  0.168268
 Thermal correction to Gibbs Free Energy=         0.121061
 Sum of electronic and zero-point Energies=           -422.975386
 Sum of electronic and thermal Energies=              -422.965386
 Sum of electronic and thermal Enthalpies=            -422.964441
 Sum of electronic and thermal Free Energies=         -423.011649

                     E (Thermal)             CV                S
                      KCal/Mol        Cal/Mol-Kelvin    Cal/Mol-Kelvin
 Total                  104.997             35.830             99.356
 Electronic               0.000              0.000              0.000
 Translational            0.889              2.981             40.409
 Rotational               0.889              2.981             29.597
 Vibrational            103.220             29.868             29.350
 Vibration     1          0.593              1.984              6.007
 Vibration     2          0.600              1.964              3.933
 Vibration     3          0.602              1.954              3.594
 Vibration     4          0.620              1.897              2.610
 Vibration     5          0.634              1.850              2.204
 Vibration     6          0.659              1.774              1.778
 Vibration     7          0.678              1.718              1.559
 Vibration     8          0.711              1.621              1.273
 Vibration     9          0.723              1.587              1.192
 Vibration    10          0.742              1.535              1.082
 Vibration    11          0.854              1.253              0.661
 Vibration    12          0.879              1.198              0.602
 Vibration    13          0.920              1.108              0.515

 Optimization completed.
    -- Stationary point found.
 Normal termination of Gaussian 09 at Tue Jan 28 08:48:32 2020.
