 Gaussian 09, Revision D.01,
 Gaussian 09:  ES64L-G09RevD.01 24-Apr-2013

 -----------------------------
 # b3lyp 6-31G(2df,p) opt Freq
 -----------------------------

 -----
 titel
 -----
 Symbolic Z-matrix:
 Charge =  0 Multiplicity = 1

 SCF Done:  E(RB3LYP) =  -423.138609616     A.U. after   14 cycles
 Optimization completed.
    -- Stationary point found.
 Normal termination of Gaussian 09 at Tue Jan 28 12:40:33 2020.

 ----------------------------------------------------------------------
 #N Geom=AllCheck Guess=TCheck SCRF=Check GenChk RB3LYP/6-31G(2df,p) Fr
 eq
 ----------------------------------------------------------------------

 Structure from the checkpoint file:  "/scratch/puck/g09_45fbed17-2dd6-4a61-a306-6d70002b5fd0/Gau-116069.chk"
 -----
 titel
 -----
 Charge =  0 Multiplicity = 1

                         Standard orientation:
 ---------------------------------------------------------------------
 Center     Atomic      Atomic             Coordinates (Angstroms)
 Number     Number       Type             X           Y           Z
 ---------------------------------------------------------------------
      1          6           0       -0.017465    2.035438   -0.249720
      2          6           0        0.485818    0.636546   -0.037554
      3          6           0        1.297239    0.153032    1.209540
      4          6           0        1.731525   -0.857318    0.110536
      5          8           0        1.654356    0.244517   -0.849985
      6          6           0        0.412425   -1.602617   -0.160572
      7          6           0       -0.448867   -0.587164   -0.269757
      8          6           0       -1.917631   -0.539816   -0.511416
      9          8           0       -2.619243    0.096543    0.559749
     10          1           0       -0.296876    2.182456   -1.298344
     11          1           0       -0.904554    2.207699    0.365592
     12          1           0        0.750910    2.769961    0.004548
     13          1           0        2.093211    0.851183    1.480948
     14          1           0        0.756497   -0.215774    2.084314
     15          1           0        2.677983   -1.395585    0.112617
     16          1           0        0.257926   -2.669462   -0.240482
     17          1           0       -2.148074    0.065299   -1.396227
     18          1           0       -2.303678   -1.552732   -0.698669
     19          1           0       -2.422510   -0.400130    1.361250
 ---------------------------------------------------------------------

 SCF Done:  E(RB3LYP) =  -423.138609616     A.U. after    1 cycles

 The electronic state is 1-A.
 Alpha  occ. eigenvalues --  -19.14266 -19.12336 -10.24352 -10.24011 -10.23675
 Alpha  occ. eigenvalues --  -10.18895 -10.18704 -10.18496 -10.17536  -1.04174
 Alpha  occ. eigenvalues --   -1.02046  -0.81004  -0.74947  -0.72901  -0.67774
 Alpha  occ. eigenvalues --   -0.63777  -0.55712  -0.53264  -0.49453  -0.49241
 Alpha  occ. eigenvalues --   -0.46033  -0.43951  -0.43390  -0.42606  -0.40414
 Alpha  occ. eigenvalues --   -0.38978  -0.37028  -0.34892  -0.33998  -0.32249
 Alpha  occ. eigenvalues --   -0.31594  -0.27837  -0.25051  -0.23051
 Alpha virt. eigenvalues --   -0.00523   0.07575   0.10577   0.11454   0.12484
 Alpha virt. eigenvalues --    0.13128   0.14174   0.15136   0.15875   0.16464
 Alpha virt. eigenvalues --    0.17404   0.18330   0.18884   0.20212   0.22321

 Mulliken charges:
               1
     1  C   -0.517876
     2  C    0.316327
     3  C   -0.252890
     4  C    0.025558
     5  O   -0.316835
     6  C   -0.225981
     7  C    0.309257
     8  C   -0.203875
     9  O   -0.411814
    10  H    0.130229
    11  H    0.142036
    12  H    0.123513
    13  H    0.104427
    14  H    0.086585
    15  H    0.079435
    16  H    0.109019
    17  H    0.121379
    18  H    0.099355
    19  H    0.282153
 Sum of Mulliken charges =   0.00000

 Dipole moment (field-independent basis, Debye):
    X=             -0.2007    Y=             -1.4149    Z=              1.5479  Tot=              2.1067
 Quadrupole moment (field-independent basis, Debye-Ang):
   XX=            -57.7689   YY=            -49.6437   ZZ=            -52.4649
   XY=              1.0093   XZ=              2.7586   YZ=             -0.7046

  Exact polarizability:  84.496  -4.574  80.827   4.111   0.441  63.402
 Approx polarizability: 122.564 -13.819 120.938   1.489  -1.487  99.521

                      1                      2                      3
                      A                      A                      A
 Frequencies --     85.8044               129.1643               189.8008
 Red. masses --      3.6506                 4.1007                 1.0854
 Frc consts  --      0.0158                 0.0403                 0.0230
 IR Inten    --      2.2255                 2.1447                 0.3949

                      4                      5                      6
                      A                      A                      A
 Frequencies --    214.5094               277.8911               339.7977
 Red. masses --      2.1060                 2.8114                 2.4488
 Frc consts  --      0.0571                 0.1279                 0.1666
 IR Inten    --      2.8464                 1.6708                11.8261

                      7                      8                      9
                      A                      A                      A
 Frequencies --    354.8887               427.3183               490.4395
 Red. masses --      1.4324                 2.3535                 2.1132
 Frc consts  --      0.1063                 0.2532                 0.2995
 IR Inten    --     82.0965                38.0767                 1.6988

                     10                     11                     12
                      A                      A                      A
 Frequencies --    540.3281               633.4861               656.5275
 Red. masses --      3.3732                 3.8634                 4.5435
 Frc consts  --      0.5802                 0.9135                 1.1538
 IR Inten    --      5.1044                 2.0217                 6.6991

                     13                     14                     15
                      A                      A                      A
 Frequencies --    689.1658               762.8585               806.7427
 Red. masses --      3.1912                 3.4745                 2.0404
 Frc consts  --      0.8930                 1.1913                 0.7824
 IR Inten    --     14.3046                 7.7480                14.2980

                     16                     17                     18
                      A                      A                      A
 Frequencies --    824.6678               857.2666               899.6948
 Red. masses --      2.7405                 2.1813                 2.4680
 Frc consts  --      1.0981                 0.9445                 1.1770
 IR Inten    --      2.2216                28.9318                10.0055

                     19                     20                     21
                      A                      A                      A
 Frequencies --    911.0789               954.9429               973.1485
 Red. masses --      3.9061                 2.3887                 1.6940
 Frc consts  --      1.9103                 1.2834                 0.9452
 IR Inten    --     18.1314                14.7826                22.2949

                     22                     23                     24
                      A                      A                      A
 Frequencies --   1029.7624              1035.2056              1055.8034
 Red. masses --      1.7085                 3.7601                 1.3287
 Frc consts  --      1.0674                 2.3741                 0.8726
 IR Inten    --      4.7386                44.8530                 5.8820

                     25                     26                     27
                      A                      A                      A
 Frequencies --   1108.2622              1152.9804              1172.3617
 Red. masses --      1.8386                 1.7629                 1.5679
 Frc consts  --      1.3305                 1.3808                 1.2697
 IR Inten    --     15.9096                 3.4481                 7.2188

                     28                     29                     30
                      A                      A                      A
 Frequencies --   1188.6680              1221.3524              1237.7758
 Red. masses --      1.4683                 1.8379                 1.5536
 Frc consts  --      1.2224                 1.6153                 1.4024
 IR Inten    --     27.2823                23.3923                 4.8409

                     31                     32                     33
                      A                      A                      A
 Frequencies --   1261.1072              1295.5346              1329.2139
 Red. masses --      1.5581                 1.7766                 2.6352
 Frc consts  --      1.4600                 1.7569                 2.7431
 IR Inten    --      2.8162                 6.0039                17.2276

                     34                     35                     36
                      A                      A                      A
 Frequencies --   1364.5543              1411.0225              1414.6101
 Red. masses --      1.2797                 1.3365                 1.3658
 Frc consts  --      1.4039                 1.5678                 1.6103
 IR Inten    --      1.2165                62.4299                18.9619

                     37                     38                     39
                      A                      A                      A
 Frequencies --   1481.9896              1485.4372              1489.8754
 Red. masses --      1.0521                 1.1378                 1.0727
 Frc consts  --      1.3614                 1.4792                 1.4029
 IR Inten    --      5.6852                 2.7142                 2.1061

                     40                     41                     42
                      A                      A                      A
 Frequencies --   1499.9762              1683.9775              2995.3945
 Red. masses --      1.0795                 8.1103                 1.0660
 Frc consts  --      1.4310                13.5507                 5.6352
 IR Inten    --      2.2208                 0.4041                59.0559

                     43                     44                     45
                      A                      A                      A
 Frequencies --   3042.5429              3055.6287              3056.7906
 Red. masses --      1.0364                 1.0949                 1.0558
 Frc consts  --      5.6527                 6.0231                 5.8125
 IR Inten    --     11.8500                27.1854                35.3421

                     46                     47                     48
                      A                      A                      A
 Frequencies --   3111.1988              3127.6067              3131.2835
 Red. masses --      1.0997                 1.1101                 1.1031
 Frc consts  --      6.2718                 6.3981                 6.3724
 IR Inten    --     13.8273                17.6111                20.4739

                     49                     50                     51
                      A                      A                      A
 Frequencies --   3137.6365              3231.8587              3807.5050
 Red. masses --      1.0919                 1.0986                 1.0662
 Frc consts  --      6.3336                 6.7610                 9.1072
 IR Inten    --     50.1540                 6.2511                14.7857

 - Thermochemistry -
 -------------------
 Temperature   298.150 Kelvin.  Pressure   1.00000 Atm.
 Atom     1 has atomic number  6 and mass  12.00000

 Molecular mass:   126.06808 amu.
 Principal axes and moments of inertia in atomic units:
                           1         2         3
     Eigenvalues --   661.207851224.596691514.50135
           X            0.99964   0.00647   0.02595
           Y           -0.00640   0.99998  -0.00266
           Z           -0.02596   0.00250   0.99966
 This molecule is an asymmetric top.
 Rotational symmetry number  1.
 Warning -- assumption of classical behavior for rotation
           may cause significant error
 Rotational temperatures (Kelvin)      0.13099     0.07073     0.05719
 Rotational constants (GHZ):           2.72946     1.47374     1.19164
 Zero-point vibrational energy     416518.4 (Joules/Mol)
                                   99.55029 (Kcal/Mol)
 Warning -- explicit consideration of  10 degrees of freedom as
           vibrations may cause significant error
 Vibrational temperatures:    123.45   185.84   273.08   308.63   399.82
          (Kelvin)            488.89   510.61   614.81   705.63   777.41
                              911.44   944.60   991.55  1097.58  1160.72
                             1186.51  1233.41  1294.46  1310.84  1373.95
                             1400.14  1481.60  1489.43  1519.06  1594.54
                             1658.88  1686.76  1710.23  1757.25  1780.88
                             1814.45  1863.98  1912.44  1963.29  2030.14
                             2035.31  2132.25  2137.21  2143.60  2158.13
                             2422.87  4309.70  4377.54  4396.36  4398.03
                             4476.32  4499.92  4505.21  4514.35  4649.92
                             5478.14

 Zero-point correction=                           0.158643 (Hartree/Particle)
 Thermal correction to Energy=                    0.167090
 Thermal correction to Enthalpy=                  0.168034
 Thermal correction to Gibbs Free Energy=         0.125729
 Sum of electronic and zero-point Energies=           -422.979966
 Sum of electronic and thermal Energies=              -422.971520
 Sum of electronic and thermal Enthalpies=            -422.970576
 Sum of electronic and thermal Free Energies=         -423.012881

                     E (Thermal)             CV                S
                      KCal/Mol        Cal/Mol-Kelvin    Cal/Mol-Kelvin
 Total                  104.850             32.762             89.038
 Electronic               0.000              0.000              0.000
 Translational            0.889              2.981             40.409
 Rotational               0.889              2.981             28.596
 Vibrational            103.073             26.800             20.033
 Vibration     1          0.601              1.959              3.754
 Vibration     2          0.612              1.924              2.958
 Vibration     3          0.633              1.854              2.230
 Vibration     4          0.644              1.819              2.005
 Vibration     5          0.679              1.714              1.547
 Vibration     6          0.720              1.596              1.213
 Vibration     7          0.731              1.565              1.144
 Vibration     8          0.789              1.411              0.867
 Vibration     9          0.846              1.271              0.682
 Vibration    10          0.895              1.161              0.565

 Optimization completed.
    -- Stationary point found.
 Normal termination of Gaussian 09 at Tue Jan 28 13:24:30 2020.
