 Gaussian 09, Revision D.01,
 Gaussian 09:  ES64L-G09RevD.01 24-Apr-2013

 -----------------------------
 # b3lyp 6-31G(2df,p) opt Freq
 -----------------------------

 -----
 titel
 -----
 Symbolic Z-matrix:
 Charge =  0 Multiplicity = 1

 SCF Done:  E(RB3LYP) =  -423.111848669     A.U. after   14 cycles
 Optimization completed.
    -- Stationary point found.
 Normal termination of Gaussian 09 at Tue Jan 28 08:16:33 2020.

 ----------------------------------------------------------------------
 #N Geom=AllCheck Guess=TCheck SCRF=Check GenChk RB3LYP/6-31G(2df,p) Fr
 eq
 ----------------------------------------------------------------------

 Structure from the checkpoint file:  "/scratch/puck/g09_f6c19a55-e04e-49a5-959d-3063d62617b7/Gau-79599.chk"
 -----
 titel
 -----
 Charge =  0 Multiplicity = 1

                         Standard orientation:
 ---------------------------------------------------------------------
 Center     Atomic      Atomic             Coordinates (Angstroms)
 Number     Number       Type             X           Y           Z
 ---------------------------------------------------------------------
      1          6           0        3.487208   -0.974417   -0.062879
      2          8           0        2.113662   -0.787341   -0.320682
      3          6           0        1.542326    0.329650    0.353913
      4          6           0        1.872652    1.659980   -0.343930
      5          6           0        0.095975    0.122785    0.424200
      6          6           0       -1.100049   -0.008352    0.475176
      7          6           0       -2.523837   -0.178509    0.567533
      8          6           0       -3.302537   -0.793206   -0.526467
      9          8           0       -3.349331    0.609836   -0.308255
     10          1           0        3.688759   -1.070779    1.015736
     11          1           0        3.777804   -1.903600   -0.558692
     12          1           0        4.111241   -0.160042   -0.458770
     13          1           0        1.936094    0.363873    1.384636
     14          1           0        1.402824    2.492327    0.186727
     15          1           0        2.952573    1.830064   -0.360983
     16          1           0        1.499325    1.642268   -1.370587
     17          1           0       -2.921698   -0.266218    1.578013
     18          1           0       -2.780291   -1.113234   -1.425859
     19          1           0       -4.211701   -1.342213   -0.284004
 ---------------------------------------------------------------------

 SCF Done:  E(RB3LYP) =  -423.111848669     A.U. after    1 cycles

 The electronic state is 1-A.
 Alpha  occ. eigenvalues --  -19.15725 -19.14348 -10.26009 -10.25944 -10.24132
 Alpha  occ. eigenvalues --  -10.22771 -10.18262 -10.18258 -10.18002  -1.07724
 Alpha  occ. eigenvalues --   -1.03644  -0.79626  -0.74955  -0.69308  -0.68000
 Alpha  occ. eigenvalues --   -0.65065  -0.61525  -0.53473  -0.50818  -0.49760
 Alpha  occ. eigenvalues --   -0.49193  -0.45795  -0.41879  -0.41470  -0.40774
 Alpha  occ. eigenvalues --   -0.40214  -0.39197  -0.37125  -0.34267  -0.32054
 Alpha  occ. eigenvalues --   -0.28004  -0.27372  -0.25633  -0.25344
 Alpha virt. eigenvalues --    0.01943   0.03435   0.08970   0.10918   0.12326
 Alpha virt. eigenvalues --    0.13177   0.14128   0.14685   0.15287   0.15407
 Alpha virt. eigenvalues --    0.16701   0.17189   0.17981   0.19226   0.21918

 Mulliken charges:
               1
     1  C   -0.231145
     2  O   -0.241618
     3  C   -0.045303
     4  C   -0.391494
     5  C    0.088271
     6  C    0.129014
     7  C   -0.123339
     8  C   -0.158116
     9  O   -0.214813
    10  H    0.105715
    11  H    0.131646
    12  H    0.107952
    13  H    0.092900
    14  H    0.130557
    15  H    0.117717
    16  H    0.137951
    17  H    0.116729
    18  H    0.128119
    19  H    0.119258
 Sum of Mulliken charges =   0.00000

 Dipole moment (field-independent basis, Debye):
    X=              1.5201    Y=             -0.7486    Z=              0.9391  Tot=              1.9373
 Quadrupole moment (field-independent basis, Debye-Ang):
   XX=            -46.3165   YY=            -53.5920   ZZ=            -51.9607
   XY=              6.7173   XZ=             -0.3285   YZ=              0.7507

  Exact polarizability: 121.489   5.405  66.553   1.514   2.142  63.533
 Approx polarizability: 161.563   6.268  95.222   4.245   3.726  94.543

                      1                      2                      3
                      A                      A                      A
 Frequencies --     19.3225                59.7232                78.0310
 Red. masses --      3.5180                 2.4031                 3.6728
 Frc consts  --      0.0008                 0.0051                 0.0132
 IR Inten    --      3.0353                 2.4081                 3.6964

                      4                      5                      6
                      A                      A                      A
 Frequencies --     93.0198               189.2058               212.7767
 Red. masses --      3.0096                 1.8139                 2.4768
 Frc consts  --      0.0153                 0.0383                 0.0661
 IR Inten    --      1.1766                 1.9149                 1.1714

                      7                      8                      9
                      A                      A                      A
 Frequencies --    216.7494               254.1432               336.3120
 Red. masses --      1.4052                 1.8952                 4.3687
 Frc consts  --      0.0389                 0.0721                 0.2911
 IR Inten    --      0.2504                 1.0799                 1.0089

                     10                     11                     12
                      A                      A                      A
 Frequencies --    371.9219               454.7739               495.5993
 Red. masses --      3.5675                 3.5141                 4.9178
 Frc consts  --      0.2907                 0.4282                 0.7117
 IR Inten    --      0.4735                 3.5679                12.4815

                     13                     14                     15
                      A                      A                      A
 Frequencies --    558.8559               590.3830               739.8612
 Red. masses --      5.9407                 4.8272                 2.2778
 Frc consts  --      1.0932                 0.9913                 0.7346
 IR Inten    --      1.7145                 3.6800                 3.5033

                     16                     17                     18
                      A                      A                      A
 Frequencies --    828.6531               844.2796               896.7277
 Red. masses --      5.0732                 2.8879                 2.7790
 Frc consts  --      2.0525                 1.2129                 1.3166
 IR Inten    --     12.2326                16.0653                40.5153

                     19                     20                     21
                      A                      A                      A
 Frequencies --    971.8063              1023.5810              1066.4559
 Red. masses --      2.2083                 2.2962                 1.6837
 Frc consts  --      1.2288                 1.4175                 1.1282
 IR Inten    --      8.6139                20.8368                 8.7640

                     22                     23                     24
                      A                      A                      A
 Frequencies --   1089.1297              1101.2040              1135.4281
 Red. masses --      1.3556                 1.9235                 4.4521
 Frc consts  --      0.9474                 1.3743                 3.3817
 IR Inten    --      3.2932                 6.0453               137.3668

                     25                     26                     27
                      A                      A                      A
 Frequencies --   1155.0920              1162.7145              1180.4317
 Red. masses --      1.4440                 1.3999                 1.2920
 Frc consts  --      1.1352                 1.1151                 1.0607
 IR Inten    --      8.6208                25.7940                 4.3162

                     28                     29                     30
                      A                      A                      A
 Frequencies --   1190.6334              1217.1910              1282.2031
 Red. masses --      2.2025                 1.5028                 1.6522
 Frc consts  --      1.8396                 1.3118                 1.6004
 IR Inten    --     49.5686                31.3106                10.5233

                     31                     32                     33
                      A                      A                      A
 Frequencies --   1341.8758              1373.0990              1398.0871
 Red. masses --      1.3105                 1.3710                 1.2292
 Frc consts  --      1.3904                 1.5230                 1.4155
 IR Inten    --     12.3525                77.0015                 7.8880

                     34                     35                     36
                      A                      A                      A
 Frequencies --   1406.9936              1475.3507              1481.7313
 Red. masses --      1.9505                 1.1160                 1.0528
 Frc consts  --      2.2750                 1.4312                 1.3618
 IR Inten    --     59.5791                 0.6878                 4.7569

                     37                     38                     39
                      A                      A                      A
 Frequencies --   1490.0945              1499.2445              1511.5175
 Red. masses --      1.0569                 1.0646                 1.0628
 Frc consts  --      1.3826                 1.4098                 1.4307
 IR Inten    --      3.5347                 2.5150                 7.4432

                     40                     41                     42
                      A                      A                      A
 Frequencies --   1519.4549              2366.6590              2950.9559
 Red. masses --      1.2344                11.9062                 1.0801
 Frc consts  --      1.6791                39.2912                 5.5416
 IR Inten    --      1.6479                 0.2592                28.3746

                     43                     44                     45
                      A                      A                      A
 Frequencies --   2977.0633              3026.7227              3050.0940
 Red. masses --      1.0392                 1.0994                 1.0349
 Frc consts  --      5.4266                 5.9338                 5.6723
 IR Inten    --     68.5951                49.5449                21.9144

                     46                     47                     48
                      A                      A                      A
 Frequencies --   3085.7483              3114.6807              3116.2243
 Red. masses --      1.0500                 1.0867                 1.0960
 Frc consts  --      5.8906                 6.2113                 6.2708
 IR Inten    --     27.6148                20.8863                27.2016

                     49                     50                     51
                      A                      A                      A
 Frequencies --   3123.9534              3136.1133              3180.4230
 Red. masses --      1.1018                 1.1032                 1.1199
 Frc consts  --      6.3351                 6.3926                 6.6742
 IR Inten    --     24.0338                14.8968                22.8364

 - Thermochemistry -
 -------------------
 Temperature   298.150 Kelvin.  Pressure   1.00000 Atm.
 Atom     1 has atomic number  6 and mass  12.00000

 Molecular mass:   126.06808 amu.
 Principal axes and moments of inertia in atomic units:
                           1         2         3
     Eigenvalues --   423.004182904.841513125.07820
           X            0.99990   0.01401   0.00006
           Y           -0.01401   0.99989  -0.00553
           Z           -0.00014   0.00553   0.99998
 This molecule is an asymmetric top.
 Rotational symmetry number  1.
 Rotational temperatures (Kelvin)      0.20476     0.02982     0.02772
 Rotational constants (GHZ):           4.26649     0.62129     0.57750
 Zero-point vibrational energy     409375.8 (Joules/Mol)
                                   97.84317 (Kcal/Mol)
 Warning -- explicit consideration of  14 degrees of freedom as
           vibrations may cause significant error
 Vibrational temperatures:     27.80    85.93   112.27   133.83   272.22
          (Kelvin)            306.14   311.85   365.65   483.88   535.11
                              654.32   713.06   804.07   849.43  1064.49
                             1192.25  1214.73  1290.19  1398.21  1472.70
                             1534.39  1567.01  1584.38  1633.63  1661.92
                             1672.88  1698.38  1713.05  1751.26  1844.80
                             1930.66  1975.58  2011.53  2024.35  2122.70
                             2131.88  2143.91  2157.08  2174.73  2186.15
                             3405.09  4245.76  4283.32  4354.77  4388.40
                             4439.70  4481.33  4483.55  4494.67  4512.16
                             4575.91

 Zero-point correction=                           0.155923 (Hartree/Particle)
 Thermal correction to Energy=                    0.166312
 Thermal correction to Enthalpy=                  0.167257
 Thermal correction to Gibbs Free Energy=         0.118251
 Sum of electronic and zero-point Energies=           -422.955926
 Sum of electronic and thermal Energies=              -422.945536
 Sum of electronic and thermal Enthalpies=            -422.944592
 Sum of electronic and thermal Free Energies=         -422.993598

                     E (Thermal)             CV                S
                      KCal/Mol        Cal/Mol-Kelvin    Cal/Mol-Kelvin
 Total                  104.363             35.499            103.141
 Electronic               0.000              0.000              0.000
 Translational            0.889              2.981             40.409
 Rotational               0.889              2.981             29.730
 Vibrational            102.585             29.537             33.002
 Vibration     1          0.593              1.986              6.703
 Vibration     2          0.597              1.974              4.466
 Vibration     3          0.599              1.964              3.940
 Vibration     4          0.602              1.954              3.596
 Vibration     5          0.633              1.855              2.236
 Vibration     6          0.644              1.821              2.020
 Vibration     7          0.646              1.816              1.986
 Vibration     8          0.665              1.756              1.702
 Vibration     9          0.717              1.603              1.230
 Vibration    10          0.744              1.530              1.072
 Vibration    11          0.813              1.350              0.781
 Vibration    12          0.851              1.260              0.669
 Vibration    13          0.914              1.120              0.526
 Vibration    14          0.948              1.052              0.466

 Optimization completed.
    -- Stationary point found.
 Normal termination of Gaussian 09 at Tue Jan 28 08:54:38 2020.
