 Gaussian 09, Revision D.01,
 Gaussian 09:  ES64L-G09RevD.01 24-Apr-2013

 -----------------------------
 # b3lyp 6-31G(2df,p) opt Freq
 -----------------------------

 -----
 titel
 -----
 Symbolic Z-matrix:
 Charge =  0 Multiplicity = 1

 SCF Done:  E(RB3LYP) =  -423.161684731     A.U. after   14 cycles
 Optimization completed.
    -- Stationary point found.
 Normal termination of Gaussian 09 at Mon Jan 27 15:26:47 2020.

 ----------------------------------------------------------------------
 #N Geom=AllCheck Guess=TCheck SCRF=Check GenChk RB3LYP/6-31G(2df,p) Fr
 eq
 ----------------------------------------------------------------------

 Structure from the checkpoint file:  "/scratch/puck/g09_c912692d-5a14-46fa-a374-84a8243d3e43/Gau-54300.chk"
 -----
 titel
 -----
 Charge =  0 Multiplicity = 1

                         Standard orientation:
 ---------------------------------------------------------------------
 Center     Atomic      Atomic             Coordinates (Angstroms)
 Number     Number       Type             X           Y           Z
 ---------------------------------------------------------------------
      1          6           0       -3.505685    1.171993    0.047215
      2          6           0       -2.712149   -0.040610   -0.460026
      3          8           0       -3.322788   -1.268436   -0.067693
      4          6           0       -1.305244    0.023619   -0.047050
      5          6           0       -0.165142    0.070729    0.340267
      6          6           0        1.229101    0.115520    0.761867
      7          6           0        2.212395   -0.182249   -0.394946
      8          6           0        3.642159   -0.257650    0.092517
      9          8           0        4.566153    0.349407   -0.381457
     10          1           0       -3.478112    1.217203    1.140855
     11          1           0       -3.085029    2.103890   -0.341605
     12          1           0       -4.546441    1.086052   -0.275672
     13          1           0       -2.757670   -0.055084   -1.555860
     14          1           0       -3.189384   -1.364419    0.881937
     15          1           0        1.457282    1.100781    1.188028
     16          1           0        1.390748   -0.609812    1.570884
     17          1           0        1.955263   -1.157792   -0.829016
     18          1           0        2.140301    0.570251   -1.183378
     19          1           0        3.793516   -0.946952    0.957957
 ---------------------------------------------------------------------

 SCF Done:  E(RB3LYP) =  -423.161684731     A.U. after    1 cycles

 The electronic state is 1-A.
 Alpha  occ. eigenvalues --  -19.14648 -19.14107 -10.27845 -10.25834 -10.22729
 Alpha  occ. eigenvalues --  -10.20659 -10.18595 -10.18369 -10.17853  -1.05333
 Alpha  occ. eigenvalues --   -1.02424  -0.82165  -0.77922  -0.73338  -0.68090
 Alpha  occ. eigenvalues --   -0.63450  -0.58423  -0.53798  -0.49486  -0.47895
 Alpha  occ. eigenvalues --   -0.46750  -0.45940  -0.43991  -0.42665  -0.41602
 Alpha  occ. eigenvalues --   -0.39921  -0.38629  -0.37924  -0.36588  -0.34699
 Alpha  occ. eigenvalues --   -0.28885  -0.26785  -0.26353  -0.25100
 Alpha virt. eigenvalues --   -0.02973   0.03238   0.04525   0.09123   0.09996
 Alpha virt. eigenvalues --    0.11937   0.12572   0.13010   0.14519   0.14998
 Alpha virt. eigenvalues --    0.16499   0.17199   0.18165   0.20866   0.21585

 Mulliken charges:
               1
     1  C   -0.384443
     2  C   -0.019892
     3  O   -0.412958
     4  C    0.148929
     5  C   -0.022830
     6  C   -0.365220
     7  C   -0.260498
     8  C    0.156266
     9  O   -0.230633
    10  H    0.116118
    11  H    0.125441
    12  H    0.126246
    13  H    0.118578
    14  H    0.281545
    15  H    0.143812
    16  H    0.135504
    17  H    0.136931
    18  H    0.135293
    19  H    0.071811
 Sum of Mulliken charges =   0.00000

 Dipole moment (field-independent basis, Debye):
    X=             -1.4320    Y=             -0.0426    Z=              1.6621  Tot=              2.1944
 Quadrupole moment (field-independent basis, Debye-Ang):
   XX=            -69.1561   YY=            -53.9265   ZZ=            -50.2691
   XY=             -7.9362   XZ=              1.4871   YZ=             -1.7722

  Exact polarizability: 120.538   1.173  63.949   5.737  -3.820  65.289
 Approx polarizability: 157.123  10.425  95.231  11.487  -6.527  99.980

                      1                      2                      3
                      A                      A                      A
 Frequencies --      7.7770                52.1575                58.6847
 Red. masses --      3.1944                 4.1385                 3.6178
 Frc consts  --      0.0001                 0.0066                 0.0073
 IR Inten    --      1.7672                 3.1547                 2.9623

                      4                      5                      6
                      A                      A                      A
 Frequencies --     83.1913               129.8809               171.3262
 Red. masses --      3.6725                 3.1932                 3.0803
 Frc consts  --      0.0150                 0.0317                 0.0533
 IR Inten    --      3.7971                 1.2941                 2.5552

                      7                      8                      9
                      A                      A                      A
 Frequencies --    248.8939               268.9707               282.1664
 Red. masses --      1.1239                 2.4145                 1.3410
 Frc consts  --      0.0410                 0.1029                 0.0629
 IR Inten    --      0.4321                10.3321                77.9484

                     10                     11                     12
                      A                      A                      A
 Frequencies --    331.1282               395.2319               440.3360
 Red. masses --      2.8111                 3.5207                 5.7882
 Frc consts  --      0.1816                 0.3240                 0.6612
 IR Inten    --     33.9700                11.7309                 6.9683

                     13                     14                     15
                      A                      A                      A
 Frequencies --    532.2475               546.2058               566.3702
 Red. masses --      2.8586                 3.4014                 6.1650
 Frc consts  --      0.4771                 0.5979                 1.1652
 IR Inten    --     24.1914                 1.9138                 4.1786

                     16                     17                     18
                      A                      A                      A
 Frequencies --    732.0010               756.4056               846.2406
 Red. masses --      2.9662                 1.3199                 1.5497
 Frc consts  --      0.9364                 0.4449                 0.6539
 IR Inten    --      7.2439                 1.7546                 3.2130

                     19                     20                     21
                      A                      A                      A
 Frequencies --    897.3726               983.4598              1018.9311
 Red. masses --      2.4539                 3.0132                 1.9129
 Frc consts  --      1.1643                 1.7171                 1.1701
 IR Inten    --     15.3007                 8.3538                36.8577

                     22                     23                     24
                      A                      A                      A
 Frequencies --   1065.4740              1077.1637              1090.5778
 Red. masses --      1.9058                 2.4035                 2.2705
 Frc consts  --      1.2747                 1.6431                 1.5911
 IR Inten    --     37.4249                 9.8879                26.1562

                     25                     26                     27
                      A                      A                      A
 Frequencies --   1099.6383              1179.0608              1199.1057
 Red. masses --      2.8401                 2.3723                 1.2775
 Frc consts  --      2.0234                 1.9431                 1.0823
 IR Inten    --     44.7378                29.2031                13.9174

                     28                     29                     30
                      A                      A                      A
 Frequencies --   1262.6377              1282.2318              1304.6375
 Red. masses --      1.3513                 1.3677                 1.1098
 Frc consts  --      1.2693                 1.3249                 1.1130
 IR Inten    --      1.3050                 8.2684                 4.3250

                     31                     32                     33
                      A                      A                      A
 Frequencies --   1338.6134              1362.8074              1398.8568
 Red. masses --      1.3733                 1.5125                 1.2379
 Frc consts  --      1.4499                 1.6550                 1.4271
 IR Inten    --     23.8730                32.6040                 4.5359

                     34                     35                     36
                      A                      A                      A
 Frequencies --   1416.9966              1430.0402              1461.1878
 Red. masses --      1.1898                 1.1940                 1.0808
 Frc consts  --      1.4076                 1.4386                 1.3596
 IR Inten    --     78.9663                 6.3695                 3.0584

                     37                     38                     39
                      A                      A                      A
 Frequencies --   1479.1931              1487.4339              1491.0587
 Red. masses --      1.0955                 1.0503                 1.0582
 Frc consts  --      1.4122                 1.3691                 1.3861
 IR Inten    --      4.8359                 7.1573                 0.9850

                     40                     41                     42
                      A                      A                      A
 Frequencies --   1839.9412              2361.0515              2843.7894
 Red. masses --     10.2402                11.9008                 1.0814
 Frc consts  --     20.4252                39.0874                 5.1526
 IR Inten    --    198.3974                 6.4051               116.4724

                     43                     44                     45
                      A                      A                      A
 Frequencies --   3014.6877              3031.1137              3036.2332
 Red. masses --      1.0589                 1.0693                 1.0658
 Frc consts  --      5.6703                 5.7883                 5.7889
 IR Inten    --     18.8731                 6.0056                11.1125

                     46                     47                     48
                      A                      A                      A
 Frequencies --   3040.1855              3048.8566              3113.6686
 Red. masses --      1.0509                 1.0956                 1.1014
 Frc consts  --      5.7226                 6.0003                 6.2910
 IR Inten    --     18.5632                11.0912                24.8235

                     49                     50                     51
                      A                      A                      A
 Frequencies --   3118.9236              3127.4897              3803.4214
 Red. masses --      1.0975                 1.1031                 1.0661
 Frc consts  --      6.2903                 6.3572                 9.0862
 IR Inten    --     10.3857                22.2742                17.3391

 - Thermochemistry -
 -------------------
 Temperature   298.150 Kelvin.  Pressure   1.00000 Atm.
 Atom     1 has atomic number  6 and mass  12.00000

 Molecular mass:   126.06808 amu.
 Principal axes and moments of inertia in atomic units:
                           1         2         3
     Eigenvalues --   305.426863989.215534102.31237
           X            0.99989  -0.01442   0.00338
           Y            0.01453   0.99936  -0.03259
           Z           -0.00291   0.03264   0.99946
 This molecule is an asymmetric top.
 Rotational symmetry number  1.
 Rotational temperatures (Kelvin)      0.28358     0.02171     0.02111
 Rotational constants (GHZ):           5.90891     0.45241     0.43993
 Zero-point vibrational energy     407657.8 (Joules/Mol)
                                   97.43254 (Kcal/Mol)
 Warning -- explicit consideration of  15 degrees of freedom as
           vibrations may cause significant error
 Vibrational temperatures:     11.19    75.04    84.43   119.69   186.87
          (Kelvin)            246.50   358.10   386.99   405.97   476.42
                              568.65   633.54   765.78   785.87   814.88
                             1053.18  1088.30  1217.55  1291.12  1414.98
                             1466.01  1532.98  1549.80  1569.10  1582.13
                             1696.40  1725.24  1816.65  1844.84  1877.08
                             1925.96  1960.77  2012.64  2038.74  2057.51
                             2102.32  2128.23  2140.08  2145.30  2647.26
                             3397.02  4091.57  4337.46  4361.09  4368.46
                             4374.14  4386.62  4479.87  4487.43  4499.75
                             5472.27

 Zero-point correction=                           0.155269 (Hartree/Particle)
 Thermal correction to Energy=                    0.166288
 Thermal correction to Enthalpy=                  0.167232
 Thermal correction to Gibbs Free Energy=         0.115677
 Sum of electronic and zero-point Energies=           -423.006416
 Sum of electronic and thermal Energies=              -422.995397
 Sum of electronic and thermal Enthalpies=            -422.994453
 Sum of electronic and thermal Free Energies=         -423.046007

                     E (Thermal)             CV                S
                      KCal/Mol        Cal/Mol-Kelvin    Cal/Mol-Kelvin
 Total                  104.347             37.072            108.505
 Electronic               0.000              0.000              0.000
 Translational            0.889              2.981             40.409
 Rotational               0.889              2.981             29.992
 Vibrational            102.570             31.110             38.104
 Vibration     1          0.593              1.987              8.511
 Vibration     2          0.596              1.977              4.734
 Vibration     3          0.596              1.974              4.501
 Vibration     4          0.600              1.961              3.814
 Vibration     5          0.612              1.923              2.948
 Vibration     6          0.626              1.878              2.421
 Vibration     7          0.662              1.765              1.738
 Vibration     8          0.673              1.730              1.603
 Vibration     9          0.681              1.707              1.521
 Vibration    10          0.713              1.613              1.255
 Vibration    11          0.762              1.480              0.980
 Vibration    12          0.800              1.382              0.826
 Vibration    13          0.887              1.179              0.582
 Vibration    14          0.901              1.148              0.552
 Vibration    15          0.922              1.104              0.511

 Optimization completed on the basis of negligible forces.
    -- Stationary point found.
 Normal termination of Gaussian 09 at Mon Jan 27 15:55:58 2020.
