 Gaussian 09, Revision D.01,
 Gaussian 09:  ES64L-G09RevD.01 24-Apr-2013

 -----------------------------
 # b3lyp 6-31G(2df,p) opt Freq
 -----------------------------

 -----
 titel
 -----
 Symbolic Z-matrix:
 Charge =  0 Multiplicity = 1

 SCF Done:  E(RB3LYP) =  -423.181059601     A.U. after   13 cycles
 Optimization completed.
    -- Stationary point found.
 Normal termination of Gaussian 09 at Mon Jan 27 11:18:57 2020.

 ----------------------------------------------------------------------
 #N Geom=AllCheck Guess=TCheck SCRF=Check GenChk RB3LYP/6-31G(2df,p) Fr
 eq
 ----------------------------------------------------------------------

 Structure from the checkpoint file:  "/scratch/puck/g09_8d636c01-4e9b-48fa-9dad-42353f30dc54/Gau-150280.chk"
 -----
 titel
 -----
 Charge =  0 Multiplicity = 1

                         Standard orientation:
 ---------------------------------------------------------------------
 Center     Atomic      Atomic             Coordinates (Angstroms)
 Number     Number       Type             X           Y           Z
 ---------------------------------------------------------------------
      1          6           0        0.336802    0.320603    1.576846
      2          6           0        0.290940    1.511932    0.575648
      3          6           0        0.177093    0.950167   -0.845610
      4          8           0        1.312154    0.112348   -1.128991
      5          6           0        1.418815   -1.004633   -0.239780
      6          6           0        0.265967   -0.999435    0.785570
      7          6           0       -1.017696   -1.040066   -0.041967
      8          8           0       -1.956829    0.023425    0.145728
      9          6           0       -1.074332    0.083693   -0.984165
     10          1           0        1.265046    0.333605    2.156758
     11          1           0       -0.494055    0.376845    2.282416
     12          1           0       -0.557047    2.168066    0.785489
     13          1           0        1.203482    2.111924    0.630028
     14          1           0        0.218408    1.739249   -1.599481
     15          1           0        1.410951   -1.927812   -0.836101
     16          1           0        2.385865   -0.950398    0.278899
     17          1           0        0.353607   -1.865296    1.447818
     18          1           0       -1.457597   -2.004717   -0.284739
     19          1           0       -1.556793   -0.001221   -1.954235
 ---------------------------------------------------------------------

 SCF Done:  E(RB3LYP) =  -423.181059601     A.U. after    1 cycles

 The electronic state is 1-A.
 Alpha  occ. eigenvalues --  -19.15319 -19.13432 -10.23588 -10.23301 -10.23154
 Alpha  occ. eigenvalues --  -10.22797 -10.19583 -10.18353 -10.17922  -1.07551
 Alpha  occ. eigenvalues --   -1.02395  -0.80748  -0.77115  -0.70686  -0.64811
 Alpha  occ. eigenvalues --   -0.61687  -0.60477  -0.54133  -0.50541  -0.50073
 Alpha  occ. eigenvalues --   -0.46461  -0.45763  -0.41670  -0.41125  -0.40163
 Alpha  occ. eigenvalues --   -0.39185  -0.38902  -0.37059  -0.33361  -0.32690
 Alpha  occ. eigenvalues --   -0.30225  -0.28786  -0.26763  -0.24319
 Alpha virt. eigenvalues --    0.08362   0.08898   0.10416   0.11297   0.12607
 Alpha virt. eigenvalues --    0.13502   0.14468   0.15897   0.16156   0.17665
 Alpha virt. eigenvalues --    0.17966   0.18893   0.19496   0.21952   0.22413

 Mulliken charges:
               1
     1  C   -0.204048
     2  C   -0.209370
     3  C    0.065556
     4  O   -0.282277
     5  C   -0.060230
     6  C   -0.092105
     7  C    0.049797
     8  O   -0.251366
     9  C    0.031538
    10  H    0.093691
    11  H    0.113534
    12  H    0.112983
    13  H    0.100105
    14  H    0.075735
    15  H    0.095149
    16  H    0.097178
    17  H    0.069358
    18  H    0.096486
    19  H    0.098285
 Sum of Mulliken charges =   0.00000

 Dipole moment (field-independent basis, Debye):
    X=              0.4462    Y=             -0.7904    Z=              0.3768  Tot=              0.9828
 Quadrupole moment (field-independent basis, Debye-Ang):
   XX=            -58.1105   YY=            -49.2009   ZZ=            -52.7883
   XY=              0.0787   XZ=              4.2773   YZ=             -0.7024

  Exact polarizability:  70.973  -1.163  74.864   3.357  -2.199  70.221
 Approx polarizability: 107.259  -3.955 108.900  -0.578  -5.606 104.414

                      1                      2                      3
                      A                      A                      A
 Frequencies --    177.6127               288.1926               304.2071
 Red. masses --      2.2370                 2.5588                 3.1576
 Frc consts  --      0.0416                 0.1252                 0.1722
 IR Inten    --      2.5862                 1.9087                 9.7336

                      4                      5                      6
                      A                      A                      A
 Frequencies --    348.0505               386.5667               524.8196
 Red. masses --      3.6215                 2.9764                 5.6796
 Frc consts  --      0.2585                 0.2621                 0.9217
 IR Inten    --      2.6364                 2.6295                 2.9544

                      7                      8                      9
                      A                      A                      A
 Frequencies --    554.9176               588.3933               680.3847
 Red. masses --      4.7318                 4.4550                 4.8815
 Frc consts  --      0.8585                 0.9087                 1.3314
 IR Inten    --      1.6196                 2.5236                 5.5259

                     10                     11                     12
                      A                      A                      A
 Frequencies --    790.5674               803.3658               821.5549
 Red. masses --      3.1047                 1.5732                 4.5677
 Frc consts  --      1.1433                 0.5982                 1.8164
 IR Inten    --      2.7157                 1.5860                 3.8030

                     13                     14                     15
                      A                      A                      A
 Frequencies --    866.0450               880.4413               886.9959
 Red. masses --      1.9647                 3.5401                 2.8502
 Frc consts  --      0.8682                 1.6168                 1.3212
 IR Inten    --      9.5024                22.7501                 4.5431

                     16                     17                     18
                      A                      A                      A
 Frequencies --    934.6383               952.8092               990.2852
 Red. masses --      2.2936                 3.1981                 2.0454
 Frc consts  --      1.1805                 1.7106                 1.1818
 IR Inten    --     34.8284                 8.4654                 2.9929

                     19                     20                     21
                      A                      A                      A
 Frequencies --   1009.3534              1027.3990              1031.2729
 Red. masses --      2.0011                 3.8499                 1.7890
 Frc consts  --      1.2012                 2.3943                 1.1210
 IR Inten    --      9.5244                 2.8617                24.4853

                     22                     23                     24
                      A                      A                      A
 Frequencies --   1066.4883              1097.0782              1108.9473
 Red. masses --      2.4341                 1.8288                 1.8143
 Frc consts  --      1.6312                 1.2968                 1.3146
 IR Inten    --     33.7664                 2.8809                 6.6940

                     25                     26                     27
                      A                      A                      A
 Frequencies --   1136.7397              1189.4623              1221.2686
 Red. masses --      1.3948                 1.2887                 1.1906
 Frc consts  --      1.0619                 1.0743                 1.0463
 IR Inten    --      1.2819                24.4595                 2.7334

                     28                     29                     30
                      A                      A                      A
 Frequencies --   1246.8365              1264.7464              1278.5922
 Red. masses --      1.3888                 1.1546                 1.5405
 Frc consts  --      1.2721                 1.0882                 1.4838
 IR Inten    --      7.0063                 1.3313                 4.8236

                     31                     32                     33
                      A                      A                      A
 Frequencies --   1307.9259              1331.5489              1343.1968
 Red. masses --      1.5974                 1.3331                 1.3367
 Frc consts  --      1.6100                 1.3926                 1.4209
 IR Inten    --      2.4543                 1.3949                 1.2018

                     34                     35                     36
                      A                      A                      A
 Frequencies --   1347.5832              1372.1634              1376.6570
 Red. masses --      1.5208                 1.4976                 1.4217
 Frc consts  --      1.6271                 1.6613                 1.5875
 IR Inten    --      1.3941                 3.1980                 0.9584

                     37                     38                     39
                      A                      A                      A
 Frequencies --   1405.1471              1445.2262              1471.3577
 Red. masses --      1.3458                 2.7748                 1.0840
 Frc consts  --      1.5655                 3.4146                 1.3826
 IR Inten    --      3.1784                10.0243                 0.7911

                     40                     41                     42
                      A                      A                      A
 Frequencies --   1496.8502              1526.7688              2995.4517
 Red. masses --      1.1247                 1.0944                 1.0566
 Frc consts  --      1.4847                 1.5031                 5.5859
 IR Inten    --      5.1640                 0.7624                72.9795

                     43                     44                     45
                      A                      A                      A
 Frequencies --   3027.4349              3049.0390              3061.8927
 Red. masses --      1.1085                 1.0654                 1.0640
 Frc consts  --      5.9858                 5.8357                 5.8774
 IR Inten    --     40.7512                16.3758                32.6179

                     46                     47                     48
                      A                      A                      A
 Frequencies --   3070.4680              3088.7615              3099.8406
 Red. masses --      1.0834                 1.0870                 1.1015
 Frc consts  --      6.0177                 6.1101                 6.2363
 IR Inten    --     48.6856                33.1295                 2.1712

                     49                     50                     51
                      A                      A                      A
 Frequencies --   3118.7186              3134.9692              3151.1723
 Red. masses --      1.1030                 1.0877                 1.0939
 Frc consts  --      6.3208                 6.2981                 6.4000
 IR Inten    --     30.7673                24.1017                32.5783

 - Thermochemistry -
 -------------------
 Temperature   298.150 Kelvin.  Pressure   1.00000 Atm.
 Atom     1 has atomic number  6 and mass  12.00000

 Molecular mass:   126.06808 amu.
 Principal axes and moments of inertia in atomic units:
                           1         2         3
     Eigenvalues --   729.62520 929.92647 937.87991
           X            0.99587   0.08489   0.03232
           Y            0.01485  -0.50318   0.86406
           Z           -0.08961   0.86000   0.50236
 This molecule is an asymmetric top.
 Rotational symmetry number  1.
 Warning -- assumption of classical behavior for rotation
           may cause significant error
 Rotational temperatures (Kelvin)      0.11871     0.09314     0.09235
 Rotational constants (GHZ):           2.47352     1.94074     1.92428
 Zero-point vibrational energy     428742.8 (Joules/Mol)
                                  102.47200 (Kcal/Mol)
 Warning -- explicit consideration of   8 degrees of freedom as
           vibrations may cause significant error
 Vibrational temperatures:    255.54   414.64   437.69   500.77   556.18
          (Kelvin)            755.10   798.40   846.57   978.92  1137.45
                             1155.86  1182.03  1246.04  1266.76  1276.19
                             1344.73  1370.88  1424.80  1452.23  1478.20
                             1483.77  1534.44  1578.45  1595.53  1635.51
                             1711.37  1757.13  1793.92  1819.69  1839.61
                             1881.81  1915.80  1932.56  1938.87  1974.23
                             1980.70  2021.69  2079.36  2116.95  2153.63
                             2196.68  4309.78  4355.80  4386.88  4405.38
                             4417.71  4444.03  4459.97  4487.13  4510.52
                             4533.83

 Zero-point correction=                           0.163300 (Hartree/Particle)
 Thermal correction to Energy=                    0.169839
 Thermal correction to Enthalpy=                  0.170783
 Thermal correction to Gibbs Free Energy=         0.132777
 Sum of electronic and zero-point Energies=           -423.017760
 Sum of electronic and thermal Energies=              -423.011221
 Sum of electronic and thermal Enthalpies=            -423.010277
 Sum of electronic and thermal Free Energies=         -423.048283

                     E (Thermal)             CV                S
                      KCal/Mol        Cal/Mol-Kelvin    Cal/Mol-Kelvin
 Total                  106.575             27.578             79.991
 Electronic               0.000              0.000              0.000
 Translational            0.889              2.981             40.409
 Rotational               0.889              2.981             27.944
 Vibrational            104.798             21.617             11.638
 Vibration     1          0.628              1.870              2.353
 Vibration     2          0.685              1.696              1.485
 Vibration     3          0.695              1.666              1.394
 Vibration     4          0.726              1.579              1.175
 Vibration     5          0.755              1.499              1.013
 Vibration     6          0.880              1.195              0.599
 Vibration     7          0.910              1.129              0.534
 Vibration     8          0.946              1.057              0.470

 Optimization completed.
    -- Stationary point found.
 Normal termination of Gaussian 09 at Mon Jan 27 12:09:53 2020.
