 Gaussian 09, Revision D.01,
 Gaussian 09:  ES64L-G09RevD.01 24-Apr-2013

 -----------------------------
 # b3lyp 6-31G(2df,p) opt Freq
 -----------------------------

 -----
 titel
 -----
 Symbolic Z-matrix:
 Charge =  0 Multiplicity = 1

 SCF Done:  E(RB3LYP) =  -423.150631288     A.U. after   14 cycles
 Optimization completed.
    -- Stationary point found.
 Normal termination of Gaussian 09 at Mon Jan 27 14:15:01 2020.

 ----------------------------------------------------------------------
 #N Geom=AllCheck Guess=TCheck SCRF=Check GenChk RB3LYP/6-31G(2df,p) Fr
 eq
 ----------------------------------------------------------------------

 Structure from the checkpoint file:  "/scratch/puck/g09_29d7b010-e303-4ea5-9d06-a8319d433269/Gau-78372.chk"
 -----
 titel
 -----
 Charge =  0 Multiplicity = 1

                         Standard orientation:
 ---------------------------------------------------------------------
 Center     Atomic      Atomic             Coordinates (Angstroms)
 Number     Number       Type             X           Y           Z
 ---------------------------------------------------------------------
      1          6           0       -1.565292    1.863735   -0.057659
      2          6           0       -1.047048    0.468763    0.338923
      3          6           0       -2.074304   -0.557766    0.171582
      4          6           0       -2.909283   -1.406058    0.000324
      5          6           0        0.211308    0.085925   -0.468469
      6          6           0        0.844021   -1.264540   -0.059944
      7          8           0        2.239221   -0.999224   -0.066968
      8          6           0        2.341221    0.335076    0.346072
      9          8           0        1.259511    1.031476   -0.244144
     10          1           0       -2.420004    2.148638    0.560791
     11          1           0       -0.768987    2.600104    0.070163
     12          1           0       -1.885611    1.872412   -1.103987
     13          1           0       -0.750286    0.497051    1.396933
     14          1           0       -3.651814   -2.152960   -0.135891
     15          1           0       -0.035077    0.101464   -1.537291
     16          1           0        0.505030   -1.568438    0.942371
     17          1           0        0.639811   -2.073492   -0.761896
     18          1           0        2.288420    0.412506    1.448017
     19          1           0        3.284929    0.753882   -0.015289
 ---------------------------------------------------------------------

 SCF Done:  E(RB3LYP) =  -423.150631288     A.U. after    1 cycles

 The electronic state is 1-A.
 Alpha  occ. eigenvalues --  -19.15208 -19.14846 -10.27665 -10.24344 -10.23572
 Alpha  occ. eigenvalues --  -10.21737 -10.18536 -10.18109 -10.17692  -1.09251
 Alpha  occ. eigenvalues --   -0.99818  -0.82572  -0.75300  -0.72650  -0.65785
 Alpha  occ. eigenvalues --   -0.63623  -0.60214  -0.53931  -0.52031  -0.50661
 Alpha  occ. eigenvalues --   -0.47793  -0.46069  -0.44792  -0.41156  -0.40693
 Alpha  occ. eigenvalues --   -0.40203  -0.38342  -0.36536  -0.33849  -0.33302
 Alpha  occ. eigenvalues --   -0.28191  -0.27275  -0.26880  -0.25463
 Alpha virt. eigenvalues --    0.04608   0.04757   0.09281   0.10911   0.11450
 Alpha virt. eigenvalues --    0.12476   0.13373   0.13473   0.14875   0.16333
 Alpha virt. eigenvalues --    0.17301   0.17473   0.18632   0.19134   0.21485

 Mulliken charges:
               1
     1  C   -0.396528
     2  C   -0.177290
     3  C    0.324142
     4  C   -0.474119
     5  C    0.115531
     6  C   -0.131178
     7  O   -0.231682
     8  C    0.017354
     9  O   -0.265075
    10  H    0.123617
    11  H    0.136711
    12  H    0.125310
    13  H    0.105872
    14  H    0.198544
    15  H    0.093870
    16  H    0.102766
    17  H    0.129004
    18  H    0.082224
    19  H    0.120927
 Sum of Mulliken charges =   0.00000

 Dipole moment (field-independent basis, Debye):
    X=             -0.7323    Y=             -0.1230    Z=              0.4810  Tot=              0.8847
 Quadrupole moment (field-independent basis, Debye-Ang):
   XX=            -53.2519   YY=            -53.0292   ZZ=            -52.6466
   XY=              3.7476   XZ=              2.0065   YZ=              1.3789

  Exact polarizability:  92.244  13.036  78.767   3.417   2.460  59.593
 Approx polarizability: 123.461  25.437 117.318   5.863   5.476  91.774

                      1                      2                      3
                      A                      A                      A
 Frequencies --     54.4591                73.7915               121.7907
 Red. masses --      2.9147                 4.0902                 4.4293
 Frc consts  --      0.0051                 0.0131                 0.0387
 IR Inten    --      0.6153                 0.1965                 0.1776

                      4                      5                      6
                      A                      A                      A
 Frequencies --    209.8172               225.8386               240.0541
 Red. masses --      2.5873                 2.4090                 1.2670
 Frc consts  --      0.0671                 0.0724                 0.0430
 IR Inten    --      1.5448                 0.5391                 0.7683

                      7                      8                      9
                      A                      A                      A
 Frequencies --    277.0633               371.4126               405.4944
 Red. masses --      2.1431                 4.0599                 4.0406
 Frc consts  --      0.0969                 0.3300                 0.3914
 IR Inten    --      9.5886                 0.1440                 3.6589

                     10                     11                     12
                      A                      A                      A
 Frequencies --    481.2687               551.2632               635.2983
 Red. masses --      4.7042                 4.2036                 1.2231
 Frc consts  --      0.6420                 0.7527                 0.2909
 IR Inten    --      3.9042                 6.2105                42.8254

                     13                     14                     15
                      A                      A                      A
 Frequencies --    647.4047               696.1653               746.0820
 Red. masses --      1.2528                 3.2369                 8.0908
 Frc consts  --      0.3094                 0.9243                 2.6535
 IR Inten    --     40.3550                 5.6162                 0.6305

                     16                     17                     18
                      A                      A                      A
 Frequencies --    837.5271               886.9198               966.5830
 Red. masses --      2.4128                 2.4569                 3.2236
 Frc consts  --      0.9972                 1.1387                 1.7745
 IR Inten    --      3.7319                11.0051                77.6809

                     19                     20                     21
                      A                      A                      A
 Frequencies --    979.4527               997.9710              1022.2923
 Red. masses --      1.4165                 4.8001                 3.8758
 Frc consts  --      0.8006                 2.8167                 2.3865
 IR Inten    --      3.7393                33.8087                 2.5463

                     22                     23                     24
                      A                      A                      A
 Frequencies --   1070.8350              1089.0180              1113.4957
 Red. masses --      3.6857                 2.3179                 2.8989
 Frc consts  --      2.4901                 1.6196                 2.1177
 IR Inten    --     75.8062                 4.2234                94.9921

                     25                     26                     27
                      A                      A                      A
 Frequencies --   1118.0567              1164.8494              1185.5927
 Red. masses --      2.3860                 2.0801                 1.9845
 Frc consts  --      1.7573                 1.6629                 1.6435
 IR Inten    --     34.6694                15.4893                78.1113

                     28                     29                     30
                      A                      A                      A
 Frequencies --   1212.5895              1262.7209              1289.4786
 Red. masses --      1.1291                 1.2950                 1.3197
 Frc consts  --      0.9782                 1.2165                 1.2928
 IR Inten    --      0.8140                 3.3611                 1.9958

                     31                     32                     33
                      A                      A                      A
 Frequencies --   1316.4791              1335.5087              1363.9352
 Red. masses --      1.2780                 1.3875                 1.2413
 Frc consts  --      1.3050                 1.4581                 1.3605
 IR Inten    --      5.9614                 4.2256                 0.7372

                     34                     35                     36
                      A                      A                      A
 Frequencies --   1387.0578              1405.1646              1433.5270
 Red. masses --      1.3204                 1.2123                 1.2840
 Frc consts  --      1.4967                 1.4103                 1.5546
 IR Inten    --      3.2957                 7.4412                 5.9677

                     37                     38                     39
                      A                      A                      A
 Frequencies --   1494.9880              1499.2899              1508.2132
 Red. masses --      1.0448                 1.0501                 1.0881
 Frc consts  --      1.3758                 1.3908                 1.4583
 IR Inten    --      4.4583                 3.6471                 2.4852

                     40                     41                     42
                      A                      A                      A
 Frequencies --   1545.1683              2232.0378              2929.1859
 Red. masses --      1.1060                 5.9314                 1.0707
 Frc consts  --      1.5558                17.4104                 5.4129
 IR Inten    --      5.2507                 1.5240               102.1475

                     43                     44                     45
                      A                      A                      A
 Frequencies --   2990.2579              3006.3921              3033.6107
 Red. masses --      1.0716                 1.0806                 1.0852
 Frc consts  --      5.6454                 5.7543                 5.8843
 IR Inten    --     39.2563                 4.6609                39.2933

                     46                     47                     48
                      A                      A                      A
 Frequencies --   3047.9004              3085.6676              3119.9587
 Red. masses --      1.0353                 1.0937                 1.1016
 Frc consts  --      5.6666                 6.1352                 6.3179
 IR Inten    --     23.1075                49.7863                20.5732

                     49                     50                     51
                      A                      A                      A
 Frequencies --   3126.9268              3138.0717              3502.8668
 Red. masses --      1.0942                 1.1027                 1.1618
 Frc consts  --      6.3038                 6.3981                 8.3993
 IR Inten    --     17.0159                13.0809                68.6905

 - Thermochemistry -
 -------------------
 Temperature   298.150 Kelvin.  Pressure   1.00000 Atm.
 Atom     1 has atomic number  6 and mass  12.00000

 Molecular mass:   126.06808 amu.
 Principal axes and moments of inertia in atomic units:
                           1         2         3
     Eigenvalues --   604.206921547.948492035.15308
           X            0.99994  -0.00760   0.00840
           Y            0.00755   0.99995   0.00610
           Z           -0.00844  -0.00603   0.99995
 This molecule is an asymmetric top.
 Rotational symmetry number  1.
 Warning -- assumption of classical behavior for rotation
           may cause significant error
 Rotational temperatures (Kelvin)      0.14335     0.05595     0.04256
 Rotational constants (GHZ):           2.98696     1.16589     0.88678
 Zero-point vibrational energy     415324.3 (Joules/Mol)
                                   99.26488 (Kcal/Mol)
 Warning -- explicit consideration of  11 degrees of freedom as
           vibrations may cause significant error
 Vibrational temperatures:     78.35   106.17   175.23   301.88   324.93
          (Kelvin)            345.38   398.63   534.38   583.42   692.44
                              793.14   914.05   931.47  1001.63  1073.44
                             1205.01  1276.08  1390.70  1409.21  1435.86
                             1470.85  1540.69  1566.85  1602.07  1608.63
                             1675.96  1705.80  1744.64  1816.77  1855.27
                             1894.12  1921.50  1962.40  1995.66  2021.72
                             2062.52  2150.95  2157.14  2169.98  2223.15
                             3211.40  4214.44  4302.31  4325.52  4364.68
                             4385.24  4439.58  4488.92  4498.94  4514.98
                             5039.84

 Zero-point correction=                           0.158189 (Hartree/Particle)
 Thermal correction to Energy=                    0.167426
 Thermal correction to Enthalpy=                  0.168370
 Thermal correction to Gibbs Free Energy=         0.123495
 Sum of electronic and zero-point Energies=           -422.992443
 Sum of electronic and thermal Energies=              -422.983206
 Sum of electronic and thermal Enthalpies=            -422.982262
 Sum of electronic and thermal Free Energies=         -423.027137

                     E (Thermal)             CV                S
                      KCal/Mol        Cal/Mol-Kelvin    Cal/Mol-Kelvin
 Total                  105.061             33.588             94.448
 Electronic               0.000              0.000              0.000
 Translational            0.889              2.981             40.409
 Rotational               0.889              2.981             29.033
 Vibrational            103.284             27.627             25.006
 Vibration     1          0.596              1.976              4.649
 Vibration     2          0.599              1.966              4.050
 Vibration     3          0.609              1.931              3.072
 Vibration     4          0.642              1.826              2.045
 Vibration     5          0.650              1.802              1.912
 Vibration     6          0.657              1.779              1.802
 Vibration     7          0.678              1.716              1.552
 Vibration     8          0.743              1.531              1.074
 Vibration     9          0.770              1.458              0.943
 Vibration    10          0.838              1.292              0.707
 Vibration    11          0.907              1.137              0.542

 Optimization completed.
    -- Stationary point found.
 Normal termination of Gaussian 09 at Mon Jan 27 14:57:41 2020.
