 Gaussian 09, Revision D.01,
 Gaussian 09:  ES64L-G09RevD.01 24-Apr-2013

 -----------------------------
 # b3lyp 6-31G(2df,p) opt Freq
 -----------------------------

 -----
 titel
 -----
 Symbolic Z-matrix:
 Charge =  0 Multiplicity = 1

 SCF Done:  E(RB3LYP) =  -423.091368063     A.U. after   13 cycles
 Optimization completed.
    -- Stationary point found.
 Normal termination of Gaussian 09 at Tue Jan 28 08:10:30 2020.

 ----------------------------------------------------------------------
 #N Geom=AllCheck Guess=TCheck SCRF=Check GenChk RB3LYP/6-31G(2df,p) Fr
 eq
 ----------------------------------------------------------------------

 Structure from the checkpoint file:  "/scratch/puck/g09_832d2353-b2c2-4a8f-b11e-6332f416d36a/Gau-54957.chk"
 -----
 titel
 -----
 Charge =  0 Multiplicity = 1

                         Standard orientation:
 ---------------------------------------------------------------------
 Center     Atomic      Atomic             Coordinates (Angstroms)
 Number     Number       Type             X           Y           Z
 ---------------------------------------------------------------------
      1          6           0       -2.058558   -1.401016    0.491084
      2          6           0       -1.391658   -0.494874   -0.544552
      3          6           0       -1.660355    1.067632   -0.286732
      4          8           0       -0.433166    1.727019    0.142017
      5          6           0        0.344746    0.621453    0.535523
      6          6           0        1.832405    0.232759    0.664879
      7          8           0        2.442999   -0.114689   -0.572986
      8          6           0        1.488253   -1.039615   -0.029227
      9          6           0        0.136562   -0.422773   -0.539633
     10          1           0       -1.871946   -2.455124    0.261653
     11          1           0       -1.695710   -1.208518    1.506001
     12          1           0       -3.143181   -1.248961    0.497919
     13          1           0       -1.778195   -0.757652   -1.533789
     14          1           0       -2.000589    1.578032   -1.191614
     15          1           0       -2.424677    1.186356    0.491879
     16          1           0       -0.053813    0.229433    1.489441
     17          1           0        2.490990    0.425345    1.504334
     18          1           0        1.818540   -2.051643    0.168165
     19          1           0        0.431556    0.022706   -1.494295
 ---------------------------------------------------------------------

 SCF Done:  E(RB3LYP) =  -423.091368063     A.U. after    1 cycles

 The electronic state is 1-A.
 Alpha  occ. eigenvalues --  -19.15942 -19.13906 -10.25334 -10.24840 -10.23413
 Alpha  occ. eigenvalues --  -10.23248 -10.20474 -10.18633 -10.18363  -1.08717
 Alpha  occ. eigenvalues --   -1.03256  -0.82071  -0.77484  -0.68978  -0.65744
 Alpha  occ. eigenvalues --   -0.63939  -0.57866  -0.55815  -0.51330  -0.49024
 Alpha  occ. eigenvalues --   -0.47348  -0.45130  -0.42644  -0.41799  -0.40919
 Alpha  occ. eigenvalues --   -0.39062  -0.37566  -0.36156  -0.34101  -0.33060
 Alpha  occ. eigenvalues --   -0.30975  -0.27826  -0.25941  -0.24995
 Alpha virt. eigenvalues --    0.06616   0.07525   0.10056   0.10130   0.12046
 Alpha virt. eigenvalues --    0.12626   0.14073   0.14796   0.14964   0.15954
 Alpha virt. eigenvalues --    0.17007   0.17964   0.18592   0.20243   0.20598

 Mulliken charges:
               1
     1  C   -0.398938
     2  C   -0.124039
     3  C   -0.087439
     4  O   -0.293376
     5  C    0.159059
     6  C   -0.055767
     7  O   -0.222317
     8  C   -0.101356
     9  C    0.058084
    10  H    0.119228
    11  H    0.119855
    12  H    0.118892
    13  H    0.080185
    14  H    0.115568
    15  H    0.103815
    16  H    0.071455
    17  H    0.110379
    18  H    0.112559
    19  H    0.114154
 Sum of Mulliken charges =   0.00000

 Dipole moment (field-independent basis, Debye):
    X=             -1.5662    Y=             -1.9625    Z=              0.9796  Tot=              2.6952
 Quadrupole moment (field-independent basis, Debye-Ang):
   XX=            -53.9133   YY=            -55.5849   ZZ=            -52.0541
   XY=             -0.9653   XZ=              4.5320   YZ=             -0.2516

  Exact polarizability:  88.341  -2.040  70.898   3.890   0.431  65.353
 Approx polarizability: 119.253  -1.473 109.235   2.409   3.204 104.373

                      1                      2                      3
                      A                      A                      A
 Frequencies --    115.8297               179.1650               216.7126
 Red. masses --      2.5539                 3.1243                 1.1002
 Frc consts  --      0.0202                 0.0591                 0.0304
 IR Inten    --      2.0346                 0.9960                 0.0076

                      4                      5                      6
                      A                      A                      A
 Frequencies --    248.8504               315.0003               400.3444
 Red. masses --      3.2989                 3.7463                 3.4545
 Frc consts  --      0.1204                 0.2190                 0.3262
 IR Inten    --      1.3059                 0.4852                 5.3899

                      7                      8                      9
                      A                      A                      A
 Frequencies --    417.5291               525.7599               630.9008
 Red. masses --      2.8547                 4.3164                 3.9399
 Frc consts  --      0.2932                 0.7030                 0.9240
 IR Inten    --      3.3233                 1.2631                19.4687

                     10                     11                     12
                      A                      A                      A
 Frequencies --    685.7167               707.7350               777.2080
 Red. masses --      3.8273                 5.0849                 4.2398
 Frc consts  --      1.0603                 1.5006                 1.5090
 IR Inten    --      4.3941                 1.3346                 9.2091

                     13                     14                     15
                      A                      A                      A
 Frequencies --    818.9685               838.5745               877.7744
 Red. masses --      4.0380                 1.7286                 4.5713
 Frc consts  --      1.5957                 0.7162                 2.0752
 IR Inten    --      2.0556                29.9905                 6.7976

                     16                     17                     18
                      A                      A                      A
 Frequencies --    918.5283               939.0842               943.3328
 Red. masses --      1.4252                 2.5203                 4.1873
 Frc consts  --      0.7084                 1.3095                 2.1954
 IR Inten    --      1.6581                 2.6377                70.6217

                     19                     20                     21
                      A                      A                      A
 Frequencies --    966.8405              1009.5717              1031.6732
 Red. masses --      2.4420                 2.5766                 1.3341
 Frc consts  --      1.3449                 1.5473                 0.8366
 IR Inten    --     22.4402                 8.3751                 3.4579

                     22                     23                     24
                      A                      A                      A
 Frequencies --   1067.1114              1086.2721              1124.0215
 Red. masses --      2.4830                 1.9582                 1.7199
 Frc consts  --      1.6659                 1.3614                 1.2802
 IR Inten    --     33.6147                 1.6431                38.2043

                     25                     26                     27
                      A                      A                      A
 Frequencies --   1141.1461              1167.3294              1185.5313
 Red. masses --      2.5433                 1.6793                 1.8713
 Frc consts  --      1.9513                 1.3483                 1.5496
 IR Inten    --     13.8385                 0.2503                18.2660

                     28                     29                     30
                      A                      A                      A
 Frequencies --   1220.3770              1239.2927              1258.0076
 Red. masses --      1.2575                 1.3147                 1.7039
 Frc consts  --      1.1035                 1.1897                 1.5888
 IR Inten    --      6.5299                 2.6871                 1.7906

                     31                     32                     33
                      A                      A                      A
 Frequencies --   1272.8974              1300.4903              1337.7459
 Red. masses --      1.5404                 1.9141                 1.6625
 Frc consts  --      1.4705                 1.9074                 1.7530
 IR Inten    --      3.3627                16.4760                 7.0594

                     34                     35                     36
                      A                      A                      A
 Frequencies --   1359.1917              1372.6577              1408.7172
 Red. masses --      1.3938                 1.4140                 1.2197
 Frc consts  --      1.5171                 1.5697                 1.4261
 IR Inten    --      8.5907                 1.1786                 1.8577

                     37                     38                     39
                      A                      A                      A
 Frequencies --   1425.4826              1445.0886              1496.8846
 Red. masses --      1.3003                 1.1905                 1.0529
 Frc consts  --      1.5567                 1.4648                 1.3900
 IR Inten    --      7.4840                23.4974                 3.0606

                     40                     41                     42
                      A                      A                      A
 Frequencies --   1499.1980              1505.6717              2931.9222
 Red. masses --      1.0475                 1.0951                 1.0796
 Frc consts  --      1.3872                 1.4627                 5.4681
 IR Inten    --      4.2154                 0.4624                43.6273

                     43                     44                     45
                      A                      A                      A
 Frequencies --   3022.0898              3032.3741              3050.0106
 Red. masses --      1.0632                 1.0362                 1.0848
 Frc consts  --      5.7210                 5.6140                 5.9454
 IR Inten    --     46.9009                28.7543                 8.1468

                     46                     47                     48
                      A                      A                      A
 Frequencies --   3063.5148              3092.8653              3098.4237
 Red. masses --      1.0849                 1.1017                 1.1010
 Frc consts  --      5.9991                 6.2092                 6.2275
 IR Inten    --     13.8510                30.3819                29.1898

                     49                     50                     51
                      A                      A                      A
 Frequencies --   3104.9459              3180.1473              3203.1483
 Red. masses --      1.1010                 1.0900                 1.0981
 Frc consts  --      6.2536                 6.4951                 6.6384
 IR Inten    --     43.1696                17.6777                18.0905

 - Thermochemistry -
 -------------------
 Temperature   298.150 Kelvin.  Pressure   1.00000 Atm.
 Atom     1 has atomic number  6 and mass  12.00000

 Molecular mass:   126.06808 amu.
 Principal axes and moments of inertia in atomic units:
                           1         2         3
     Eigenvalues --   589.394761255.634841569.44161
           X            0.99978   0.01891   0.00874
           Y           -0.01864   0.99938  -0.02981
           Z           -0.00930   0.02965   0.99952
 This molecule is an asymmetric top.
 Rotational symmetry number  1.
 Warning -- assumption of classical behavior for rotation
           may cause significant error
 Rotational temperatures (Kelvin)      0.14695     0.06898     0.05519
 Rotational constants (GHZ):           3.06202     1.43731     1.14993
 Zero-point vibrational energy     420234.1 (Joules/Mol)
                                  100.43836 (Kcal/Mol)
 Warning -- explicit consideration of   8 degrees of freedom as
           vibrations may cause significant error
 Vibrational temperatures:    166.65   257.78   311.80   358.04   453.21
          (Kelvin)            576.01   600.73   756.45   907.72   986.59
                             1018.27  1118.23  1178.31  1206.52  1262.92
                             1321.56  1351.13  1357.24  1391.07  1452.55
                             1484.35  1535.33  1562.90  1617.21  1641.85
                             1679.52  1705.71  1755.85  1783.06  1809.99
                             1831.41  1871.11  1924.72  1955.57  1974.95
                             2026.83  2050.95  2079.16  2153.68  2157.01
                             2166.32  4218.38  4348.11  4362.90  4388.28
                             4407.71  4449.94  4457.94  4467.32  4575.52
                             4608.61

 Zero-point correction=                           0.160059 (Hartree/Particle)
 Thermal correction to Energy=                    0.167596
 Thermal correction to Enthalpy=                  0.168540
 Thermal correction to Gibbs Free Energy=         0.128134
 Sum of electronic and zero-point Energies=           -422.931309
 Sum of electronic and thermal Energies=              -422.923773
 Sum of electronic and thermal Enthalpies=            -422.922828
 Sum of electronic and thermal Free Energies=         -422.963234

                     E (Thermal)             CV                S
                      KCal/Mol        Cal/Mol-Kelvin    Cal/Mol-Kelvin
 Total                  105.168             29.933             85.041
 Electronic               0.000              0.000              0.000
 Translational            0.889              2.981             40.409
 Rotational               0.889              2.981             28.542
 Vibrational            103.390             23.971             16.091
 Vibration     1          0.608              1.936              3.169
 Vibration     2          0.629              1.868              2.337
 Vibration     3          0.646              1.816              1.986
 Vibration     4          0.662              1.765              1.739
 Vibration     5          0.702              1.645              1.336
 Vibration     6          0.766              1.469              0.961
 Vibration     7          0.781              1.432              0.900
 Vibration     8          0.881              1.193              0.597

 Optimization completed.
    -- Stationary point found.
 Normal termination of Gaussian 09 at Tue Jan 28 08:57:06 2020.
