 Gaussian 09, Revision D.01,
 Gaussian 09:  ES64L-G09RevD.01 24-Apr-2013

 -----------------------------
 # b3lyp 6-31G(2df,p) opt Freq
 -----------------------------

 -----
 titel
 -----
 Symbolic Z-matrix:
 Charge =  0 Multiplicity = 1

 SCF Done:  E(RB3LYP) =  -423.027871150     A.U. after   14 cycles
 Optimization completed.
    -- Stationary point found.
 Normal termination of Gaussian 09 at Tue Jan 28 13:32:03 2020.

 ----------------------------------------------------------------------
 #N Geom=AllCheck Guess=TCheck SCRF=Check GenChk RB3LYP/6-31G(2df,p) Fr
 eq
 ----------------------------------------------------------------------

 Structure from the checkpoint file:  "/scratch/puck/g09_c8369169-2bf3-4fc2-8649-6ca14d6cc748/Gau-109495.chk"
 -----
 titel
 -----
 Charge =  0 Multiplicity = 1

                         Standard orientation:
 ---------------------------------------------------------------------
 Center     Atomic      Atomic             Coordinates (Angstroms)
 Number     Number       Type             X           Y           Z
 ---------------------------------------------------------------------
      1          8           0       -2.942590   -0.902179    0.141594
      2          6           0       -2.289535    0.301538   -0.214172
      3          6           0       -0.885176    0.375676    0.363039
      4          6           0        0.022454    1.621818   -0.073446
      5          6           0        1.134352    0.571397   -0.125685
      6          6           0        1.721367   -0.111337    1.147250
      7          6           0        1.588213   -1.133856    0.024405
      8          8           0        2.199907   -0.106052   -0.925365
      9          6           0        0.175670   -0.570619   -0.352587
     10          1           0       -2.385753   -1.629287   -0.158947
     11          1           0       -2.249509    0.433627   -1.308207
     12          1           0       -2.905118    1.113694    0.188835
     13          1           0       -0.934003    0.269445    1.447300
     14          1           0       -0.276504    1.981321   -1.062342
     15          1           0        0.128772    2.463339    0.615620
     16          1           0        2.743084    0.179411    1.388779
     17          1           0        1.086268   -0.218201    2.028290
     18          1           0        2.003156   -2.139889   -0.074832
     19          1           0       -0.073013   -0.715309   -1.407162
 ---------------------------------------------------------------------

 SCF Done:  E(RB3LYP) =  -423.027871150     A.U. after    1 cycles

 The electronic state is 1-A.
 Alpha  occ. eigenvalues --  -19.13964 -19.13442 -10.26224 -10.25248 -10.23399
 Alpha  occ. eigenvalues --  -10.21490 -10.20889 -10.19352 -10.18817  -1.04805
 Alpha  occ. eigenvalues --   -1.02167  -0.85809  -0.76204  -0.70613  -0.67793
 Alpha  occ. eigenvalues --   -0.61140  -0.60364  -0.53805  -0.51081  -0.49006
 Alpha  occ. eigenvalues --   -0.46191  -0.44678  -0.44368  -0.43157  -0.39682
 Alpha  occ. eigenvalues --   -0.38736  -0.36071  -0.35074  -0.33636  -0.32768
 Alpha  occ. eigenvalues --   -0.31402  -0.27369  -0.26345  -0.22883
 Alpha virt. eigenvalues --    0.04998   0.07414   0.08367   0.09062   0.10533
 Alpha virt. eigenvalues --    0.11485   0.12625   0.13066   0.14665   0.15613
 Alpha virt. eigenvalues --    0.16796   0.17021   0.18162   0.18842   0.20713

 Mulliken charges:
               1
     1  O   -0.417061
     2  C   -0.083432
     3  C   -0.051053
     4  C   -0.367385
     5  C    0.387229
     6  C   -0.255330
     7  C    0.005777
     8  O   -0.377344
     9  C   -0.061030
    10  H    0.287535
    11  H    0.087196
    12  H    0.113451
    13  H    0.100393
    14  H    0.124593
    15  H    0.112961
    16  H    0.110011
    17  H    0.102588
    18  H    0.093510
    19  H    0.087391
 Sum of Mulliken charges =   0.00000

 Dipole moment (field-independent basis, Debye):
    X=             -0.2846    Y=              0.2878    Z=              0.8470  Tot=              0.9387
 Quadrupole moment (field-independent basis, Debye-Ang):
   XX=            -64.6365   YY=            -48.9014   ZZ=            -53.8194
   XY=             -2.9947   XZ=              5.5546   YZ=              1.0061

  Exact polarizability:  87.728  -6.595  75.517   2.151   1.575  66.933
 Approx polarizability: 122.012  -7.255 116.796  -4.227   2.170 107.317

                      1                      2                      3
                      A                      A                      A
 Frequencies --    101.8207               139.2403               215.5392
 Red. masses --      4.2854                 4.3468                 1.9397
 Frc consts  --      0.0262                 0.0497                 0.0531
 IR Inten    --      6.0008                 1.1842                 8.4856

                      4                      5                      6
                      A                      A                      A
 Frequencies --    305.2174               322.1642               352.0510
 Red. masses --      2.2529                 2.1140                 1.9683
 Frc consts  --      0.1237                 0.1293                 0.1437
 IR Inten    --     26.9267                27.5124                55.1768

                      7                      8                      9
                      A                      A                      A
 Frequencies --    426.3135               470.7564               502.0389
 Red. masses --      2.9800                 3.4491                 3.2631
 Frc consts  --      0.3191                 0.4503                 0.4846
 IR Inten    --      4.8779                 3.5498                 4.5373

                     10                     11                     12
                      A                      A                      A
 Frequencies --    581.6568               650.4915               688.5228
 Red. masses --      3.3456                 3.7541                 2.5140
 Frc consts  --      0.6669                 0.9359                 0.7022
 IR Inten    --     13.7981                13.8104                 2.8167

                     13                     14                     15
                      A                      A                      A
 Frequencies --    783.6037               821.6635               850.1077
 Red. masses --      3.0052                 2.5067                 3.1255
 Frc consts  --      1.0872                 0.9971                 1.3308
 IR Inten    --      9.2277                 4.1402                14.7219

                     16                     17                     18
                      A                      A                      A
 Frequencies --    881.5784               934.9254               963.3822
 Red. masses --      3.2900                 2.2727                 1.8255
 Frc consts  --      1.5065                 1.1704                 0.9982
 IR Inten    --     17.4100                 6.8175                 2.0687

                     19                     20                     21
                      A                      A                      A
 Frequencies --    966.1147               993.4973              1014.1788
 Red. masses --      3.0513                 2.1830                 1.3059
 Frc consts  --      1.6780                 1.2695                 0.7914
 IR Inten    --     25.4981                13.6894                 4.7778

                     22                     23                     24
                      A                      A                      A
 Frequencies --   1029.4296              1058.5246              1085.1067
 Red. masses --      1.3712                 2.2851                 3.0018
 Frc consts  --      0.8561                 1.5085                 2.0825
 IR Inten    --      3.6881                42.5563                59.7919

                     25                     26                     27
                      A                      A                      A
 Frequencies --   1117.4481              1141.9968              1154.9909
 Red. masses --      1.9120                 1.7460                 1.4945
 Frc consts  --      1.4067                 1.3416                 1.1746
 IR Inten    --      2.6708                 9.5240                 7.3914

                     28                     29                     30
                      A                      A                      A
 Frequencies --   1175.5848              1191.1889              1196.7210
 Red. masses --      1.2270                 1.4682                 1.4408
 Frc consts  --      0.9991                 1.2274                 1.2157
 IR Inten    --     12.6303                 5.5802                22.7615

                     31                     32                     33
                      A                      A                      A
 Frequencies --   1224.2052              1237.2133              1252.0362
 Red. masses --      1.4167                 1.5659                 1.9168
 Frc consts  --      1.2509                 1.4122                 1.7703
 IR Inten    --     10.8389                 2.7802                 9.3488

                     34                     35                     36
                      A                      A                      A
 Frequencies --   1286.2350              1303.2448              1355.4228
 Red. masses --      2.3865                 1.5147                 1.3943
 Frc consts  --      2.3263                 1.5158                 1.5092
 IR Inten    --      8.0268                 7.6962                 0.4370

                     37                     38                     39
                      A                      A                      A
 Frequencies --   1384.3919              1420.4929              1478.4794
 Red. masses --      1.2128                 1.3013                 1.1154
 Frc consts  --      1.3695                 1.5470                 1.4365
 IR Inten    --      5.5938                70.1557                 1.2130

                     40                     41                     42
                      A                      A                      A
 Frequencies --   1494.9495              1507.5014              2967.7626
 Red. masses --      1.1926                 1.0887                 1.0701
 Frc consts  --      1.5704                 1.4577                 5.5529
 IR Inten    --      2.7515                 1.3683                48.2231

                     43                     44                     45
                      A                      A                      A
 Frequencies --   3056.9668              3063.8051              3074.1242
 Red. masses --      1.0571                 1.0904                 1.0679
 Frc consts  --      5.8201                 6.0307                 5.9460
 IR Inten    --     32.4928                32.4839                30.9778

                     46                     47                     48
                      A                      A                      A
 Frequencies --   3077.6846              3089.3085              3108.2424
 Red. masses --      1.0763                 1.0890                 1.0906
 Frc consts  --      6.0067                 6.1235                 6.2078
 IR Inten    --     35.2657                45.0942                11.7708

                     49                     50                     51
                      A                      A                      A
 Frequencies --   3123.1229              3158.8028              3798.6184
 Red. masses --      1.1043                 1.1102                 1.0658
 Frc consts  --      6.3463                 6.5268                 9.0607
 IR Inten    --     34.4931                22.4087                12.4610

 - Thermochemistry -
 -------------------
 Temperature   298.150 Kelvin.  Pressure   1.00000 Atm.
 Atom     1 has atomic number  8 and mass  15.99491

 Molecular mass:   126.06808 amu.
 Principal axes and moments of inertia in atomic units:
                           1         2         3
     Eigenvalues --   490.454221607.611441762.31014
           X            0.99965  -0.01560   0.02130
           Y            0.01531   0.99979   0.01364
           Z           -0.02151  -0.01331   0.99968
 This molecule is an asymmetric top.
 Rotational symmetry number  1.
 Warning -- assumption of classical behavior for rotation
           may cause significant error
 Rotational temperatures (Kelvin)      0.17660     0.05388     0.04915
 Rotational constants (GHZ):           3.67973     1.12262     1.02408
 Zero-point vibrational energy     416171.6 (Joules/Mol)
                                   99.46741 (Kcal/Mol)
 Warning -- explicit consideration of  10 degrees of freedom as
           vibrations may cause significant error
 Vibrational temperatures:    146.50   200.34   310.11   439.14   463.52
          (Kelvin)            506.52   613.37   677.31   722.32   836.87
                              935.91   990.63  1127.43  1182.19  1223.11
                             1268.39  1345.15  1386.09  1390.02  1429.42
                             1459.18  1481.12  1522.98  1561.22  1607.76
                             1643.08  1661.77  1691.40  1713.85  1721.81
                             1761.36  1780.07  1801.40  1850.60  1875.08
                             1950.15  1991.83  2043.77  2127.20  2150.90
                             2168.96  4269.94  4398.29  4408.13  4422.97
                             4428.10  4444.82  4472.06  4493.47  4544.81
                             5465.36

 Zero-point correction=                           0.158511 (Hartree/Particle)
 Thermal correction to Energy=                    0.166410
 Thermal correction to Enthalpy=                  0.167354
 Thermal correction to Gibbs Free Energy=         0.126180
 Sum of electronic and zero-point Energies=           -422.869360
 Sum of electronic and thermal Energies=              -422.861461
 Sum of electronic and thermal Enthalpies=            -422.860517
 Sum of electronic and thermal Free Energies=         -422.901691

                     E (Thermal)             CV                S
                      KCal/Mol        Cal/Mol-Kelvin    Cal/Mol-Kelvin
 Total                  104.424             31.510             86.658
 Electronic               0.000              0.000              0.000
 Translational            0.889              2.981             40.409
 Rotational               0.889              2.981             28.720
 Vibrational            102.646             25.548             17.529
 Vibration     1          0.604              1.948              3.419
 Vibration     2          0.615              1.914              2.814
 Vibration     3          0.645              1.817              1.996
 Vibration     4          0.696              1.664              1.388
 Vibration     5          0.707              1.631              1.299
 Vibration     6          0.729              1.571              1.157
 Vibration     7          0.788              1.413              0.871
 Vibration     8          0.828              1.315              0.735
 Vibration     9          0.857              1.245              0.653
 Vibration    10          0.938              1.071              0.482

 Optimization completed.
    -- Stationary point found.
 Normal termination of Gaussian 09 at Tue Jan 28 14:14:24 2020.
