 Gaussian 09, Revision D.01,
 Gaussian 09:  ES64L-G09RevD.01 24-Apr-2013

 -----------------------------
 # b3lyp 6-31G(2df,p) opt Freq
 -----------------------------

 -----
 titel
 -----
 Symbolic Z-matrix:
 Charge =  0 Multiplicity = 1

 SCF Done:  E(RB3LYP) =  -423.200448797     A.U. after   14 cycles
 Optimization completed.
    -- Stationary point found.
 Normal termination of Gaussian 09 at Mon Jan 27 13:52:01 2020.

 ----------------------------------------------------------------------
 #N Geom=AllCheck Guess=TCheck SCRF=Check GenChk RB3LYP/6-31G(2df,p) Fr
 eq
 ----------------------------------------------------------------------

 Structure from the checkpoint file:  "/scratch/puck/g09_221be0ab-8f81-477c-ae40-0242b635ab19/Gau-49601.chk"
 -----
 titel
 -----
 Charge =  0 Multiplicity = 1

                         Standard orientation:
 ---------------------------------------------------------------------
 Center     Atomic      Atomic             Coordinates (Angstroms)
 Number     Number       Type             X           Y           Z
 ---------------------------------------------------------------------
      1          8           0        3.618424   -0.103262   -0.402687
      2          6           0        2.513416   -0.381745   -0.011104
      3          6           0        1.466301    0.638251    0.384070
      4          6           0        0.075638    0.299454   -0.154799
      5          6           0       -0.947581    1.417494    0.077197
      6          6           0       -2.342303    0.903624   -0.167347
      7          6           0       -2.603861   -0.399174   -0.232347
      8          6           0       -1.536755   -1.435001   -0.015762
      9          8           0       -0.335740   -0.893268    0.504950
     10          1           0        2.184402   -1.438171    0.090576
     11          1           0        1.402652    0.647557    1.481312
     12          1           0        1.793560    1.627124    0.051094
     13          1           0        0.136626    0.107947   -1.240693
     14          1           0       -0.852326    1.804874    1.101619
     15          1           0       -0.728293    2.259529   -0.591430
     16          1           0       -3.135113    1.634348   -0.301216
     17          1           0       -3.603993   -0.767289   -0.444196
     18          1           0       -1.869435   -2.183017    0.713675
     19          1           0       -1.338683   -1.978083   -0.958291
 ---------------------------------------------------------------------

 SCF Done:  E(RB3LYP) =  -423.200448797     A.U. after    1 cycles

 The electronic state is 1-A.
 Alpha  occ. eigenvalues --  -19.14894 -19.13474 -10.26623 -10.24692 -10.23908
 Alpha  occ. eigenvalues --  -10.19482 -10.19372 -10.19158 -10.18916  -1.04545
 Alpha  occ. eigenvalues --   -1.04037  -0.81086  -0.79947  -0.72625  -0.65919
 Alpha  occ. eigenvalues --   -0.62527  -0.57336  -0.53739  -0.50946  -0.48927
 Alpha  occ. eigenvalues --   -0.47426  -0.45029  -0.43689  -0.42663  -0.41187
 Alpha  occ. eigenvalues --   -0.40411  -0.38643  -0.37992  -0.36517  -0.35293
 Alpha  occ. eigenvalues --   -0.31570  -0.26858  -0.25390  -0.24172
 Alpha virt. eigenvalues --   -0.01908   0.01560   0.08457   0.10601   0.11998
 Alpha virt. eigenvalues --    0.12374   0.13765   0.14705   0.14820   0.16017
 Alpha virt. eigenvalues --    0.17227   0.17932   0.19655   0.20844   0.22551

 Mulliken charges:
               1
     1  O   -0.243835
     2  C    0.151269
     3  C   -0.297207
     4  C    0.110214
     5  C   -0.258574
     6  C   -0.069284
     7  C   -0.064141
     8  C   -0.119456
     9  O   -0.265287
    10  H    0.092917
    11  H    0.132539
    12  H    0.120150
    13  H    0.075911
    14  H    0.114070
    15  H    0.110101
    16  H    0.094040
    17  H    0.094945
    18  H    0.120725
    19  H    0.100905
 Sum of Mulliken charges =   0.00000

 Dipole moment (field-independent basis, Debye):
    X=             -3.3394    Y=              0.4165    Z=              0.0890  Tot=              3.3664
 Quadrupole moment (field-independent basis, Debye-Ang):
   XX=            -64.3432   YY=            -49.8544   ZZ=            -53.6007
   XY=              1.1264   XZ=              3.4299   YZ=              0.6975

  Exact polarizability:  92.802   4.466  85.085  -0.478   1.104  56.066
 Approx polarizability: 119.556   9.963 131.301  -3.526   0.490  90.553

                      1                      2                      3
                      A                      A                      A
 Frequencies --     53.1584                77.0140               117.4053
 Red. masses --      4.5109                 3.2561                 3.1045
 Frc consts  --      0.0075                 0.0114                 0.0252
 IR Inten    --      6.2489                 1.5010                 1.7601

                      4                      5                      6
                      A                      A                      A
 Frequencies --    182.3127               224.4445               337.9729
 Red. masses --      2.0531                 2.8272                 4.3740
 Frc consts  --      0.0402                 0.0839                 0.2944
 IR Inten    --      0.8724                 4.4719                 1.4775

                      7                      8                      9
                      A                      A                      A
 Frequencies --    380.5880               410.9952               472.7793
 Red. masses --      2.8029                 2.7737                 2.8331
 Frc consts  --      0.2392                 0.2760                 0.3731
 IR Inten    --      3.9776                 8.3650                 0.1607

                     10                     11                     12
                      A                      A                      A
 Frequencies --    531.4278               550.2216               668.7139
 Red. masses --      3.2471                 3.0727                 1.1833
 Frc consts  --      0.5403                 0.5481                 0.3118
 IR Inten    --      4.8938                 4.8036                21.3484

                     13                     14                     15
                      A                      A                      A
 Frequencies --    770.8432               810.8945               873.2997
 Red. masses --      1.8841                 3.0251                 2.7419
 Frc consts  --      0.6596                 1.1720                 1.2321
 IR Inten    --      9.9690                 5.3939                 6.0265

                     16                     17                     18
                      A                      A                      A
 Frequencies --    922.5435               937.0114               959.2697
 Red. masses --      2.9113                 2.5633                 1.8404
 Frc consts  --      1.4598                 1.3260                 0.9978
 IR Inten    --      3.7477                 1.5743                 2.8281

                     19                     20                     21
                      A                      A                      A
 Frequencies --    996.3481              1029.2252              1036.5429
 Red. masses --      1.2001                 2.6063                 1.8945
 Frc consts  --      0.7019                 1.6267                 1.1993
 IR Inten    --      1.2819                18.8485                13.0140

                     22                     23                     24
                      A                      A                      A
 Frequencies --   1062.7718              1113.7590              1115.2327
 Red. masses --      2.2097                 2.9000                 2.6237
 Frc consts  --      1.4705                 2.1195                 1.9226
 IR Inten    --      7.0172                40.2646                28.7957

                     25                     26                     27
                      A                      A                      A
 Frequencies --   1125.9013              1198.9961              1207.8627
 Red. masses --      2.3890                 1.2490                 1.3293
 Frc consts  --      1.7843                 1.0579                 1.1426
 IR Inten    --     68.0516                 5.2616                26.2752

                     28                     29                     30
                      A                      A                      A
 Frequencies --   1243.1066              1276.6122              1282.2856
 Red. masses --      1.1692                 1.2329                 1.3399
 Frc consts  --      1.0645                 1.1839                 1.2981
 IR Inten    --      2.1331                10.4695                 0.4935

                     31                     32                     33
                      A                      A                      A
 Frequencies --   1336.6845              1372.9871              1395.2590
 Red. masses --      1.4754                 1.2163                 1.5908
 Frc consts  --      1.5532                 1.3509                 1.8247
 IR Inten    --      3.4219                 9.5776                11.1821

                     34                     35                     36
                      A                      A                      A
 Frequencies --   1405.6152              1411.2239              1422.8877
 Red. masses --      1.2824                 1.6974                 1.2678
 Frc consts  --      1.4928                 1.9918                 1.5123
 IR Inten    --      4.1016                16.4898                13.2484

                     37                     38                     39
                      A                      A                      A
 Frequencies --   1442.3179              1469.6887              1489.4037
 Red. masses --      1.0960                 1.0934                 1.0930
 Frc consts  --      1.3434                 1.3915                 1.4286
 IR Inten    --      4.4199                 2.8018                 2.2097

                     40                     41                     42
                      A                      A                      A
 Frequencies --   1727.6986              1830.7252              2908.1792
 Red. masses --      6.5519                 9.9551                 1.0832
 Frc consts  --     11.5227                19.6581                 5.3978
 IR Inten    --      2.8101               190.5015                69.7020

                     43                     44                     45
                      A                      A                      A
 Frequencies --   2937.0985              2948.0545              3008.2620
 Red. masses --      1.0733                 1.0817                 1.0634
 Frc consts  --      5.4550                 5.5391                 5.6701
 IR Inten    --     48.2752                45.9504                24.7526

                     46                     47                     48
                      A                      A                      A
 Frequencies --   3024.2426              3049.1142              3051.7378
 Red. masses --      1.0642                 1.0972                 1.0870
 Frc consts  --      5.7347                 6.0102                 5.9646
 IR Inten    --      9.7664                24.5982                25.6817

                     49                     50                     51
                      A                      A                      A
 Frequencies --   3104.9906              3155.4828              3178.1893
 Red. masses --      1.0968                 1.0838                 1.0981
 Frc consts  --      6.2300                 6.3579                 6.5354
 IR Inten    --     10.7378                 6.3247                28.1408

 - Thermochemistry -
 -------------------
 Temperature   298.150 Kelvin.  Pressure   1.00000 Atm.
 Atom     1 has atomic number  8 and mass  15.99491

 Molecular mass:   126.06808 amu.
 Principal axes and moments of inertia in atomic units:
                           1         2         3
     Eigenvalues --   441.495091983.448252304.91323
           X            0.99996   0.00398   0.00801
           Y           -0.00412   0.99983   0.01794
           Z           -0.00794  -0.01797   0.99981
 This molecule is an asymmetric top.
 Rotational symmetry number  1.
 Warning -- assumption of classical behavior for rotation
           may cause significant error
 Rotational temperatures (Kelvin)      0.19618     0.04367     0.03758
 Rotational constants (GHZ):           4.08779     0.90990     0.78300
 Zero-point vibrational energy     416536.0 (Joules/Mol)
                                   99.55450 (Kcal/Mol)
 Warning -- explicit consideration of  11 degrees of freedom as
           vibrations may cause significant error
 Vibrational temperatures:     76.48   110.81   168.92   262.31   322.93
          (Kelvin)            486.27   547.58   591.33   680.22   764.61
                              791.65   962.13  1109.07  1166.69  1256.48
                             1327.33  1348.15  1380.17  1433.52  1480.82
                             1491.35  1529.09  1602.45  1604.57  1619.92
                             1725.09  1737.84  1788.55  1836.76  1844.92
                             1923.19  1975.42  2007.46  2022.36  2030.43
                             2047.22  2075.17  2114.55  2142.92  2485.77
                             2634.00  4184.22  4225.82  4241.59  4328.21
                             4351.21  4386.99  4390.76  4467.38  4540.03
                             4572.70

 Zero-point correction=                           0.158650 (Hartree/Particle)
 Thermal correction to Energy=                    0.167370
 Thermal correction to Enthalpy=                  0.168314
 Thermal correction to Gibbs Free Energy=         0.124268
 Sum of electronic and zero-point Energies=           -423.041799
 Sum of electronic and thermal Energies=              -423.033079
 Sum of electronic and thermal Enthalpies=            -423.032134
 Sum of electronic and thermal Free Energies=         -423.076180

                     E (Thermal)             CV                S
                      KCal/Mol        Cal/Mol-Kelvin    Cal/Mol-Kelvin
 Total                  105.026             31.842             92.703
 Electronic               0.000              0.000              0.000
 Translational            0.889              2.981             40.409
 Rotational               0.889              2.981             29.091
 Vibrational            103.249             25.880             23.203
 Vibration     1          0.596              1.976              4.696
 Vibration     2          0.599              1.964              3.966
 Vibration     3          0.608              1.935              3.143
 Vibration     4          0.630              1.864              2.305
 Vibration     5          0.649              1.804              1.923
 Vibration     6          0.718              1.600              1.222
 Vibration     7          0.750              1.512              1.037
 Vibration     8          0.775              1.446              0.923
 Vibration     9          0.830              1.310              0.730
 Vibration    10          0.886              1.180              0.584
 Vibration    11          0.906              1.139              0.544

 Optimization completed.
    -- Stationary point found.
 Normal termination of Gaussian 09 at Mon Jan 27 14:30:36 2020.
