 Gaussian 09, Revision D.01,
 Gaussian 09:  ES64L-G09RevD.01 24-Apr-2013

 -----------------------------
 # b3lyp 6-31G(2df,p) opt Freq
 -----------------------------

 -----
 titel
 -----
 Symbolic Z-matrix:
 Charge =  0 Multiplicity = 1

 SCF Done:  E(RB3LYP) =  -423.158416415     A.U. after   14 cycles
 Optimization completed.
    -- Stationary point found.
 Normal termination of Gaussian 09 at Mon Jan 27 16:34:54 2020.

 ----------------------------------------------------------------------
 #N Geom=AllCheck Guess=TCheck SCRF=Check GenChk RB3LYP/6-31G(2df,p) Fr
 eq
 ----------------------------------------------------------------------

 Structure from the checkpoint file:  "/scratch/puck/g09_22ae51e8-8daa-4cc4-9e3c-c3c4e1c276f2/Gau-165913.chk"
 -----
 titel
 -----
 Charge =  0 Multiplicity = 1

                         Standard orientation:
 ---------------------------------------------------------------------
 Center     Atomic      Atomic             Coordinates (Angstroms)
 Number     Number       Type             X           Y           Z
 ---------------------------------------------------------------------
      1          6           0       -0.639466    1.889553   -0.026247
      2          6           0       -0.601450    0.369887    0.141143
      3          6           0        0.111692   -0.157257    1.450285
      4          6           0        1.112230   -0.922495    0.562511
      5          8           0        2.272528   -0.132270    0.225160
      6          6           0        1.724218    0.194793   -1.075878
      7          6           0        0.384446   -0.465926   -0.731623
      8          6           0       -2.013410   -0.170771    0.088970
      9          8           0       -2.418456   -1.021901   -0.660469
     10          1           0       -1.346998    2.338087    0.680668
     11          1           0        0.341970    2.328225    0.171656
     12          1           0       -0.948216    2.174593   -1.037782
     13          1           0        0.566569    0.611656    2.078721
     14          1           0       -0.520074   -0.801799    2.070131
     15          1           0        1.366701   -1.953508    0.821069
     16          1           0        1.736752    1.271810   -1.277658
     17          1           0        2.272016   -0.320439   -1.875566
     18          1           0       -0.082811   -1.130963   -1.454048
     19          1           0       -2.688055    0.288999    0.850308
 ---------------------------------------------------------------------

 SCF Done:  E(RB3LYP) =  -423.158416415     A.U. after    1 cycles

 The electronic state is 1-A.
 Alpha  occ. eigenvalues --  -19.14589 -19.13572 -10.27365 -10.23869 -10.23389
 Alpha  occ. eigenvalues --  -10.21258 -10.19555 -10.19395 -10.19318  -1.05315
 Alpha  occ. eigenvalues --   -1.04219  -0.84850  -0.74188  -0.72238  -0.65654
 Alpha  occ. eigenvalues --   -0.63774  -0.57996  -0.52157  -0.51060  -0.47638
 Alpha  occ. eigenvalues --   -0.47531  -0.45216  -0.43908  -0.42590  -0.41983
 Alpha  occ. eigenvalues --   -0.41217  -0.38500  -0.37777  -0.34571  -0.32813
 Alpha  occ. eigenvalues --   -0.31266  -0.28878  -0.25982  -0.24621
 Alpha virt. eigenvalues --   -0.02545   0.06839   0.08909   0.10382   0.10703
 Alpha virt. eigenvalues --    0.12268   0.13135   0.14387   0.14799   0.15992
 Alpha virt. eigenvalues --    0.17277   0.18029   0.19345   0.19544   0.20456

 Mulliken charges:
               1
     1  C   -0.475061
     2  C    0.220711
     3  C   -0.306285
     4  C    0.134682
     5  O   -0.295787
     6  C   -0.101899
     7  C   -0.124077
     8  C    0.116894
     9  O   -0.253960
    10  H    0.122900
    11  H    0.139329
    12  H    0.129406
    13  H    0.117152
    14  H    0.109352
    15  H    0.081408
    16  H    0.102132
    17  H    0.104427
    18  H    0.101874
    19  H    0.076803
 Sum of Mulliken charges =   0.00000

 Dipole moment (field-independent basis, Debye):
    X=             -0.0974    Y=              1.4056    Z=              0.5995  Tot=              1.5312
 Quadrupole moment (field-independent basis, Debye-Ang):
   XX=            -62.5851   YY=            -52.5139   ZZ=            -51.4740
   XY=             -4.2916   XZ=             -5.2702   YZ=             -1.8667

  Exact polarizability:  80.425  -0.403  72.405  -3.947   0.946  72.957
 Approx polarizability: 111.859   4.547 108.225   0.984   5.754 112.287

                      1                      2                      3
                      A                      A                      A
 Frequencies --     63.7748                87.9478               190.1409
 Red. masses --      4.7325                 3.3062                 3.4728
 Frc consts  --      0.0113                 0.0151                 0.0740
 IR Inten    --      6.2097                 2.0353                 6.0829

                      4                      5                      6
                      A                      A                      A
 Frequencies --    234.5684               271.7975               296.9528
 Red. masses --      1.3301                 2.8554                 1.9674
 Frc consts  --      0.0431                 0.1243                 0.1022
 IR Inten    --      2.8808                 1.5581                 1.7490

                      7                      8                      9
                      A                      A                      A
 Frequencies --    330.1497               395.7981               431.9659
 Red. masses --      2.2152                 2.1629                 2.2786
 Frc consts  --      0.1423                 0.1996                 0.2505
 IR Inten    --      0.8601                 2.7831                 0.4874

                     10                     11                     12
                      A                      A                      A
 Frequencies --    577.8508               630.8968               729.4997
 Red. masses --      4.1608                 5.2940                 2.9188
 Frc consts  --      0.8186                 1.2415                 0.9152
 IR Inten    --      0.0689                12.4064                 0.5546

                     13                     14                     15
                      A                      A                      A
 Frequencies --    795.9987               836.3516               886.7918
 Red. masses --      2.1211                 1.9653                 2.4172
 Frc consts  --      0.7918                 0.8099                 1.1200
 IR Inten    --      2.4768                 2.2508                13.4721

                     16                     17                     18
                      A                      A                      A
 Frequencies --    912.3531               928.9092               964.5646
 Red. masses --      2.1275                 3.0604                 1.5291
 Frc consts  --      1.0434                 1.5559                 0.8382
 IR Inten    --     15.5045                30.8543                 0.9524

                     19                     20                     21
                      A                      A                      A
 Frequencies --    979.4222               992.8254              1013.5946
 Red. masses --      2.5291                 1.8275                 3.8368
 Frc consts  --      1.4294                 1.0613                 2.3224
 IR Inten    --      9.9700                11.8809                56.4504

                     22                     23                     24
                      A                      A                      A
 Frequencies --   1030.9724              1066.6412              1108.7145
 Red. masses --      1.8435                 2.0590                 1.5940
 Frc consts  --      1.1545                 1.3802                 1.1545
 IR Inten    --     14.0599                 0.0414                 8.4563

                     25                     26                     27
                      A                      A                      A
 Frequencies --   1146.9343              1162.4634              1194.5812
 Red. masses --      1.8587                 1.4652                 2.1139
 Frc consts  --      1.4406                 1.1666                 1.7773
 IR Inten    --      0.6490                 1.8079                14.6939

                     28                     29                     30
                      A                      A                      A
 Frequencies --   1208.4192              1234.9598              1242.7404
 Red. masses --      1.7922                 2.3327                 1.6519
 Frc consts  --      1.5419                 2.0961                 1.5032
 IR Inten    --      4.2510                 0.4155                 2.2204

                     31                     32                     33
                      A                      A                      A
 Frequencies --   1265.7132              1309.3796              1328.3865
 Red. masses --      1.5927                 1.3634                 1.9586
 Frc consts  --      1.5034                 1.3772                 2.0363
 IR Inten    --      4.0224                 6.5952                 2.0254

                     34                     35                     36
                      A                      A                      A
 Frequencies --   1362.7139              1402.0317              1420.8764
 Red. masses --      1.4299                 1.2258                 1.1993
 Frc consts  --      1.5645                 1.4197                 1.4266
 IR Inten    --      7.6481                 3.4567                 6.8882

                     37                     38                     39
                      A                      A                      A
 Frequencies --   1462.9333              1492.0818              1497.0269
 Red. masses --      1.1049                 1.0568                 1.0534
 Frc consts  --      1.3932                 1.3862                 1.3909
 IR Inten    --      2.9015                 5.5712                 3.9396

                     40                     41                     42
                      A                      A                      A
 Frequencies --   1529.8416              1824.0921              2848.8223
 Red. masses --      1.0933                10.9650                 1.0820
 Frc consts  --      1.5076                21.4958                 5.1737
 IR Inten    --      2.2070               170.3412               116.5952

                     43                     44                     45
                      A                      A                      A
 Frequencies --   3013.1850              3029.1304              3047.5750
 Red. masses --      1.0587                 1.0364                 1.0611
 Frc consts  --      5.6632                 5.6029                 5.8067
 IR Inten    --     76.7128                19.1447                18.5438

                     46                     47                     48
                      A                      A                      A
 Frequencies --   3060.7405              3076.0336              3093.4624
 Red. masses --      1.1061                 1.0885                 1.1006
 Frc consts  --      6.1050                 6.0682                 6.2053
 IR Inten    --     45.2090                52.7726                19.0535

                     49                     50                     51
                      A                      A                      A
 Frequencies --   3113.5898              3116.8717              3146.6827
 Red. masses --      1.1019                 1.1042                 1.0893
 Frc consts  --      6.2941                 6.3201                 6.3551
 IR Inten    --      7.2259                19.2845                 8.8159

 - Thermochemistry -
 -------------------
 Temperature   298.150 Kelvin.  Pressure   1.00000 Atm.
 Atom     1 has atomic number  6 and mass  12.00000

 Molecular mass:   126.06808 amu.
 Principal axes and moments of inertia in atomic units:
                           1         2         3
     Eigenvalues --   624.984091370.911391451.86608
           X            0.99916  -0.02782  -0.02997
           Y            0.02625   0.99832  -0.05158
           Z            0.03136   0.05075   0.99822
 This molecule is an asymmetric top.
 Rotational symmetry number  1.
 Warning -- assumption of classical behavior for rotation
           may cause significant error
 Rotational temperatures (Kelvin)      0.13859     0.06318     0.05966
 Rotational constants (GHZ):           2.88766     1.31645     1.24305
 Zero-point vibrational energy     415042.9 (Joules/Mol)
                                   99.19763 (Kcal/Mol)
 Warning -- explicit consideration of  10 degrees of freedom as
           vibrations may cause significant error
 Vibrational temperatures:     91.76   126.54   273.57   337.49   391.06
          (Kelvin)            427.25   475.01   569.46   621.50   831.40
                              907.72  1049.59  1145.26  1203.32  1275.89
                             1312.67  1336.49  1387.79  1409.17  1428.45
                             1458.33  1483.34  1534.66  1595.19  1650.18
                             1672.52  1718.73  1738.64  1776.83  1788.02
                             1821.08  1883.90  1911.25  1960.64  2017.21
                             2044.32  2104.83  2146.77  2153.89  2201.10
                             2624.46  4098.81  4335.30  4358.24  4384.78
                             4403.72  4425.72  4450.80  4479.76  4484.48
                             4527.37

 Zero-point correction=                           0.158081 (Hartree/Particle)
 Thermal correction to Energy=                    0.166563
 Thermal correction to Enthalpy=                  0.167507
 Thermal correction to Gibbs Free Energy=         0.124629
 Sum of electronic and zero-point Energies=           -423.000335
 Sum of electronic and thermal Energies=              -422.991853
 Sum of electronic and thermal Enthalpies=            -422.990909
 Sum of electronic and thermal Free Energies=         -423.033788

                     E (Thermal)             CV                S
                      KCal/Mol        Cal/Mol-Kelvin    Cal/Mol-Kelvin
 Total                  104.520             31.799             90.246
 Electronic               0.000              0.000              0.000
 Translational            0.889              2.981             40.409
 Rotational               0.889              2.981             28.611
 Vibrational            102.743             25.837             21.227
 Vibration     1          0.597              1.972              4.337
 Vibration     2          0.601              1.958              3.705
 Vibration     3          0.633              1.853              2.226
 Vibration     4          0.654              1.788              1.844
 Vibration     5          0.675              1.725              1.585
 Vibration     6          0.691              1.679              1.434
 Vibration     7          0.713              1.615              1.259
 Vibration     8          0.763              1.479              0.978
 Vibration     9          0.793              1.401              0.852
 Vibration    10          0.934              1.079              0.489

 Optimization completed.
    -- Stationary point found.
 Normal termination of Gaussian 09 at Mon Jan 27 17:18:56 2020.
